/*--------------------------------*- C++ -*----------------------------------*\
| =========                 |                                                 |
| \\      /  F ield         | OpenFOAM: The Open Source CFD Toolbox           |
|  \\    /   O peration     | Version:  v1806                                 |
|   \\  /    A nd           | Web:      www.OpenFOAM.com                      |
|    \\/     M anipulation  |                                                 |
\*---------------------------------------------------------------------------*/
FoamFile
{
    version     2.0;
    format      ascii;
    class       vectorField;
    location    "0.0205";
    object      currentcloudofpoints;
}
// * * * * * * * * * * * * * * * * * * * * * * * * * * * * * * * * * * * * * //


2409
(
(0.715824 1.13969 0.999995)
(0.92693 0.74723 0.999993)
(1.10955 1.3446 0.999902)
(1.00526 1.03703 0.719553)
(1.00531 1.03698 1.28047)
(1.02983 1.05303 1)
(0.509048 1.22422 0.999889)
(0.832239 0.555215 1.00004)
(1.15189 1.53766 0.999988)
(0.97881 1.02107 0.528765)
(0.978779 1.0212 1.47119)
(1.10511 1.32866 1.09025)
(1.09007 1.28385 1.17098)
(1.06631 1.21499 1.2332)
(1.03708 1.12924 1.27091)
(1.10764 1.33716 1.04505)
(1.09813 1.30658 1.13082)
(1.07842 1.24976 1.20224)
(1.05197 1.17233 1.2524)
(1.02131 1.08291 1.2759)
(0.930569 0.761569 1.07977)
(0.939841 0.804004 1.15401)
(0.955967 0.868251 1.21707)
(0.978432 0.9479 1.26079)
(0.929144 0.754482 1.0397)
(0.93577 0.783062 1.11626)
(0.947864 0.83656 1.18527)
(0.967616 0.908535 1.23872)
(0.9917 0.992521 1.27067)
(1.10502 1.32871 0.909732)
(1.0901 1.28374 0.829171)
(1.0663 1.21471 0.767053)
(1.0371 1.12914 0.729206)
(1.10755 1.33714 0.954813)
(1.09811 1.30663 0.869247)
(1.07843 1.2495 0.797985)
(1.05194 1.17214 0.747808)
(1.0213 1.08291 0.724108)
(0.978412 0.947897 0.739225)
(0.956042 0.868235 0.782907)
(0.939615 0.80384 0.845958)
(0.930641 0.761627 0.920018)
(0.991683 0.992582 0.729467)
(0.967579 0.908419 0.761074)
(0.947893 0.836603 0.814921)
(0.935508 0.782847 0.883473)
(0.929438 0.75478 0.960231)
(0.919184 1.06733 1.26087)
(0.840085 1.09507 1.21653)
(0.775602 1.11762 1.15223)
(0.731467 1.13351 1.07916)
(0.962939 1.05217 1.26964)
(0.879752 1.08151 1.23948)
(0.808694 1.10633 1.18356)
(0.753668 1.12544 1.11492)
(0.72339 1.13672 1.03948)
(0.731512 1.13369 0.920865)
(0.77498 1.11793 0.84753)
(0.839576 1.0952 0.782985)
(0.919079 1.0673 0.739416)
(0.723649 1.1367 0.960582)
(0.753224 1.12581 0.884893)
(0.808198 1.10642 0.816177)
(0.879422 1.08156 0.760339)
(0.962912 1.05222 0.730661)
(0.840519 0.793469 1.00002)
(0.770273 0.8638 0.999701)
(0.722992 0.951087 0.99995)
(0.702425 1.04567 1.00001)
(0.884755 0.770735 1.00005)
(0.805986 0.828904 0.999821)
(0.747143 0.907871 0.999764)
(0.712947 0.998532 1.00002)
(0.708808 1.09251 0.999993)
(0.75844 1.2253 0.999838)
(0.82562 1.29413 0.999822)
(0.913374 1.33871 0.999974)
(1.01217 1.35419 0.99996)
(0.737491 1.18193 0.999962)
(0.792254 1.2596 0.999785)
(0.86955 1.31678 0.999947)
(0.964089 1.34606 0.999988)
(1.06059 1.35003 0.999908)
(0.83564 0.563949 1.08883)
(0.84674 0.587791 1.17518)
(0.866964 0.627774 1.2542)
(0.889019 0.684702 1.32399)
(0.910179 0.754709 1.38358)
(0.929168 0.836159 1.43024)
(0.952341 0.926525 1.45956)
(0.834492 0.559339 1.04442)
(0.841733 0.575982 1.13198)
(0.857341 0.607618 1.21484)
(0.879107 0.656002 1.28884)
(0.900583 0.719835 1.35356)
(0.920277 0.795298 1.40694)
(0.940876 0.881357 1.44476)
(0.965771 0.973887 1.46542)
(1.00797 1.11664 1.46565)
(1.04119 1.20948 1.44156)
(1.07576 1.29671 1.39995)
(1.1054 1.3758 1.34189)
(1.12914 1.44259 1.26821)
(1.14231 1.49446 1.18403)
(1.14951 1.52693 1.09378)
(0.99333 1.06897 1.46827)
(1.02453 1.16306 1.45364)
(1.05909 1.25285 1.42086)
(1.09105 1.33623 1.37111)
(1.11825 1.40907 1.30539)
(1.1364 1.46869 1.22599)
(1.14614 1.51106 1.13895)
(1.15084 1.53261 1.04694)
(0.835692 0.56417 0.910973)
(0.846563 0.587648 0.824881)
(0.866909 0.627202 0.745367)
(0.888477 0.683621 0.674864)
(0.90972 0.754042 0.615675)
(0.929034 0.836068 0.569896)
(0.95234 0.926538 0.540631)
(0.834902 0.559737 0.955556)
(0.841402 0.57594 0.86788)
(0.857386 0.60726 0.785045)
(0.878811 0.655245 0.710387)
(0.900021 0.71887 0.645416)
(0.919931 0.794898 0.592695)
(0.94087 0.88137 0.555553)
(0.965738 0.973831 0.534623)
(1.1495 1.527 0.906198)
(1.14235 1.49454 0.815954)
(1.12915 1.44237 0.731893)
(1.10542 1.37565 0.658105)
(1.07579 1.29679 0.599845)
(1.04112 1.20952 0.558416)
(1.00803 1.11657 0.534302)
(1.15082 1.53264 0.95304)
(1.14616 1.51116 0.861031)
(1.13645 1.46865 0.774031)
(1.11825 1.40879 0.69474)
(1.09109 1.33626 0.628694)
(1.05907 1.25287 0.579105)
(1.02449 1.16309 0.546309)
(0.993426 1.06884 0.531638)
(0.518038 1.21798 1.08665)
(0.547024 1.20127 1.16941)
(0.594629 1.17802 1.24637)
(0.656369 1.15017 1.31661)
(0.726083 1.11964 1.37765)
(0.803235 1.08785 1.42576)
(0.889757 1.05517 1.45581)
(0.513534 1.22148 1.04342)
(0.532577 1.20947 1.12826)
(0.570782 1.18938 1.20785)
(0.626562 1.16371 1.28089)
(0.691734 1.1348 1.34705)
(0.764997 1.10363 1.40181)
(0.845876 1.07156 1.44015)
(0.935293 1.03849 1.46471)
(0.518545 1.21771 0.913496)
(0.545747 1.20191 0.830143)
(0.59558 1.17774 0.754264)
(0.655846 1.1503 0.682886)
(0.726257 1.11957 0.622505)
(0.8036 1.0876 0.575174)
(0.889634 1.05508 0.543961)
(0.514459 1.22097 0.956533)
(0.531813 1.20982 0.871603)
(0.570615 1.18959 0.792158)
(0.626756 1.16363 0.719196)
(0.691556 1.13486 0.652696)
(0.765287 1.10344 0.598753)
(0.845975 1.07137 0.560309)
(0.935246 1.03837 0.535013)
(0.735705 0.599694 1.00005)
(0.65586 0.659301 1.00007)
(0.590966 0.73415 0.999992)
(0.541188 0.821501 0.999946)
(0.508877 0.918239 0.999958)
(0.493087 1.02018 1.00004)
(0.494161 1.1237 0.999978)
(0.784095 0.577622 1.00004)
(0.695646 0.628994 1.00007)
(0.623783 0.696174 1.00003)
(0.566255 0.777048 0.999958)
(0.525358 0.869166 0.999929)
(0.50139 0.968512 1)
(0.494213 1.07133 1.00002)
(0.502435 1.17356 0.999931)
(0.541092 1.31533 0.999898)
(0.592934 1.39231 0.999949)
(0.663528 1.45459 1.00002)
(0.750688 1.50167 1.00011)
(0.848158 1.53434 1.00009)
(0.949987 1.55266 1.00003)
(1.05251 1.55522 0.999986)
(0.525038 1.26985 0.999889)
(0.566892 1.35398 0.999942)
(0.628025 1.42343 0.99997)
(0.707006 1.47798 1.00009)
(0.799598 1.51774 1.00009)
(0.899331 1.54259 1.00006)
(1.00179 1.55456 0.999996)
(1.10241 1.54539 0.999985)
(0.991478 1.02876 0.62622)
(0.986574 1.02448 0.576435)
(0.997976 1.03297 0.674062)
(0.991678 1.02878 1.37381)
(0.998178 1.0329 1.32599)
(0.986612 1.02464 1.42353)
(0.884791 0.648477 0.999908)
(0.906487 0.698481 0.999916)
(0.861718 0.597365 1.00003)
(1.13279 1.43901 0.999947)
(1.12079 1.39116 0.999918)
(1.14344 1.48788 0.999968)
(0.696682 1.35898 1.24603)
(0.684495 1.41208 1.17536)
(0.870242 1.24729 1.40981)
(0.856909 1.50098 1.16245)
(0.566222 1.33986 1.08134)
(0.947169 1.19008 1.44675)
(1.05059 1.53232 1.13691)
(0.960972 1.49618 1.21528)
(0.611396 1.34061 1.17159)
(0.772009 1.43809 1.21739)
(0.737676 1.47289 1.12072)
(0.644298 1.26123 1.26649)
(0.870371 1.4361 1.27194)
(0.947198 1.53024 1.13398)
(0.792723 1.37021 1.30276)
(0.994426 1.55124 1.06694)
(0.965236 1.28092 1.4164)
(0.901769 1.53738 1.07713)
(0.550199 1.28044 1.12324)
(0.866084 1.14212 1.43997)
(0.779768 1.20544 1.38929)
(0.889594 1.35157 1.35698)
(1.05014 1.47982 1.24129)
(0.641578 1.42226 1.08805)
(0.581476 1.25773 1.19534)
(0.809951 1.2979 1.3617)
(1.04407 1.42175 1.31292)
(0.964686 1.43298 1.3008)
(0.531198 1.28266 1.05835)
(0.937682 1.10587 1.46235)
(1.08091 1.54714 1.06)
(0.730596 1.29435 1.31896)
(0.703829 1.2093 1.33959)
(1.00739 1.36743 1.36412)
(0.693989 1.46878 1.05355)
(0.815523 1.51673 1.07397)
(0.97768 1.15366 1.45686)
(0.993483 1.20051 1.4455)
(0.958426 1.06371 1.46735)
(0.972781 1.11156 1.46472)
(0.942552 1.14788 1.45436)
(1.00329 1.2457 1.42979)
(1.02038 1.28906 1.4092)
(0.956322 1.23562 1.43154)
(1.04174 1.33219 1.38241)
(1.05608 1.37102 1.35294)
(0.987019 1.32443 1.39086)
(1.07475 1.39839 1.32728)
(1.08698 1.43122 1.29042)
(1.02578 1.39464 1.33869)
(1.08994 1.46037 1.25443)
(1.09617 1.48611 1.21237)
(1.04816 1.45064 1.27718)
(1.0965 1.51287 1.16058)
(1.10008 1.52851 1.1154)
(1.05046 1.50696 1.18935)
(1.1153 1.53656 1.07683)
(1.11668 1.5418 1.03017)
(1.0657 1.53974 1.09841)
(1.06679 1.55125 1.02994)
(0.579811 1.36633 1.04071)
(0.553444 1.32806 1.04077)
(0.548547 1.31151 1.06999)
(0.5361 1.2993 1.02915)
(0.520138 1.25358 1.02918)
(0.652556 1.43878 1.04416)
(0.617344 1.40727 1.04404)
(0.604097 1.3808 1.08478)
(0.722363 1.4852 1.027)
(0.6787 1.46178 1.02678)
(0.667622 1.44575 1.07089)
(0.831742 1.52551 1.03717)
(0.783102 1.50926 1.03695)
(0.755004 1.49231 1.06386)
(0.925755 1.54478 1.03875)
(0.875084 1.53552 1.03848)
(0.858947 1.52661 1.07564)
(1.02366 1.55365 1.03369)
(0.972246 1.55198 1.03332)
(0.948156 1.54371 1.07212)
(1.03798 1.54969 1.06363)
(0.654268 1.34969 1.20857)
(0.647819 1.37639 1.1737)
(0.690809 1.38589 1.21082)
(0.728398 1.42502 1.19633)
(0.734148 1.39887 1.23217)
(0.626547 1.38204 1.13012)
(0.662908 1.41739 1.13159)
(0.710918 1.443 1.14824)
(0.755122 1.45582 1.16876)
(0.689154 1.44779 1.10445)
(0.90964 1.21863 1.42753)
(0.918099 1.2641 1.41255)
(0.907272 1.16589 1.44237)
(0.868316 1.19462 1.42474)
(0.880465 1.29966 1.38358)
(0.928403 1.31648 1.38666)
(0.824859 1.22635 1.39959)
(0.823187 1.17361 1.41517)
(0.840476 1.27251 1.38576)
(0.794827 1.2519 1.37567)
(0.849728 1.32461 1.35917)
(0.836414 1.50872 1.1179)
(0.879329 1.51917 1.11998)
(0.798014 1.48601 1.14148)
(0.776868 1.49448 1.09758)
(0.915921 1.46513 1.24394)
(0.864156 1.46931 1.21745)
(0.908876 1.49809 1.18864)
(0.902065 1.51511 1.14855)
(0.954148 1.51374 1.17458)
(0.924444 1.53364 1.10536)
(0.814732 1.46933 1.19035)
(0.821684 1.43719 1.24475)
(0.580643 1.31041 1.14742)
(0.558095 1.31049 1.10242)
(0.588787 1.34011 1.1265)
(0.540665 1.28165 1.09094)
(0.534061 1.24921 1.10508)
(0.549023 1.24088 1.14657)
(0.524648 1.25042 1.07262)
(0.564328 1.22943 1.18236)
(0.588343 1.21791 1.22122)
(0.565957 1.26898 1.15934)
(0.619698 1.2197 1.25649)
(0.651214 1.20561 1.2915)
(0.613083 1.25944 1.23082)
(0.715325 1.16435 1.35871)
(0.680127 1.17979 1.32811)
(0.675249 1.23511 1.30276)
(0.75293 1.16256 1.38324)
(0.791957 1.14642 1.40758)
(0.742202 1.20727 1.36434)
(0.834215 1.11508 1.43295)
(0.878041 1.09873 1.44752)
(0.913986 1.08053 1.45887)
(0.902715 1.12404 1.45026)
(0.670501 1.31034 1.25663)
(0.714364 1.32689 1.28263)
(0.687886 1.27778 1.29247)
(0.761533 1.33241 1.31107)
(0.745231 1.36462 1.27432)
(0.628579 1.30112 1.21925)
(0.782978 1.40466 1.26028)
(1.02272 1.54221 1.10176)
(0.717303 1.25196 1.32931)
(0.756083 1.24984 1.35414)
(0.770515 1.29612 1.34031)
(0.801907 1.33422 1.33239)
(0.715787 1.47088 1.08706)
(0.999509 1.53188 1.13586)
(1.0064 1.51498 1.17694)
(1.00617 1.48902 1.22916)
(0.970857 1.54045 1.10053)
(0.96368 1.46457 1.25834)
(0.917449 1.43395 1.28615)
(1.00853 1.4567 1.2721)
(0.596554 1.29945 1.18378)
(0.831549 1.40333 1.28767)
(0.841801 1.36067 1.32979)
(0.880819 1.39406 1.31481)
(0.927434 1.3921 1.32913)
(0.949494 1.35985 1.361)
(0.986997 1.40057 1.33272)
(1.00503 1.42795 1.3076)
(0.659298 0.872604 1.30098)
(0.535015 0.933089 1.15577)
(0.643631 0.712174 1.15537)
(0.700154 0.662871 1.16549)
(0.556023 0.984135 1.21072)
(0.696432 0.949592 1.35361)
(0.768098 0.606292 1.135)
(0.516866 1.14121 1.12666)
(0.86377 0.915799 1.43576)
(0.581658 0.900925 1.22328)
(0.710296 0.715164 1.24691)
(0.51237 1.0349 1.12852)
(0.624177 0.979318 1.29309)
(0.8283 0.822975 1.39174)
(0.668948 1.05646 1.33897)
(0.597488 1.06637 1.26851)
(0.774457 0.643409 1.21638)
(0.827115 1.00134 1.43515)
(0.685531 0.644583 1.08545)
(0.518943 0.910953 1.08539)
(0.778432 0.923493 1.40282)
(0.544081 1.09504 1.19413)
(0.744278 1.02946 1.39555)
(0.550587 0.818867 1.07907)
(0.766927 0.766667 1.32803)
(0.806216 0.690829 1.29231)
(0.621295 0.796013 1.21643)
(0.697604 0.792952 1.29592)
(0.838844 0.740119 1.34827)
(0.733619 0.8509 1.35097)
(0.582411 0.785111 1.13056)
(0.55689 0.854541 1.15004)
(0.768115 0.587291 1.06242)
(0.902105 0.983676 1.45749)
(0.59773 0.73348 1.06675)
(0.497834 1.11417 1.05922)
(0.499087 0.998275 1.05652)
(0.726607 0.625015 1.11017)
(0.693221 0.653686 1.12555)
(0.734088 0.63448 1.15043)
(0.76856 0.596941 1.0987)
(0.726442 0.615567 1.0741)
(0.736911 0.652885 1.191)
(0.771464 0.624673 1.17603)
(0.802459 0.585362 1.11206)
(0.807948 0.597061 1.15516)
(0.802379 0.575765 1.07561)
(0.811347 0.615777 1.19622)
(0.897336 0.875798 1.43354)
(0.909232 0.921234 1.44797)
(0.870344 0.788851 1.38781)
(0.880745 0.829451 1.41123)
(0.846368 0.869168 1.41415)
(0.927644 0.955069 1.45909)
(0.94098 1.00253 1.46538)
(0.88326 0.949833 1.44632)
(0.523958 0.983322 1.14228)
(0.534247 1.00904 1.16981)
(0.545754 0.958269 1.18325)
(0.528388 1.06456 1.16143)
(0.550752 1.03914 1.20245)
(0.59031 0.98128 1.25168)
(0.577066 1.02492 1.23948)
(0.611139 1.02259 1.28081)
(0.569061 0.942159 1.21701)
(0.603294 0.939596 1.25807)
(0.570877 1.08028 1.23112)
(0.5585 0.916615 1.1894)
(0.671924 0.687145 1.16047)
(0.665114 0.67811 1.12071)
(0.642256 0.688308 1.07612)
(0.621039 0.722678 1.11114)
(0.671002 0.651965 1.04283)
(0.710665 0.621754 1.04295)
(0.751913 0.593234 1.03126)
(0.627473 0.696146 1.03355)
(0.515437 1.08757 1.12767)
(0.530554 1.1179 1.1606)
(0.505705 1.07423 1.09405)
(0.507553 1.12761 1.09309)
(0.516927 0.965222 1.10656)
(0.505898 1.01642 1.09278)
(0.499183 1.05541 1.05794)
(0.647247 1.01788 1.31565)
(0.633989 1.06118 1.30324)
(0.683075 1.00295 1.346)
(0.661135 0.964301 1.32282)
(0.642281 0.925729 1.29684)
(0.678786 0.911085 1.32664)
(0.620754 0.886258 1.26195)
(0.875725 0.74736 1.366)
(0.834222 0.781641 1.3697)
(0.802867 0.873191 1.39728)
(0.82065 0.919797 1.41901)
(0.780627 0.836998 1.3713)
(0.756515 0.88709 1.37688)
(0.798489 0.795053 1.35953)
(0.80259 0.753539 1.33796)
(0.750482 0.80881 1.33924)
(0.663002 1.10319 1.3278)
(0.62796 1.10807 1.29201)
(0.697963 1.08815 1.3581)
(0.735413 1.07454 1.38654)
(0.70732 1.04283 1.36693)
(0.720859 0.989549 1.37428)
(0.597078 1.12188 1.25735)
(0.569841 1.1361 1.22005)
(0.858299 1.02838 1.44522)
(0.81527 1.04465 1.43026)
(0.785939 1.01532 1.41575)
(0.773959 1.05876 1.41072)
(0.89605 1.0195 1.45665)
(0.864685 0.992657 1.44568)
(0.845232 0.958676 1.43512)
(0.803069 0.962478 1.41891)
(0.761467 0.976413 1.39903)
(0.676867 0.713157 1.2011)
(0.705227 0.688737 1.20639)
(0.633026 0.753818 1.1861)
(0.665841 0.754955 1.23182)
(0.590192 0.759052 1.09882)
(0.613393 0.748128 1.14296)
(0.602237 0.790245 1.17345)
(0.742204 0.67914 1.23172)
(0.532157 1.171 1.14811)
(0.518108 1.17938 1.10678)
(0.508914 1.16561 1.07302)
(0.504457 1.16891 1.02967)
(0.546456 1.14787 1.18197)
(0.715047 0.900041 1.35246)
(0.696951 0.861643 1.32551)
(0.64044 0.833553 1.259)
(0.602172 0.848019 1.21994)
(0.678442 0.832607 1.29851)
(0.659202 0.793743 1.25649)
(0.716554 0.822021 1.32267)
(0.800608 0.571286 1.03128)
(0.594569 0.733878 1.03348)
(0.569909 0.77667 1.03342)
(0.514487 0.914675 1.04267)
(0.531115 0.865917 1.04281)
(0.546241 0.82021 1.0396)
(0.574372 0.775473 1.073)
(0.535231 0.864359 1.08228)
(0.496332 1.00926 1.02829)
(0.504437 0.957912 1.02828)
(0.509323 0.954084 1.07096)
(0.496142 1.11904 1.02967)
(0.496236 1.0667 1.0297)
(0.82152 0.635745 1.2353)
(0.848735 0.687663 1.30828)
(0.83735 0.659388 1.27344)
(0.791025 0.666984 1.25418)
(0.864576 0.712301 1.33642)
(0.823321 0.715404 1.32003)
(0.737675 0.936497 1.37816)
(0.758012 0.702862 1.26939)
(0.546186 0.89342 1.15297)
(0.569534 0.877329 1.18667)
(0.589767 0.824792 1.183)
(0.786689 0.72865 1.31025)
(0.739626 0.740344 1.28739)
(0.704385 0.753707 1.27166)
(0.732608 0.779788 1.31168)
(0.537845 0.882335 1.11797)
(0.52686 0.921827 1.12091)
(0.566505 0.801797 1.10488)
(0.553947 0.836599 1.1148)
(0.570026 0.819574 1.14037)
(0.675376 0.766584 0.743615)
(0.595113 0.963813 0.741148)
(0.683742 0.711903 0.786082)
(0.695782 0.663258 0.841411)
(0.517734 0.98957 0.865875)
(0.754078 0.927634 0.610775)
(0.514769 1.0879 0.864579)
(0.820255 0.995209 0.56724)
(0.628747 0.780767 0.786291)
(0.553921 0.927153 0.810149)
(0.79087 0.771861 0.654385)
(0.600175 1.06674 0.72935)
(0.673037 0.932255 0.670188)
(0.619151 0.85476 0.748228)
(0.734141 0.860563 0.645706)
(0.545167 1.02045 0.802796)
(0.732339 1.01799 0.611994)
(0.763829 0.643423 0.793815)
(0.863485 0.916467 0.563805)
(0.763 0.605418 0.873717)
(0.615267 0.707111 0.943276)
(0.525213 0.898317 0.902494)
(0.567277 0.785328 0.91805)
(0.685455 0.641967 0.924046)
(0.553627 1.10925 0.793255)
(0.575018 0.826731 0.834888)
(0.759111 0.708633 0.721491)
(0.62712 0.72378 0.85838)
(0.66404 1.04636 0.663995)
(0.49673 1.02995 0.939154)
(0.823089 0.837465 0.603904)
(0.76659 0.588502 0.941284)
(0.504277 1.14994 0.922038)
(0.699162 0.810495 0.69227)
(0.629835 1.00123 0.698892)
(0.900699 0.982701 0.542773)
(0.624288 0.817505 0.76728)
(0.647391 0.810241 0.745756)
(0.652244 0.773472 0.765121)
(0.679977 0.73915 0.764949)
(0.656539 0.746025 0.786146)
(0.687389 0.788302 0.717849)
(0.659268 0.832121 0.720285)
(0.721771 0.709883 0.754019)
(0.717268 0.737325 0.732516)
(0.729327 0.759429 0.706787)
(0.808219 0.922037 0.587055)
(0.787499 0.961337 0.588603)
(0.841607 0.955981 0.565877)
(0.743199 0.972757 0.61129)
(0.776602 1.00646 0.589167)
(0.843415 0.876726 0.583299)
(0.788203 0.882539 0.607438)
(0.744595 0.89417 0.628503)
(0.703816 0.896371 0.658103)
(0.714316 0.930005 0.640744)
(0.703405 0.975109 0.641055)
(0.778545 0.849095 0.625107)
(0.895212 1.01896 0.543219)
(0.940299 1.00198 0.534711)
(0.926976 0.954597 0.541196)
(0.530317 1.05388 0.833504)
(0.531439 1.00476 0.834169)
(0.516823 1.03821 0.865171)
(0.550005 1.06457 0.798034)
(0.534133 1.09839 0.828661)
(0.506083 1.0586 0.901611)
(0.507449 1.00961 0.902356)
(0.550283 1.15538 0.811453)
(0.531146 1.14438 0.847205)
(0.509621 1.1188 0.893123)
(0.524809 1.17556 0.87595)
(0.501373 1.08916 0.930439)
(0.860419 0.989131 0.555694)
(0.882438 0.949714 0.553686)
(0.768169 1.05283 0.593382)
(0.811893 1.04142 0.571192)
(0.85471 1.02531 0.555989)
(0.601883 0.803301 0.81052)
(0.597388 0.840218 0.791704)
(0.655355 0.717441 0.822091)
(0.628129 0.752015 0.821997)
(0.60166 0.774591 0.846381)
(0.897149 0.876121 0.566431)
(0.909145 0.921628 0.552097)
(0.877826 0.8365 0.586314)
(0.607607 0.908923 0.744661)
(0.586971 0.890427 0.779331)
(0.574475 0.94504 0.775643)
(0.565013 0.876411 0.82245)
(0.549856 0.973342 0.806416)
(0.535955 0.957991 0.837892)
(0.570209 0.991682 0.772038)
(0.539563 0.912415 0.855966)
(0.52196 0.943363 0.884068)
(0.55036 0.861992 0.868616)
(0.717155 0.835523 0.669409)
(0.7622 0.816006 0.650013)
(0.745091 0.79117 0.673646)
(0.80784 0.804743 0.629709)
(0.851904 0.76303 0.635029)
(0.840685 0.727958 0.664317)
(0.775689 0.740231 0.68802)
(0.825201 0.696659 0.698522)
(0.867452 0.795685 0.609566)
(0.598168 1.01506 0.735294)
(0.572941 1.04317 0.766363)
(0.577372 1.08756 0.761661)
(0.628958 1.10833 0.706673)
(0.598985 1.12189 0.741994)
(0.574946 1.14323 0.773974)
(0.63269 1.05639 0.697022)
(0.660397 1.0982 0.673515)
(0.615211 1.03378 0.714061)
(0.612936 0.9824 0.720321)
(0.647215 1.02379 0.68158)
(0.634891 0.947727 0.706264)
(0.646878 0.893088 0.709616)
(0.686668 0.871318 0.681708)
(0.698717 1.03205 0.638198)
(0.668889 0.989127 0.667057)
(0.651744 0.966562 0.684585)
(0.729528 1.06873 0.617416)
(0.695575 1.08306 0.643406)
(0.723814 0.67742 0.789863)
(0.729608 0.653152 0.817667)
(0.689928 0.687414 0.813521)
(0.729199 0.634109 0.857428)
(0.763424 0.624241 0.833543)
(0.805745 0.615668 0.808954)
(0.81627 0.63549 0.769627)
(0.805277 0.596516 0.849298)
(0.762282 0.675796 0.757605)
(0.813848 0.668514 0.733341)
(0.511787 0.962946 0.920837)
(0.661676 0.693011 0.84985)
(0.724102 0.62351 0.898921)
(0.69074 0.652506 0.882529)
(0.656785 0.682223 0.89088)
(0.511715 1.1837 0.917702)
(0.50771 1.18693 0.960857)
(0.670887 0.650422 0.962034)
(0.711018 0.620942 0.961971)
(0.751412 0.594112 0.970682)
(0.800028 0.572036 0.970619)
(0.725713 0.615051 0.932592)
(0.603293 0.720501 0.971595)
(0.635873 0.682963 0.97161)
(0.650568 0.673852 0.933639)
(0.554213 0.80315 0.958924)
(0.579245 0.759301 0.958781)
(0.591552 0.745592 0.93051)
(0.533578 0.859552 0.950951)
(0.517263 0.90824 0.951165)
(0.546814 0.841048 0.910203)
(0.495002 1.02515 0.969568)
(0.503442 0.973354 0.969541)
(0.496016 1.07645 0.969482)
(0.499628 1.13685 0.960878)
(0.801674 0.576482 0.92611)
(0.799865 0.585067 0.892165)
(0.765085 0.597042 0.907425)
(0.621372 0.715275 0.90061)
(0.59755 0.753951 0.888135)
(0.571545 0.805952 0.876186)
(0.714813 1.42813 0.817636)
(0.672238 1.36163 0.778997)
(0.961014 1.52371 0.842728)
(0.791425 1.29002 0.64121)
(0.557115 1.29933 0.882953)
(1.06174 1.53154 0.864935)
(0.938191 1.19602 0.555931)
(0.897275 1.30495 0.61127)
(0.621059 1.38038 0.864401)
(0.754526 1.37496 0.724842)
(0.687538 1.28703 0.708457)
(0.695618 1.46227 0.915711)
(0.856637 1.39373 0.688564)
(0.84925 1.22874 0.589057)
(0.817014 1.44992 0.772169)
(0.86184 1.14306 0.562356)
(1.0392 1.49642 0.782625)
(0.792471 1.18481 0.598926)
(0.566983 1.34695 0.936558)
(0.999749 1.55129 0.932371)
(0.879844 1.53133 0.910321)
(0.928234 1.46779 0.749628)
(0.987225 1.29998 0.592647)
(0.607268 1.28341 0.786431)
(0.618787 1.41134 0.941785)
(0.872329 1.49877 0.823754)
(1.02496 1.37038 0.63921)
(0.948776 1.38761 0.657687)
(0.533319 1.28352 0.943391)
(1.084 1.54664 0.940141)
(0.935195 1.10691 0.538237)
(0.784617 1.48477 0.856909)
(0.788385 1.51015 0.935085)
(1.03107 1.43188 0.695207)
(0.63324 1.22771 0.729666)
(0.726157 1.21033 0.644462)
(1.06833 1.55095 0.970123)
(1.11822 1.54163 0.969894)
(1.11683 1.5364 0.923228)
(0.667691 1.40423 0.840977)
(0.64661 1.37121 0.821697)
(0.69348 1.39518 0.798062)
(0.713854 1.36824 0.752015)
(0.735458 1.40191 0.771311)
(0.705173 1.44558 0.866686)
(0.658339 1.42163 0.889753)
(0.78585 1.41255 0.748157)
(0.766263 1.43889 0.794852)
(0.749677 1.45661 0.836942)
(0.740185 1.47329 0.886378)
(0.801021 1.46785 0.814546)
(0.554363 1.33116 0.968133)
(0.579971 1.36993 0.968178)
(0.52138 1.25393 0.971532)
(0.537434 1.29952 0.971567)
(0.550229 1.31531 0.939895)
(0.605862 1.40199 0.970829)
(0.641104 1.43318 0.9708)
(0.592712 1.3793 0.939102)
(0.679529 1.45862 0.957927)
(0.723052 1.48218 0.957682)
(0.657011 1.43675 0.928753)
(0.818153 1.52249 0.967375)
(0.769447 1.50608 0.967658)
(0.74209 1.48593 0.92522)
(0.86386 1.53307 0.955293)
(0.914862 1.54161 0.954946)
(0.834369 1.52038 0.922669)
(0.974974 1.55199 0.96639)
(1.02627 1.55351 0.965993)
(0.940024 1.54031 0.921143)
(1.04212 1.54932 0.936095)
(0.957201 1.06418 0.532674)
(0.912658 1.08099 0.541342)
(0.971642 1.11205 0.535362)
(0.551718 1.25092 0.856146)
(0.538056 1.25847 0.898049)
(0.545391 1.29138 0.913137)
(0.52627 1.25059 0.928386)
(0.576567 1.24253 0.808275)
(0.581696 1.29146 0.834495)
(0.593859 1.36359 0.900516)
(0.562236 1.32325 0.90972)
(0.58885 1.33997 0.873491)
(0.61422 1.33257 0.824878)
(1.01198 1.52824 0.853196)
(1.0005 1.51091 0.81236)
(1.05045 1.51418 0.823771)
(1.09066 1.49428 0.79945)
(1.10214 1.51261 0.840438)
(1.03095 1.54199 0.898701)
(1.07283 1.53917 0.902577)
(0.980448 1.5376 0.887444)
(1.10569 1.52834 0.885558)
(0.601754 1.23079 0.769849)
(0.64513 1.18885 0.706343)
(0.614722 1.20267 0.742067)
(0.620731 1.25557 0.758026)
(0.726596 1.16484 0.633676)
(0.69098 1.18046 0.663613)
(0.680326 1.21907 0.686833)
(0.798317 1.13614 0.587072)
(0.759494 1.15221 0.611074)
(0.759989 1.19732 0.622253)
(0.875914 1.09906 0.553841)
(0.832489 1.1154 0.569008)
(0.827119 1.16393 0.580161)
(0.899316 1.12496 0.551336)
(0.877593 1.34942 0.649653)
(0.824132 1.34215 0.664618)
(0.844205 1.29741 0.626211)
(0.821108 1.25934 0.615244)
(0.873119 1.26709 0.600096)
(0.82081 1.20684 0.593959)
(0.792413 1.23746 0.6202)
(0.758715 1.2503 0.642982)
(0.720923 1.33129 0.716349)
(0.740051 1.28852 0.674824)
(0.773902 1.33274 0.682781)
(0.806006 1.38409 0.706851)
(0.707162 1.2489 0.675917)
(0.639686 1.32266 0.782515)
(0.68068 1.3245 0.743657)
(0.648362 1.28496 0.747989)
(0.894137 1.2122 0.573227)
(0.918684 1.25096 0.583266)
(0.9628 1.24863 0.573429)
(0.943186 1.30272 0.60197)
(0.85562 1.18587 0.575514)
(0.900477 1.16925 0.56008)
(0.937007 1.15126 0.547619)
(0.989132 1.20374 0.555363)
(1.01434 1.25513 0.574881)
(0.973567 1.15662 0.544353)
(0.923434 1.34602 0.634488)
(0.902543 1.39042 0.673227)
(0.969276 1.3439 0.624968)
(0.620098 1.39596 0.903118)
(0.83768 1.42188 0.730489)
(0.660292 1.25748 0.719014)
(0.786541 1.49737 0.896031)
(0.872769 1.45804 0.761067)
(0.892696 1.43062 0.718756)
(0.939566 1.4286 0.702869)
(0.900442 1.4831 0.787018)
(0.844753 1.47429 0.797635)
(0.828788 1.49154 0.840322)
(0.98098 1.45137 0.721239)
(1.03644 1.46428 0.738525)
(0.984703 1.48261 0.764919)
(1.08036 1.4359 0.713724)
(1.08484 1.46873 0.757332)
(0.944976 1.49578 0.795987)
(0.990442 1.41026 0.675548)
(1.02828 1.40105 0.667153)
(0.987679 1.37946 0.647884)
(1.06838 1.40304 0.676822)
(1.06496 1.37247 0.648829)
(0.920462 1.52722 0.876851)
(0.87606 1.51526 0.867019)
(0.832491 1.50758 0.883225)
(0.916652 1.51063 0.833064)
(1.00651 1.33518 0.615631)
(1.03127 1.29831 0.595904)
(1.05058 1.33357 0.619383)
(0.893162 0.94065 1.23167)
(0.84906 0.824242 1.11176)
(0.760202 0.909348 1.08186)
(0.861357 1.0131 1.23394)
(0.718189 1.00677 1.06595)
(0.826674 0.960581 1.1969)
(0.879697 0.873239 1.18537)
(0.801613 0.909538 1.14449)
(0.760345 1.00206 1.1407)
(0.927904 0.998733 1.26002)
(0.812098 0.824595 1.04953)
(0.804375 1.03818 1.1924)
(0.738949 1.06463 1.11584)
(0.867868 0.781304 1.04932)
(0.711065 1.07966 1.05374)
(0.713159 1.10964 1.02686)
(0.721304 1.10651 1.06631)
(0.735264 1.09887 1.09723)
(0.757327 1.09104 1.13366)
(0.725194 1.07211 1.0845)
(0.865116 0.849226 1.14746)
(0.84124 0.891517 1.16488)
(0.825733 0.867324 1.12799)
(0.805358 0.866943 1.09666)
(0.781319 0.909449 1.11267)
(0.786849 0.86734 1.06557)
(0.830873 0.824265 1.08044)
(0.858779 0.802849 1.08028)
(0.840138 0.802975 1.04941)
(0.910225 0.839259 1.16889)
(0.895735 0.814732 1.13171)
(0.89056 0.793317 1.09522)
(0.899837 0.771546 1.06414)
(0.760546 0.956301 1.11072)
(0.739577 1.00458 1.10261)
(0.739795 0.9586 1.07358)
(0.720834 0.979416 1.03268)
(0.742312 0.930923 1.04053)
(0.749693 1.03339 1.1281)
(0.728488 1.0358 1.09056)
(0.710313 1.02642 1.03289)
(0.71453 1.0432 1.05975)
(0.706506 1.06282 1.02672)
(0.936615 0.944887 1.24505)
(0.953442 0.973626 1.25993)
(0.910655 0.969927 1.24586)
(0.966782 1.01781 1.26951)
(0.894897 1.00615 1.2473)
(0.877233 0.977011 1.23314)
(0.923601 1.03306 1.26048)
(0.890415 1.04041 1.24743)
(0.853443 0.917368 1.19155)
(0.814493 0.935405 1.17022)
(0.781402 0.956155 1.14257)
(0.794366 0.98149 1.16808)
(0.82666 0.809147 1.0247)
(0.791866 0.844624 1.02445)
(0.85448 0.787493 1.02458)
(0.766056 0.887259 1.04056)
(0.925337 0.905393 1.22357)
(0.886529 0.907405 1.20841)
(0.85995 0.950745 1.21464)
(0.91834 0.871414 1.2006)
(0.844049 0.986929 1.21546)
(0.850995 1.05415 1.22544)
(0.790576 1.07784 1.1719)
(0.822446 1.06657 1.20422)
(0.833247 1.02572 1.21321)
(0.772378 1.05143 1.15292)
(0.898169 0.764644 1.02467)
(0.782715 1.0202 1.16602)
(0.815499 0.999503 1.19474)
(0.781872 1.19902 1.11313)
(1.01017 1.32326 1.11981)
(0.956858 1.3403 1.0621)
(0.974136 1.27695 1.1748)
(0.901325 1.23548 1.18826)
(0.975674 1.19097 1.23851)
(0.919971 1.29954 1.1302)
(0.873663 1.31079 1.06887)
(0.90425 1.15119 1.23672)
(1.03968 1.3483 1.05626)
(0.848166 1.25928 1.12881)
(0.839788 1.18825 1.18104)
(0.795224 1.25467 1.06163)
(0.747612 1.19516 1.05201)
(0.967451 1.1164 1.26599)
(0.915179 1.32606 1.06553)
(0.938804 1.32039 1.09616)
(0.897103 1.30545 1.0993)
(0.861252 1.28516 1.09883)
(0.883918 1.27981 1.12957)
(0.966138 1.31106 1.12463)
(0.992432 1.30012 1.14734)
(0.947691 1.28848 1.15233)
(0.984373 1.33189 1.0907)
(0.938017 1.25634 1.18141)
(0.911038 1.26804 1.15914)
(0.875062 1.24794 1.15843)
(0.739561 1.16413 1.0655)
(0.731765 1.1672 1.02576)
(0.778893 1.1581 1.13243)
(0.756671 1.16599 1.09565)
(0.764758 1.19705 1.08226)
(1.04999 1.30383 1.14486)
(1.05738 1.32648 1.1054)
(1.02527 1.33599 1.08829)
(1.07253 1.3391 1.07308)
(1.0746 1.34726 1.02831)
(1.00605 1.16032 1.25511)
(1.02021 1.20271 1.23581)
(1.02006 1.24551 1.20262)
(1.03144 1.28003 1.17253)
(0.975414 1.23383 1.20582)
(1.00171 1.12258 1.26841)
(0.986366 1.07687 1.27332)
(0.971761 1.15369 1.25263)
(0.87201 1.12327 1.22702)
(0.912008 1.10925 1.24941)
(0.936506 1.13366 1.2513)
(0.943496 1.09176 1.26333)
(0.872389 1.16987 1.20861)
(0.840376 1.14146 1.19858)
(0.940397 1.17082 1.23741)
(0.903305 1.19308 1.21185)
(0.870451 1.21204 1.18479)
(0.939534 1.21278 1.21236)
(0.752944 1.21028 1.02597)
(0.80807 1.15265 1.16616)
(0.811386 1.19353 1.14627)
(0.788817 1.2267 1.08732)
(0.771566 1.22476 1.05663)
(0.822145 1.25674 1.09457)
(0.815332 1.22886 1.12049)
(0.844384 1.22393 1.15472)
(1.02604 1.35147 1.028)
(0.999162 1.34368 1.0591)
(0.985168 1.34723 1.03124)
(0.776699 1.24014 1.03045)
(0.810422 1.27469 1.03088)
(0.893604 1.32528 1.03466)
(0.849731 1.30283 1.03399)
(0.834638 1.28272 1.06498)
(0.935264 1.33974 1.03088)
(0.900574 1.16464 0.770138)
(1.03209 1.31838 0.869306)
(0.828919 1.26965 0.910713)
(0.985774 1.19389 0.759888)
(0.854119 1.23408 0.842435)
(0.939392 1.30455 0.868097)
(0.835978 1.15444 0.805423)
(0.930143 1.24197 0.805076)
(0.783976 1.18967 0.876266)
(0.999301 1.26936 0.811651)
(1.0037 1.34553 0.936842)
(0.968747 1.11971 0.734796)
(0.895043 1.32423 0.941994)
(0.762289 1.2179 0.948352)
(0.757515 1.16163 0.899033)
(0.77951 1.1537 0.862068)
(0.739213 1.17837 0.974593)
(0.746987 1.17542 0.934813)
(0.773253 1.20374 0.912629)
(0.810661 1.17186 0.84189)
(0.805898 1.13602 0.827007)
(0.837881 1.12481 0.794189)
(0.910152 1.11597 0.754032)
(0.935368 1.14213 0.752422)
(0.944133 1.09338 0.737325)
(0.977463 1.15669 0.747026)
(0.943868 1.179 0.765388)
(0.892021 1.23848 0.823665)
(0.915699 1.20316 0.78796)
(0.878296 1.19941 0.806981)
(0.958864 1.21773 0.783199)
(0.870018 1.1299 0.776185)
(0.868379 1.1596 0.7877)
(0.84559 1.19401 0.824269)
(0.760354 1.22162 0.974111)
(0.819651 1.21136 0.860002)
(0.807025 1.22928 0.893756)
(0.842071 1.25186 0.877015)
(0.795904 1.24354 0.930018)
(0.987023 1.07856 0.727103)
(1.00237 1.12426 0.731963)
(1.01116 1.16165 0.744274)
(0.970536 1.28697 0.840497)
(0.965343 1.2555 0.808713)
(0.935218 1.27374 0.836786)