/*--------------------------------*- C++ -*----------------------------------*\
| =========                 |                                                 |
| \\      /  F ield         | OpenFOAM: The Open Source CFD Toolbox           |
|  \\    /   O peration     | Version:  v1806                                 |
|   \\  /    A nd           | Web:      www.OpenFOAM.com                      |
|    \\/     M anipulation  |                                                 |
\*---------------------------------------------------------------------------*/
FoamFile
{
    version     2.0;
    format      ascii;
    class       volScalarField;
    location    "0.0335";
    object      p;
}
// * * * * * * * * * * * * * * * * * * * * * * * * * * * * * * * * * * * * * //

dimensions      [0 2 -2 0 0 0 0];


internalField   nonuniform List<scalar> 
64000
(
-8.27375e-06
-0.0861596
-0.229896
-0.302406
-0.282168
-0.317272
-0.356906
-0.380566
-0.407789
-0.43602
-0.44106
-0.493989
-0.511607
-0.568797
-0.594778
-0.618668
-0.640593
-0.653651
-0.630868
-0.839555
-0.465385
-1.17017
-1.12807
-1.14273
-1.18664
-1.02845
-1.03725
-0.903995
-0.960621
-0.870913
-0.965812
-0.984841
-1.07678
-1.10239
-1.16924
-1.1812
-1.23363
-1.22032
-1.23473
-1.22388
-0.110599
-0.19667
-0.277293
-0.320124
-0.290213
-0.30354
-0.33356
-0.3562
-0.382895
-0.432275
-0.45415
-0.490905
-0.469883
-0.466465
-0.466466
-0.472148
-0.578945
-0.575624
-0.571769
-0.648386
-0.449267
-1.01263
-1.11246
-1.0681
-1.12527
-0.970984
-0.988812
-0.881007
-0.907209
-0.867524
-0.932201
-0.940919
-1.0458
-1.04771
-1.12889
-1.12534
-1.19532
-1.1953
-1.22174
-1.21884
-0.23892
-0.273774
-0.312067
-0.34563
-0.312057
-0.324309
-0.377665
-0.387369
-0.434707
-0.409255
-0.391241
-0.410329
-0.417572
-0.562041
-0.626828
-0.679259
-0.705901
-0.709797
-0.715138
-0.805233
-0.71026
-1.24621
-1.47594
-1.46276
-1.58277
-1.46593
-1.51935
-1.43033
-1.43307
-1.36519
-1.33173
-1.29884
-1.26628
-1.24683
-1.22526
-1.18208
-1.21764
-1.21139
-1.22647
-1.23093
-0.33753
-0.345875
-0.361896
-0.373528
-0.358014
-0.288603
-0.353132
-0.329809
-0.338576
-0.358515
-0.447471
-0.614305
-0.704955
-0.748253
-0.747626
-0.776817
-0.832903
-0.846166
-0.874099
-0.966678
-0.933519
-1.46913
-1.80416
-1.81486
-1.9738
-1.89284
-1.95535
-1.89081
-1.88245
-1.80957
-1.75235
-1.60865
-1.47575
-1.32887
-1.28039
-1.18237
-1.22656
-1.20569
-1.23029
-1.2381
-0.374486
-0.382044
-0.394043
-0.385078
-0.401516
-0.292994
-0.326396
-0.360295
-0.583528
-0.776501
-0.92174
-0.959608
-0.957272
-1.05062
-1.06437
-1.10182
-1.13475
-1.14025
-1.18192
-1.29728
-1.27085
-1.79891
-2.15902
-2.19338
-2.35572
-2.28746
-2.35382
-2.28568
-2.29828
-2.22936
-2.18108
-2.07241
-1.95733
-1.71344
-1.45682
-1.21858
-1.2963
-1.27922
-1.26803
-1.27609
-0.450764
-0.463145
-0.46612
-0.518889
-0.608761
-0.56871
-0.889898
-0.95593
-1.13404
-1.17108
-1.2187
-1.26157
-1.26902
-1.29702
-1.26306
-1.24244
-1.33539
-1.30439
-1.32761
-1.38519
-1.37644
-1.92133
-2.33496
-2.35399
-2.51946
-2.46448
-2.51924
-2.4912
-2.48435
-2.44385
-2.37933
-2.28228
-2.18459
-2.02714
-1.7383
-1.28855
-1.3894
-1.32334
-1.31171
-1.32131
-0.496192
-0.532079
-0.507544
-0.629064
-0.696043
-0.792754
-1.19687
-1.1924
-1.35999
-1.43382
-1.49969
-1.54863
-1.58423
-1.63886
-1.62731
-1.61554
-1.58576
-1.48213
-1.60127
-1.65833
-1.71608
-1.76782
-2.34594
-2.42845
-2.57853
-2.56897
-2.63079
-2.62153
-2.64106
-2.60998
-2.5391
-2.44028
-2.3431
-2.16119
-1.90564
-1.39372
-1.41118
-1.38333
-1.35863
-1.36915
-0.539911
-0.553613
-0.585156
-0.725539
-0.799726
-1.14507
-1.32885
-1.42243
-1.54852
-1.63337
-1.69789
-1.77492
-1.80581
-1.86714
-1.892
-1.90515
-1.90855
-1.77009
-1.91352
-1.86351
-1.91655
-1.6673
-1.98203
-2.34887
-2.53762
-2.59865
-2.69106
-2.71267
-2.75457
-2.7398
-2.68679
-2.58532
-2.46828
-2.28258
-2.11208
-1.52922
-1.44249
-1.44131
-1.40675
-1.42655
-0.614521
-0.58638
-0.649405
-0.775298
-0.994647
-1.31302
-1.44526
-1.56925
-1.6651
-1.79183
-1.87029
-1.95488
-2.01667
-2.09911
-2.162
-2.22356
-2.26563
-2.19151
-2.26555
-2.13288
-2.07238
-1.68582
-1.54122
-2.0445
-2.47916
-2.61054
-2.74924
-2.78159
-2.85396
-2.84197
-2.7807
-2.68558
-2.56054
-2.36465
-2.18298
-1.75012
-1.47537
-1.49831
-1.46171
-1.48145
-0.634734
-0.630842
-0.697915
-0.91193
-1.18011
-1.42627
-1.5543
-1.68673
-1.78035
-1.88733
-1.98312
-2.07528
-2.13389
-2.21971
-2.29895
-2.38558
-2.45696
-2.45799
-2.51583
-2.40427
-2.06997
-1.55977
-1.23208
-1.6304
-2.43521
-2.66264
-2.84683
-2.86435
-2.95222
-2.93705
-2.91903
-2.80357
-2.6728
-2.50939
-2.28984
-1.96723
-1.55014
-1.55638
-1.52449
-1.55238
-0.691435
-0.676278
-0.809376
-1.05262
-1.28935
-1.49231
-1.64281
-1.77276
-1.87198
-1.98938
-2.04981
-2.13945
-2.20812
-2.27832
-2.34516
-2.45292
-2.48901
-2.53944
-2.57515
-2.31786
-1.89021
-1.35528
-1.08278
-1.2876
-2.09401
-2.74221
-2.84446
-2.9716
-2.97795
-3.01141
-2.96366
-2.9054
-2.73009
-2.55009
-2.34346
-2.12516
-1.68217
-1.59673
-1.59782
-1.60943
-0.749562
-0.758586
-0.907043
-1.13207
-1.34751
-1.55154
-1.70201
-1.83287
-1.93805
-2.02625
-2.09805
-2.17188
-2.21663
-2.26358
-2.33965
-2.44088
-2.34733
-2.67694
-2.26172
-1.92269
-1.76221
-1.44068
-1.08992
-1.26462
-1.71729
-2.73977
-3.00096
-3.03654
-3.09784
-3.0735
-3.07894
-2.9651
-2.87248
-2.68338
-2.4606
-2.20932
-1.85431
-1.66966
-1.66572
-1.68544
-0.852701
-0.857839
-1.00685
-1.20156
-1.40696
-1.59806
-1.74811
-1.87115
-1.96105
-2.04531
-2.09807
-2.16129
-2.20547
-2.25247
-2.31018
-2.34679
-2.37519
-2.33911
-1.85414
-1.66536
-1.55097
-1.48419
-1.23236
-1.32399
-1.60017
-2.15457
-3.08289
-3.10505
-3.15679
-3.16179
-3.10611
-3.07828
-2.90768
-2.77216
-2.53608
-2.3356
-1.97707
-1.77061
-1.72669
-1.76466
-0.895663
-0.90602
-1.04369
-1.21932
-1.41445
-1.59903
-1.75824
-1.858
-1.95192
-2.02669
-2.0727
-2.12827
-2.13946
-2.16806
-2.18275
-2.29366
-2.29258
-1.84226
-1.65446
-1.55268
-1.4619
-1.3762
-1.31987
-1.4449
-1.61656
-1.86725
-2.6351
-3.10274
-3.08093
-3.22212
-3.22256
-3.15246
-3.02883
-2.83843
-2.63793
-2.38695
-2.13468
-1.87665
-1.79362
-1.83984
-1.04153
-1.03766
-1.15612
-1.30846
-1.4901
-1.65008
-1.78219
-1.87754
-1.94604
-1.98925
-1.99964
-2.04677
-2.08244
-2.12864
-2.15815
-1.93034
-1.75518
-1.53473
-1.43806
-1.39116
-1.33649
-1.3577
-1.29703
-1.52191
-1.687
-1.87439
-2.0957
-3.03169
-3.10235
-3.23867
-3.26911
-3.21155
-3.07492
-2.9227
-2.6977
-2.49036
-2.22623
-2.03382
-1.89641
-1.95255
-0.946715
-0.971815
-1.08864
-1.23814
-1.41278
-1.56283
-1.71696
-1.78819
-1.85512
-1.90887
-1.94894
-2.01834
-1.96969
-1.75465
-1.43998
-1.41614
-1.20895
-1.25825
-1.26562
-1.33629
-1.33222
-1.38745
-1.38237
-1.48446
-1.75486
-1.83646
-1.98606
-2.2011
-3.00954
-3.19778
-3.29852
-3.24876
-3.1188
-2.94705
-2.72834
-2.51576
-2.27626
-2.12558
-1.98315
-2.01339
-1.11121
-1.10056
-1.19142
-1.30561
-1.46293
-1.59313
-1.73117
-1.78556
-1.82817
-1.79577
-1.6033
-1.37377
-1.15622
-1.04123
-1.0601
-1.15835
-1.14276
-1.1932
-1.26536
-1.3211
-1.36975
-1.44088
-1.49125
-1.52835
-1.81379
-1.91173
-2.088
-2.33333
-2.63437
-2.99898
-3.17625
-3.19896
-3.13743
-3.04461
-2.86761
-2.67832
-2.45916
-2.29712
-2.12172
-2.16535
-0.75521
-0.754043
-0.846714
-0.962801
-1.14981
-1.26732
-1.43093
-1.37835
-1.20124
-1.04407
-0.96444
-1.00879
-0.994233
-0.999406
-1.00682
-1.07283
-1.06311
-1.14051
-1.19226
-1.28531
-1.3272
-1.40619
-1.47871
-1.52494
-1.78604
-1.8758
-2.01239
-2.14564
-2.41847
-2.64578
-3.10983
-3.04609
-2.89848
-2.72729
-2.55332
-2.41958
-2.28449
-2.24574
-2.2
-2.21597
-0.75445
-0.71908
-0.766958
-0.808775
-0.921941
-0.980376
-1.10627
-1.00454
-1.04922
-1.02818
-1.02535
-0.998329
-0.983428
-0.968677
-0.970676
-0.995575
-1.06015
-1.08353
-1.16927
-1.25723
-1.30436
-1.3816
-1.46646
-1.50542
-1.77312
-1.87841
-2.01436
-2.16794
-2.32509
-2.46775
-2.39189
-2.8016
-3.27616
-3.3218
-3.18961
-3.01111
-2.7626
-2.52303
-2.29872
-2.28745
-0.680206
-0.624546
-0.654495
-0.714305
-0.836292
-0.897811
-1.02377
-0.939194
-0.979816
-0.975093
-1.00557
-1.00448
-0.988415
-0.958216
-0.952488
-0.953017
-0.981097
-1.04434
-1.12034
-1.20349
-1.29932
-1.36088
-1.44667
-1.50122
-1.72114
-1.85069
-1.97746
-2.13175
-2.33542
-2.43855
-2.50949
-2.45718
-2.39649
-2.52253
-2.67299
-2.69762
-2.70111
-2.59431
-2.62373
-2.57524
-0.747614
-0.712195
-0.719381
-0.746618
-0.832138
-0.886952
-0.98418
-0.959419
-1.01404
-1.02659
-1.05982
-1.05131
-1.03447
-0.987515
-0.952716
-0.92677
-0.976471
-1.02237
-1.11977
-1.18366
-1.27707
-1.35161
-1.44362
-1.47954
-1.68214
-1.80776
-1.96231
-2.12125
-2.27527
-2.39969
-2.44318
-2.48996
-2.51427
-2.46865
-2.36022
-2.24655
-2.12235
-2.06468
-1.99914
-2.02321
-0.754293
-0.733176
-0.755814
-0.787542
-0.867536
-0.928214
-1.00895
-1.0168
-1.06034
-1.08471
-1.12239
-1.12003
-1.08819
-1.05764
-1.02888
-0.974337
-0.953508
-1.00922
-1.0631
-1.1539
-1.24504
-1.35092
-1.37879
-1.48847
-1.62764
-1.80818
-1.954
-2.10492
-2.2574
-2.38428
-2.4735
-2.50104
-2.54809
-2.49364
-2.50852
-2.41235
-2.36577
-2.21823
-2.23702
-2.30948
-0.794883
-0.773837
-0.789561
-0.807837
-0.881433
-0.930891
-1.00677
-1.04946
-1.09726
-1.14363
-1.18663
-1.18087
-1.17011
-1.12321
-1.054
-0.970678
-0.917889
-0.957925
-1.0561
-1.13949
-1.2162
-1.34767
-1.42339
-1.50528
-1.63795
-1.77838
-1.91345
-2.05016
-2.16739
-2.25994
-2.34894
-2.38907
-2.46276
-2.46398
-2.511
-2.44437
-2.42155
-2.26716
-2.1893
-2.17045
-0.857429
-0.816777
-0.873348
-0.871149
-0.951332
-0.994171
-1.06293
-1.11348
-1.16394
-1.21727
-1.26477
-1.28079
-1.27325
-1.23269
-1.16741
-1.1008
-1.06897
-1.30227
-1.19589
-1.19973
-1.26313
-1.35373
-1.4419
-1.56721
-1.63337
-1.7886
-1.91694
-2.04994
-2.16892
-2.27848
-2.38928
-2.44366
-2.54826
-2.532
-2.62834
-2.55111
-2.60269
-2.43069
-2.4365
-2.43281
-0.905136
-0.855355
-0.926314
-0.916258
-0.9995
-1.03229
-1.10514
-1.15752
-1.21674
-1.28088
-1.34115
-1.37365
-1.38954
-1.38619
-1.37445
-1.35273
-1.36709
-1.50935
-1.23314
-1.16972
-1.2467
-1.36829
-1.43503
-1.55308
-1.67888
-1.76348
-1.87538
-1.97146
-2.07387
-2.13919
-2.22772
-2.24894
-2.34415
-2.30876
-2.40788
-2.30526
-2.37794
-2.21512
-2.25665
-2.24059
-0.965164
-0.904794
-0.974365
-0.972804
-1.05085
-1.0989
-1.16385
-1.23158
-1.27414
-1.34755
-1.44955
-1.49604
-1.5285
-1.53641
-1.55063
-1.59158
-1.57549
-1.69551
-1.30805
-1.17893
-1.26337
-1.36617
-1.452
-1.5688
-1.65921
-1.80835
-1.92423
-2.01319
-2.11539
-2.21991
-2.3576
-2.40704
-2.5484
-2.50043
-2.64892
-2.51028
-2.62275
-2.39774
-2.4486
-2.37595
-1.01905
-0.977757
-1.01467
-1.0404
-1.1033
-1.15316
-1.22155
-1.25652
-1.35054
-1.42142
-1.46485
-1.53472
-1.59571
-1.68038
-1.7475
-1.82207
-1.7365
-1.82669
-1.34409
-1.18891
-1.28905
-1.39214
-1.45063
-1.56804
-1.64707
-1.7748
-1.91654
-1.95238
-2.08399
-2.1376
-2.22675
-2.20305
-2.30298
-2.2074
-2.35927
-2.19045
-2.3497
-2.11638
-2.23612
-2.20553
-1.06288
-1.04053
-1.01709
-1.09388
-1.14211
-1.20794
-1.26649
-1.34456
-1.43122
-1.51274
-1.59641
-1.6617
-1.72762
-1.763
-1.7911
-1.89944
-1.80566
-1.86028
-1.45282
-1.1413
-1.22513
-1.35213
-1.41816
-1.55136
-1.59373
-1.77412
-1.88946
-1.96905
-2.08262
-2.16355
-2.25847
-2.21252
-2.33837
-2.16382
-2.34264
-2.06309
-2.24095
-1.88922
-1.98656
-1.85056
-1.12332
-1.11768
-1.08367
-1.13862
-1.20983
-1.27096
-1.33783
-1.42293
-1.50224
-1.58667
-1.67037
-1.74816
-1.81172
-1.88695
-1.89554
-1.97755
-1.87585
-1.97348
-1.60231
-1.10827
-1.23747
-1.32317
-1.37229
-1.51854
-1.51728
-1.69143
-1.85874
-1.97767
-2.02295
-2.063
-2.14131
-2.07201
-2.19972
-2.00042
-2.18743
-1.85022
-2.04467
-1.61319
-1.68274
-1.54751
-1.15011
-1.14549
-1.1079
-1.122
-1.23558
-1.26976
-1.36891
-1.45065
-1.53489
-1.61639
-1.70298
-1.77871
-1.85125
-1.90614
-1.92856
-2.0126
-1.9125
-1.95712
-1.74597
-1.02707
-1.19515
-1.26136
-1.29486
-1.45895
-1.3574
-1.69358
-1.87363
-1.97055
-2.01479
-2.08406
-2.17566
-2.04681
-2.23392
-1.92823
-2.21766
-1.73897
-2.01998
-1.45367
-1.53708
-1.30124
-1.22918
-1.22397
-1.21259
-1.16906
-1.31549
-1.35235
-1.45545
-1.52546
-1.62404
-1.69648
-1.77798
-1.8626
-1.9049
-2.00261
-1.97868
-2.06439
-1.98957
-2.03285
-1.94368
-0.975961
-1.1908
-1.20376
-1.22721
-1.41245
-1.23689
-1.71619
-1.85904
-1.93612
-2.00217
-2.0424
-2.14622
-2.01544
-2.18253
-1.8653
-2.13468
-1.61933
-1.93831
-1.28925
-1.35973
-0.990026
-1.21213
-1.18676
-1.21149
-1.11187
-1.2308
-1.31151
-1.39785
-1.47395
-1.56793
-1.65349
-1.75437
-1.82999
-1.93004
-1.97515
-1.97942
-2.05898
-2.028
-2.00367
-2.06967
-0.893317
-1.13115
-1.0973
-1.11242
-1.32271
-1.09425
-1.65593
-1.87878
-1.91781
-2.00675
-2.01563
-2.1603
-1.94131
-2.23406
-1.74723
-2.17035
-1.42741
-1.89497
-1.05307
-1.14942
-0.578511
-1.32464
-1.32307
-1.31341
-1.2841
-1.29369
-1.42729
-1.49526
-1.56668
-1.65045
-1.73865
-1.82343
-1.9521
-1.95612
-2.07379
-2.05135
-2.13602
-2.12431
-2.02018
-2.21274
-0.841941
-1.08386
-1.00334
-1.00812
-1.2248
-0.985605
-1.54328
-1.96172
-1.94883
-2.10214
-2.00886
-2.20581
-1.9153
-2.21763
-1.73999
-2.17068
-1.38118
-1.82275
-0.878857
-0.901892
-0.114212
-1.22603
-1.20377
-1.20967
-1.18237
-1.11826
-1.27381
-1.33386
-1.40821
-1.50583
-1.60017
-1.7244
-1.79701
-1.90547
-2.00974
-2.03317
-2.10358
-2.15171
-1.97213
-2.26168
-0.731272
-0.938532
-0.825816
-0.824311
-1.04611
-0.845228
-1.3461
-2.03106
-1.96185
-2.21145
-1.98266
-2.24516
-1.83688
-2.25801
-1.54727
-2.19451
-1.13116
-1.7491
-0.379737
-0.517197
0.693347
-1.38858
-1.42242
-1.37175
-1.39505
-1.35762
-1.35028
-1.47789
-1.50906
-1.60791
-1.68425
-1.77546
-1.90602
-1.98232
-2.12122
-2.14985
-2.23103
-2.29062
-2.06759
-2.39058
-0.690006
-0.87574
-0.690464
-0.683855
-0.875018
-0.724324
-1.16657
-2.12313
-2.06068
-2.25642
-2.10087
-2.3464
-1.83157
-2.36237
-1.50526
-2.25442
-1.13347
-1.74255
-0.156522
-0.0624243
1.61386
-1.26657
-1.18516
-1.2403
-1.13324
-1.15363
-1.11594
-1.21017
-1.25054
-1.3561
-1.45778
-1.60325
-1.7432
-1.87335
-2.03798
-2.10256
-2.24271
-2.31391
-2.04388
-2.37324
-0.515753
-0.658873
-0.416247
-0.417369
-0.582077
-0.540705
-0.960023
-2.15001
-2.08238
-2.40899
-2.0722
-2.38107
-1.71104
-2.36549
-1.32928
-2.12552
-0.769961
-1.51583
0.662508
0.876042
3.55619
-1.42226
-1.52117
-1.38926
-1.45758
-1.32958
-1.31405
-1.35822
-1.34665
-1.45458
-1.53926
-1.6711
-1.82252
-1.95249
-2.14229
-2.22613
-2.3688
-2.45022
-2.19981
-2.43278
-0.532103
-0.49982
-0.219378
-0.212666
-0.344436
-0.38652
-0.862055
-2.16578
-2.1736
-2.53899
-2.15142
-2.5862
-1.72868
-2.53394
-1.24454
-2.40967
-0.721986
-1.62109
1.08607
1.76261
5.41942
-1.747
-1.2778
-1.38545
-1.01875
-1.11181
-0.932156
-1.04208
-1.05339
-1.17799
-1.27722
-1.4447
-1.61261
-1.79079
-2.00574
-2.14465
-2.31601
-2.46296
-2.25443
-2.28352
-0.421175
-0.150146
0.212803
0.180739
0.0524905
-0.188962
-0.805736
-2.13264
-2.24374
-2.65804
-2.16362
-2.60128
-1.65837
-2.42013
-1.06301
-2.13838
-0.136689
-0.938688
2.42277
4.19033
10.3299
-1.55378
-1.8487
-1.61588
-1.60613
-1.16588
-1.14481
-1.12067
-1.11965
-1.2146
-1.30295
-1.44204
-1.60955
-1.78837
-2.02446
-2.19615
-2.42203
-2.61587
-2.46695
-2.24282
-0.48643
0.0586755
0.504959
0.551832
0.326422
-0.0525021
-0.798005
-2.07442
-2.31618
-2.79732
-2.20582
-2.70064
-1.65264
-2.53474
-1.15494
-2.31435
-0.475509
-1.10154
3.26438
5.3284
13.7758
-4.07992
-1.32687
-1.66459
-1.1418
-1.06077
-0.858012
-0.945414
-0.959506
-1.07902
-1.17813
-1.34468
-1.5167
-1.71291
-1.95735
-2.18892
-2.49865
-2.7441
-2.60727
-2.08278
-0.455191
0.346587
0.901332
0.947767
0.565666
-0.0246913
-0.880001
-2.12402
-2.41192
-2.9101
-2.2216
-2.67832
-1.52007
-2.40042
-0.978099
-1.99653
0.108995
0.467615
6.79986
12.0356
25.4681
-0.105667
-0.201791
-0.27803
-0.316048
-0.292574
-0.322466
-0.358729
-0.385066
-0.418358
-0.442734
-0.460135
-0.508783
-0.537303
-0.580135
-0.616684
-0.632505
-0.657797
-0.647062
-0.713068
-0.80554
-0.582878
-1.14813
-1.2723
-1.23048
-1.29318
-1.14797
-1.17073
-1.07154
-1.08036
-1.01857
-1.06602
-1.0626
-1.13584
-1.13702
-1.19395
-1.1991
-1.25565
-1.24105
-1.25141
-1.23175
-0.218779
-0.261259
-0.316295
-0.323648
-0.302508
-0.310049
-0.334075
-0.363053
-0.367459
-0.42886
-0.433374
-0.506599
-0.461803
-0.464943
-0.462061
-0.513944
-0.578695
-0.579313
-0.580803
-0.638069
-0.615454
-1.09127
-1.28176
-1.25186
-1.32146
-1.20301
-1.24186
-1.17557
-1.18298
-1.11653
-1.11147
-1.10715
-1.12363
-1.09827
-1.16778
-1.15614
-1.216
-1.20907
-1.2303
-1.22325
-0.286969
-0.315811
-0.34362
-0.353647
-0.319793
-0.313253
-0.355343
-0.369177
-0.442729
-0.422928
-0.406769
-0.413365
-0.443882
-0.536287
-0.642592
-0.728913
-0.745284
-0.735899
-0.743348
-0.813401
-0.878359
-1.3711
-1.67476
-1.69076
-1.80428
-1.71053
-1.76931
-1.71146
-1.7215
-1.63178
-1.54503
-1.40251
-1.35234
-1.30478
-1.24493
-1.1904
-1.23588
-1.22131
-1.23461
-1.2266
-0.36519
-0.360461
-0.387436
-0.350035
-0.357932
-0.304218
-0.354857
-0.339707
-0.339693
-0.368393
-0.449459
-0.612235
-0.712875
-0.7564
-0.81898
-0.864665
-0.884241
-0.891014
-0.911309
-0.99812
-1.13242
-1.66251
-2.03357
-2.06961
-2.19865
-2.12471
-2.17353
-2.11768
-2.10494
-2.00802
-1.92928
-1.73714
-1.54435
-1.35378
-1.29929
-1.17973
-1.22563
-1.21469
-1.23454
-1.23863
-0.39466
-0.39877
-0.389094
-0.391644
-0.389722
-0.304696
-0.298955
-0.385769
-0.591256
-0.801892
-0.949631
-1.00033
-1.02026
-1.06179
-1.14221
-1.16749
-1.17644
-1.18622
-1.21383
-1.27017
-1.37415
-1.91843
-2.3208
-2.35632
-2.48762
-2.44267
-2.47925
-2.45037
-2.41842
-2.33467
-2.26431
-2.13999
-1.99903
-1.70707
-1.40078
-1.22943
-1.28675
-1.27254
-1.26386
-1.27635
-0.472648
-0.491618
-0.502874
-0.511865
-0.585227
-0.487646
-0.733246
-0.996148
-1.15054
-1.21075
-1.25348
-1.29845
-1.30302
-1.31515
-1.38422
-1.40911
-1.38014
-1.35732
-1.35245
-1.38527
-1.47871
-2.0292
-2.46798
-2.5121
-2.65538
-2.59433
-2.63754
-2.59673
-2.61012
-2.49632
-2.44524
-2.35467
-2.22509
-2.06321
-1.68726
-1.32272
-1.38736
-1.32885
-1.31713
-1.3269
-0.530332
-0.547319
-0.543278
-0.64658
-0.728619
-0.740535
-1.17745
-1.26435
-1.39962
-1.47534
-1.53149
-1.58671
-1.60206
-1.67424
-1.68761
-1.68817
-1.64651
-1.57653
-1.5783
-1.58979
-1.65351
-1.77231
-2.36513
-2.53427
-2.67283
-2.66795
-2.71597
-2.70029
-2.67655
-2.63736
-2.55953
-2.45823
-2.35045
-2.17393
-1.86714
-1.40882
-1.40634
-1.37641
-1.35641
-1.36795
-0.571873
-0.611189
-0.625189
-0.774864
-0.815782
-1.11512
-1.34951
-1.47986
-1.5789
-1.67117
-1.73314
-1.81387
-1.85078
-1.92111
-1.95612
-1.97106
-1.95548
-1.89615
-1.91284
-1.83765
-1.78436
-1.58282
-1.93117
-2.38507
-2.63425
-2.70568
-2.79786
-2.78367
-2.8093
-2.72597
-2.67989
-2.58478
-2.46883
-2.29028
-2.07757
-1.55105
-1.47258
-1.45518
-1.41999
-1.43608
-0.627926
-0.650774
-0.746611
-0.820411
-0.989285
-1.33207
-1.44878
-1.5957
-1.72078
-1.81957
-1.91279
-1.97386
-2.0529
-2.14956
-2.20639
-2.27381
-2.3245
-2.33554
-2.32973
-2.14084
-1.90084
-1.45262
-1.44273
-1.96416
-2.54906
-2.72422
-2.85412
-2.87283
-2.84661
-2.82801
-2.75529
-2.67123
-2.5576
-2.35445
-2.15899
-1.71428
-1.48371
-1.49041
-1.46396
-1.48075
-0.670861
-0.698056
-0.748536
-0.974338
-1.22812
-1.43815
-1.55665
-1.75799
-1.79666
-1.94819
-1.99509
-2.0994
-2.16657
-2.2851
-2.35857
-2.45254
-2.54088
-2.60258
-2.63038
-2.39605
-1.89182
-1.28943
-1.07324
-1.52897
-2.44408
-2.78692
-2.97035
-2.98276
-2.99061
-2.91199
-2.89418
-2.83624
-2.72175
-2.56749
-2.31525
-1.9454
-1.58081
-1.57413
-1.54354
-1.56001
-0.724552
-0.737897
-0.875275
-1.14861
-1.35386
-1.49574
-1.65842
-1.77962
-1.8766
-2.00066
-2.07126
-2.16073
-2.2335
-2.36117
-2.43084
-2.5329
-2.60019
-2.6762
-2.62083
-2.2791
-1.74888
-1.14518
-0.901746
-1.182
-2.00711
-2.80974
-2.97045
-3.0865
-3.01201
-3.03163
-2.97257
-2.85296
-2.74385
-2.56981
-2.37225
-2.09892
-1.65638
-1.60797
-1.59969
-1.61046
-0.794392
-0.832946
-0.999316
-1.23634
-1.41204
-1.58874
-1.68715
-1.85554
-1.9196
-2.0321
-2.1114
-2.19688
-2.23923
-2.37823
-2.45001
-2.53756
-2.57264
-2.63815
-2.23827
-1.882
-1.60091
-1.19386
-0.936866
-1.1191
-1.63758
-2.64818
-3.03444
-3.05075
-3.19932
-3.19133
-3.10284
-3.00832
-2.87267
-2.73665
-2.55832
-2.2535
-1.82148
-1.66005
-1.68452
-1.69338
-0.91164
-0.951273
-1.11227
-1.2989
-1.48415
-1.64297
-1.77934
-1.87537
-1.97959
-2.0622
-2.12293
-2.1787
-2.29763
-2.3929
-2.44112
-2.49839
-2.5388
-2.26115
-1.82639
-1.53114
-1.37327
-1.22299
-1.07315
-1.19728
-1.54679
-2.11157
-3.07406
-3.22076
-3.29026
-3.25783
-3.26148
-3.16142
-2.99455
-2.80013
-2.53253
-2.41945
-2.00022
-1.73023
-1.73819
-1.76827
-0.972542
-1.00525
-1.14713
-1.32091
-1.5051
-1.66282
-1.79533
-1.89347
-1.96617
-2.04836
-2.1
-2.21407
-2.22636
-2.28471
-2.37287
-2.4582
-2.27744
-1.8059
-1.51181
-1.31754
-1.25828
-1.20771
-1.21168
-1.32808
-1.51959
-1.80974
-2.51361
-3.10198
-3.07668
-3.36335
-3.31679
-3.24036
-3.08604
-2.90372
-2.65641
-2.40076
-2.20815
-1.85234
-1.78409
-1.86622
-1.08984
-1.11344
-1.24189
-1.39626
-1.56678
-1.70696
-1.84132
-1.92701
-1.99779
-2.0424
-2.05863
-2.08879
-2.11232
-2.14241
-2.31935
-2.04391
-1.67509
-1.38555
-1.24332
-1.16482
-1.1935
-1.19091
-1.21915
-1.45797
-1.61697
-1.87115
-2.18484
-3.15026
-3.4687
-3.40056
-3.40527
-3.30454
-3.14675
-2.96799
-2.70565
-2.50627
-2.22436
-2.08523
-1.82407
-1.97567
-1.05219
-1.0755
-1.20214
-1.35229
-1.53103
-1.6473
-1.79011
-1.85989
-1.91915
-1.96407
-1.96491
-2.00596
-1.91663
-1.6476
-1.55593
-1.40621
-1.21903
-1.19932
-1.17811
-1.20481
-1.24769
-1.28036
-1.27088
-1.48278
-1.66791
-1.79325
-1.98873
-2.31871
-3.17337
-3.42924
-3.42671
-3.36247
-3.20761
-3.01908
-2.77685
-2.54077
-2.31706
-2.1518
-1.96797
-2.00386
-1.14672
-1.15058
-1.24654
-1.37653
-1.53898
-1.65654
-1.78198
-1.82519
-1.85272
-1.79346
-1.611
-1.37904
-1.13987
-1.02085
-1.12566
-1.08941
-1.10036
-1.13281
-1.18
-1.23247
-1.30903
-1.38224
-1.39866
-1.52543
-1.73807
-1.87016
-2.04954
-2.24755
-2.54294
-3.11793
-3.36141
-3.3432
-3.22122
-3.07605
-2.8574
-2.66164
-2.36914
-2.28282
-2.1359
-2.14202
-0.852757
-0.878304
-0.953802
-1.08986
-1.21602
-1.34184
-1.46248
-1.42695
-1.27752
-1.10404
-0.997926
-0.959571
-0.918029
-0.898395
-0.975292
-0.994531
-1.01659
-1.08377
-1.13284
-1.21211
-1.28328
-1.3691
-1.41209
-1.51987
-1.69285
-1.82449
-1.98265
-2.12337
-2.32205
-2.52832
-2.94361
-3.14627
-3.11087
-2.95114
-2.78922
-2.5962
-2.37864
-2.22264
-2.23172
-2.21627
-0.751258
-0.767278
-0.818608
-0.89923
-0.984126
-1.0676
-1.16722
-1.04213
-1.05406
-0.979492
-0.952696
-0.898338
-0.873983
-0.877021
-0.884647
-0.953296
-0.98642
-1.02703
-1.10624
-1.1694
-1.26018
-1.33807
-1.40265
-1.50803
-1.69124
-1.84585
-1.98656
-2.1252
-2.25124
-2.37603
-2.43353
-2.66745
-2.99603
-3.05216
-2.95945
-2.7773
-2.59428
-2.40922
-2.31695
-2.30653
-0.710165
-0.659716
-0.690397
-0.75303
-0.832146
-0.907419
-1.0104
-0.905023
-0.913637
-0.898567
-0.930506
-0.914462
-0.899774
-0.861713
-0.860594
-0.871453
-0.925911
-0.999481
-1.04241
-1.13576
-1.21805
-1.31598
-1.38057
-1.4933
-1.66853
-1.8314
-1.96925
-2.11311
-2.25186
-2.34868
-2.41449
-2.4221
-2.45913
-2.50773
-2.60025
-2.56667
-2.49642
-2.42646
-2.4537
-2.58146
-0.746808
-0.685154
-0.700917
-0.730171
-0.81987
-0.86178
-0.961548
-0.924765
-0.957306
-0.962266
-0.987966
-0.969693
-0.928384
-0.876266
-0.815747
-0.815978
-0.862257
-0.936525
-1.04464
-1.09164
-1.20403
-1.28797
-1.38072
-1.46548
-1.64881
-1.80284
-1.95043
-2.10164
-2.24565
-2.34007
-2.39904
-2.42536
-2.44208
-2.42282
-2.36021
-2.26855
-2.17591
-2.04516
-2.00204
-2.02265
-0.798613
-0.736282
-0.761267
-0.783413
-0.873465
-0.905943
-0.990829
-0.994252
-1.02181
-1.03617
-1.06403
-1.04443
-0.976649
-0.882399
-0.821638
-0.801469
-0.825288
-0.916307
-0.995396
-1.11334
-1.17978
-1.28351
-1.37257
-1.46798
-1.61195
-1.7817
-1.93277
-2.08622
-2.23214
-2.35182
-2.43593
-2.45927
-2.51573
-2.46088
-2.46616
-2.37719
-2.32326
-2.16451
-2.13211
-2.26893
-0.78731
-0.754578
-0.776686
-0.796103
-0.875779
-0.911535
-0.991424
-1.03193
-1.07339
-1.11083
-1.14487
-1.11613
-1.04736
-0.96799
-0.899076
-0.830812
-0.810265
-0.885443
-0.999265
-1.079
-1.16809
-1.31115
-1.35182
-1.47961
-1.60676
-1.75197
-1.89315
-2.02864
-2.14688
-2.23874
-2.32995
-2.36718
-2.43897
-2.43987
-2.50661
-2.44678
-2.43873
-2.25226
-2.19579
-2.23384
-0.863746
-0.825384
-0.855683
-0.858319
-0.93694
-0.963667
-1.04456
-1.09448
-1.14507
-1.1913
-1.23132
-1.22176
-1.17285
-1.08822
-1.02304
-0.980752
-1.02827
-1.20749
-1.13633
-1.13435
-1.19673
-1.29777
-1.41281
-1.50834
-1.61958
-1.75124
-1.89178
-2.01933
-2.14249
-2.24431
-2.35569
-2.40507
-2.51469
-2.5049
-2.61992
-2.55198
-2.61909
-2.42749
-2.4177
-2.43831
-0.902666
-0.865748
-0.906596
-0.906554
-0.978209
-1.02246
-1.08319
-1.14858
-1.20709
-1.26778
-1.32403
-1.34682
-1.3471
-1.30966
-1.30555
-1.34769
-1.41661
-1.46849
-1.19203
-1.1106
-1.16594
-1.30118
-1.38807
-1.534
-1.65952
-1.71562
-1.84066
-1.94446
-2.03595
-2.10076
-2.18823
-2.20633
-2.3061
-2.26684
-2.38602
-2.27856
-2.37214
-2.18667
-2.23708
-2.2274
-0.965094
-0.918654
-0.962223
-0.97149
-1.04279
-1.08103
-1.15558
-1.21852
-1.28139
-1.35258
-1.42816
-1.48432
-1.53375
-1.56789
-1.61443
-1.6596
-1.64495
-1.65765
-1.24558
-1.10917
-1.15087
-1.25941
-1.40987
-1.53549
-1.64765
-1.75425
-1.90255
-1.9545
-2.07189
-2.16393
-2.30549
-2.33316
-2.47943
-2.42039
-2.58223
-2.43113
-2.55615
-2.3269
-2.38937
-2.32593
-1.02407
-0.988899
-1.00644
-1.04119
-1.10055
-1.15687
-1.22178
-1.29148
-1.37024
-1.44863
-1.52413
-1.59861
-1.67399
-1.74689
-1.81525
-1.86741
-1.79524
-1.81213
-1.33732
-1.12805
-1.14696
-1.27756
-1.38523
-1.53831
-1.61836
-1.76736
-1.84225
-1.94692
-2.02205
-2.11458
-2.20958
-2.19159
-2.3023
-2.19504
-2.35943
-2.16803
-2.3386
-2.0859
-2.15543
-2.13632
-1.07372
-1.04815
-1.03002
-1.08926
-1.1482
-1.20307
-1.28455
-1.3652
-1.45379
-1.5391
-1.62607
-1.70195
-1.77531
-1.83194
-1.87292
-1.9387
-1.85733
-1.87798
-1.44405
-1.13245
-1.15452
-1.23964
-1.33023
-1.49696
-1.56269
-1.72805
-1.83208
-2.00099
-2.03644
-2.14048
-2.24912
-2.2072
-2.34479
-2.16167
-2.36654
-2.07007
-2.2766
-1.89871
-2.01503
-1.82374
-1.13076
-1.12488
-1.09421
-1.13809
-1.21839
-1.27972
-1.34843
-1.44381
-1.53748
-1.63063
-1.7165
-1.79344
-1.85814
-1.91875
-1.93941
-2.00094
-1.92315
-1.97316
-1.59361
-1.13947
-1.17225
-1.27189
-1.28932
-1.45146
-1.47604
-1.64689
-1.84951
-1.98613
-2.03491
-2.0812
-2.15092
-2.06603
-2.22768
-2.01069
-2.22995
-1.88659
-2.11913
-1.65557
-1.70872
-1.46795
-1.1605
-1.14928
-1.12163
-1.11945
-1.23895
-1.28637
-1.38037
-1.46565
-1.55235
-1.65098
-1.74517
-1.82122
-1.8906
-1.94801
-1.97187
-2.04753
-1.96542
-2.02522
-1.64641
-1.08159
-1.08166
-1.20345
-1.21297
-1.38319
-1.3534
-1.65002
-1.86392
-1.99272
-2.06016
-2.04065
-2.18894
-2.06123
-2.2492
-1.95587
-2.29335
-1.8025
-2.169
-1.56336
-1.63096
-1.27328
-1.23869
-1.23376
-1.22
-1.1861
-1.31649
-1.37432
-1.46532
-1.55319
-1.62101
-1.71789
-1.80977
-1.8945
-1.95462
-2.02763
-2.03476
-2.12036
-2.05089
-2.11267
-1.88523
-1.03869
-1.11203
-1.13343
-1.14887
-1.32464
-1.26186
-1.65065
-1.88288
-1.96653
-2.05961
-2.01468
-2.15189
-2.00694
-2.24613
-1.88064
-2.2199
-1.73326
-2.13488
-1.47627
-1.54822
-1.06968
-1.22184
-1.19853
-1.20891
-1.1283
-1.23399
-1.32005
-1.41244
-1.48243
-1.58578
-1.6654
-1.76994
-1.85298
-1.9379
-2.00811
-2.04665
-2.14106
-2.09694
-2.11113
-1.99989
-0.972491
-1.03569
-1.01663
-1.02787
-1.22298
-1.12304
-1.60424
-1.90425
-2.02633
-2.06091
-2.00704
-2.13666
-1.96873
-2.24108
-1.82365
-2.27982
-1.53306
-2.18811
-1.31548
-1.50365
-0.803603
-1.33427
-1.33411
-1.31615
-1.29622
-1.29529
-1.44228
-1.51281
-1.58466
-1.67818
-1.75918
-1.85864
-1.94457
-2.01334
-2.11442
-2.09973
-2.2133
-2.15802
-2.13063
-2.15628
-0.936948
-0.986222
-0.910419
-0.920883
-1.1101
-1.00358
-1.50499
-1.9803
-2.0924
-2.16368
-2.00902
-2.21735
-1.88712
-2.29648
-1.74119
-2.31014
-1.55704
-2.13125
-1.28121
-1.47407
-0.503969
-1.23836
-1.211
-1.23518
-1.15689
-1.15148
-1.24912
-1.35449
-1.41919
-1.52019
-1.62085
-1.73823
-1.84384
-1.93702
-2.02763
-2.08535
-2.18239
-2.2216
-2.09613
-2.22444
-0.832626
-0.847244
-0.722561
-0.728351
-0.912155
-0.799509
-1.32253
-1.98897
-2.09478
-2.22175
-2.0451
-2.24937
-1.8389
-2.27948
-1.5878
-2.2883
-1.30591
-2.20207
-0.846387
-1.28737
0.119762
-1.39651
-1.43346
-1.38445
-1.42886
-1.3119
-1.3739
-1.49353
-1.53793
-1.63417
-1.72106
-1.84001
-1.95276
-2.03057
-2.17268
-2.21511
-2.29125
-2.35676
-2.21637
-2.34331
-0.814506
-0.730263
-0.576247
-0.577577
-0.727788
-0.662846
-1.15951
-2.05883
-2.15423
-2.3778
-2.12089
-2.37089
-1.83406
-2.39524
-1.5459
-2.34984
-1.27947
-2.17655
-0.88574
-0.923914
0.902199
-1.26214
-1.2096
-1.2671
-1.14115
-1.22995
-1.02195
-1.25686
-1.26684
-1.3999
-1.49426
-1.64502
-1.77354
-1.91007
-2.08802
-2.16107
-2.35109
-2.39482
-2.16983
-2.35038
-0.732045
-0.539376
-0.305853
-0.303774
-0.425787
-0.474465
-0.980773
-2.058
-2.17754
-2.47307
-2.14536
-2.46534
-1.75346
-2.39689
-1.34257
-2.28415
-0.891025
-1.90162
-0.0908741
-0.406463
2.73552
-1.41505
-1.5416
-1.4186
-1.49439
-1.37278
-1.30868
-1.40943
-1.4159
-1.52269
-1.61089
-1.73275
-1.89134
-2.02123
-2.22587
-2.31421
-2.53034
-2.52875
-2.42168
-2.43292
-0.739781
-0.41704
-0.0990347
-0.0965707
-0.191775
-0.346345
-0.884637
-2.0843
-2.25266
-2.62149
-2.20359
-2.64405
-1.79659
-2.56948
-1.36265
-2.47537
-0.926877
-1.921
0.249849
0.479736
4.64541
-1.68074
-1.25132
-1.39905
-1.05695
-1.15327
-0.950473
-1.10195
-1.09665
-1.24686
-1.33857
-1.52569
-1.68983
-1.88274
-2.10706
-2.27181
-2.48717
-2.65976
-2.49026
-2.40722
-0.634406
-0.176178
0.25913
0.262202
0.140358
-0.118521
-0.778543
-2.06439
-2.30285
-2.76984
-2.21049
-2.68147
-1.67974
-2.50071
-1.15332
-2.31887
-0.49408
-1.24628
1.75914
3.2956
10.2074
-1.33208
-1.80992
-1.65594
-1.6767
-1.37287
-1.17105
-1.23121
-1.20821
-1.30595
-1.38719
-1.53395
-1.72039
-1.91456
-2.1779
-2.35115
-2.64783
-2.8415
-2.73617
-2.4113
-0.711978
0.018692
0.537988
0.612401
0.402823
-0.0140156
-0.75797
-2.0258
-2.34718
-2.86178
-2.25075
-2.7657
-1.64593
-2.55753
-1.16224
-2.36861
-0.675225
-1.25151
2.59706
5.74619
16.1688
-3.93315
-1.21853
-1.55079
-1.06588
-1.03328
-0.867211
-0.967783
-0.98333
-1.12552
-1.22871
-1.39385
-1.56685
-1.79366
-2.07763
-2.37182
-2.68244
-3.00386
-2.8482
-2.29638
-0.631059
0.294127
0.936106
1.01351
0.676409
0.0633634
-0.809377
-2.11433
-2.47594
-3.06697
-2.28771
-2.74754
-1.49198
-2.41325
-0.95461
-2.0217
0.0368787
0.583561
6.86782
14.918
31.8346
-0.225638
-0.261434
-0.301142
-0.323203
-0.298073
-0.318429
-0.354998
-0.384824
-0.408319
-0.447944
-0.464787
-0.509415
-0.544867
-0.608721