/*--------------------------------*- C++ -*----------------------------------*\
| =========                 |                                                 |
| \\      /  F ield         | OpenFOAM: The Open Source CFD Toolbox           |
|  \\    /   O peration     | Version:  v1806                                 |
|   \\  /    A nd           | Web:      www.OpenFOAM.com                      |
|    \\/     M anipulation  |                                                 |
\*---------------------------------------------------------------------------*/
FoamFile
{
    version     2.0;
    format      ascii;
    class       surfaceScalarField;
    location    "0.0335";
    object      phi;
}
// * * * * * * * * * * * * * * * * * * * * * * * * * * * * * * * * * * * * * //

dimensions      [0 3 -1 0 0 0 0];
oriented        oriented;


internalField   nonuniform List<scalar> 
187200
(
7.76477e-06
7.09335e-07
-8.47535e-06
3.81196e-05
-1.30539e-05
-1.73008e-05
5.88199e-05
-8.10475e-06
-1.25953e-05
7.71929e-05
-7.61885e-06
-1.0754e-05
9.6057e-05
-6.92927e-06
-1.19349e-05
0.000112922
-4.07422e-06
-1.27912e-05
0.000128334
-6.00409e-07
-1.4811e-05
0.000142596
1.87289e-06
-1.61353e-05
0.000155724
4.5437e-06
-1.76708e-05
0.000163758
8.19146e-06
-1.6226e-05
0.000172305
9.24043e-06
-1.7787e-05
0.000171886
1.72923e-05
-1.68743e-05
0.000157862
2.46812e-05
-1.06568e-05
0.000122104
4.15824e-05
-5.82536e-06
7.5322e-05
4.30177e-05
3.76443e-06
2.76591e-05
3.09301e-05
1.67327e-05
-3.09885e-05
3.24961e-05
2.61513e-05
-9.75758e-05
5.50112e-05
1.15759e-05
-0.000191212
9.85942e-05
-4.95852e-06
-0.000323568
0.000137808
-5.45162e-06
-0.000509546
0.000196441
-1.04628e-05
-0.000684009
0.000233479
-5.90154e-05
-0.000769907
0.000264902
-0.000179004
-0.000806678
0.000310672
-0.000273902
-0.000776325
0.000337027
-0.00036738
-0.000705998
0.000371148
-0.000441475
-0.000594449
0.000391546
-0.000503094
-0.000458986
0.000405141
-0.000540604
-0.000296564
0.000394191
-0.000556613
-0.000135549
0.000375304
-0.000536319
-1.22627e-05
0.000337079
-0.000460365
6.6472e-05
0.000295821
-0.000374556
9.33766e-05
0.000230862
-0.000257767
8.19866e-05
0.000173346
-0.000161956
5.17795e-05
0.000122048
-9.18412e-05
2.81905e-05
8.10141e-05
-5.74252e-05
1.12907e-05
5.55335e-05
-3.86338e-05
2.01978e-06
4.25307e-05
-3.32595e-05
-2.98353e-06
3.19781e-05
-2.69745e-05
2.08132e-05
-2.37963e-05
1.04522e-05
4.0312e-06
-1.3774e-05
4.71069e-05
-2.53936e-05
-2.43145e-05
8.52229e-05
-2.14166e-05
-2.48039e-05
0.000115514
-1.19752e-05
-2.59345e-05
0.000138685
-3.19616e-06
-2.69041e-05
0.000152266
1.34144e-05
-3.10698e-05
0.00016008
2.87976e-05
-3.72119e-05
0.000161233
4.39633e-05
-4.32432e-05
0.000152084
6.71225e-05
-5.34302e-05
0.000130445
9.0034e-05
-6.02037e-05
8.68769e-05
0.000128928
-7.61204e-05
2.55893e-05
0.000170799
-9.22193e-05
-5.63665e-05
0.000205411
-9.87743e-05
-0.000154339
0.000247582
-0.000108028
-0.00028949
0.00030604
-0.000127872
-0.000480539
0.000386285
-0.000164306
-0.000678043
0.000462309
-0.000232309
-0.000881283
0.000549861
-0.000291611
-0.00105635
0.000638942
-0.00036528
-0.00121316
0.000738048
-0.000443427
-0.00132912
0.00083822
-0.000525826
-0.00141934
0.000934376
-0.000610678
-0.001443
0.00101891
-0.000730346
-0.00141623
0.00109265
-0.00080874
-0.00132041
0.00113172
-0.000890513
-0.00116993
0.00116448
-0.000943821
-0.000973705
0.00116648
-0.000971152
-0.000745812
0.0011436
-0.00096635
-0.000516114
0.0010856
-0.000921111
-0.000290937
0.00100071
-0.000850586
-0.000102007
0.000874282
-0.000726133
5.83858e-05
0.00073638
-0.000600952
0.000132913
0.000590506
-0.00043417
0.000157301
0.000460018
-0.00031106
0.000139753
0.000342987
-0.00020339
0.000108029
0.000253092
-0.000140354
7.51092e-05
0.00018793
-9.94762e-05
4.79408e-05
0.000147337
-7.76379e-05
2.00126e-05
0.000116766
-5.68596e-05
7.83724e-05
-3.75464e-05
1.94015e-05
-3.37825e-06
-1.19919e-05
5.75868e-05
-3.24029e-05
-3.11759e-05
9.76751e-05
-2.25748e-05
-3.89301e-05
0.000126264
1.70941e-07
-4.07344e-05
0.000144236
2.71741e-05
-4.83424e-05
0.000147949
6.53543e-05
-5.56525e-05
0.000138626
0.000106057
-6.79364e-05
0.000118344
0.000148959
-8.47138e-05
8.80748e-05
0.000208273
-0.000110881
3.34392e-05
0.000276758
-0.000132089
-4.74681e-05
0.000356493
-0.000146657
-0.000148132
0.000437932
-0.00016647
-0.000312769
0.00055004
-0.000179991
-0.000502275
0.000654545
-0.000217457
-0.000711975
0.00076703
-0.00025129
-0.000901943
0.000875809
-0.000299556
-0.00107576
0.000983283
-0.000347155
-0.00123628
0.00110893
-0.000398553
-0.00137614
0.00123258
-0.00045378
-0.00149776
0.00136822
-0.000508543
-0.00158707
0.00148897
-0.00056144
-0.00164309
0.00158414
-0.000593745
-0.00163559
0.00167005
-0.000658646
-0.00158546
0.00172442
-0.000681898
-0.00148039
0.00174095
-0.000714302
-0.00133433
0.00173887
-0.000720448
-0.00115604
0.00169639
-0.000708202
-0.000955443
0.00161938
-0.000676377
-0.000746939
0.00150689
-0.000629788
-0.000531541
0.00135789
-0.00057257
-0.000354964
0.00119356
-0.000495858
-0.000198388
0.0010074
-0.000427591
-8.21419e-05
0.000815832
-0.000341572
-7.82817e-07
0.000648907
-0.000270247
3.21247e-05
0.000508778
-0.000198699
4.6088e-05
0.000391616
-0.000152487
4.69206e-05
0.000307706
-0.000120608
3.68221e-05
0.000256905
-9.94686e-05
1.72179e-05
0.00020603
-6.96598e-05
0.000134167
-3.85765e-05
1.94285e-05
-3.7444e-06
-1.90622e-05
5.82834e-05
-2.4593e-05
-4.66648e-05
9.61111e-05
4.45584e-08
-6.04468e-05
0.000122124
3.91024e-05
-6.49446e-05
0.000127109
9.60656e-05
-7.38757e-05
0.000114654
0.000165661
-8.78524e-05
9.38266e-05
0.000235964
-0.00010908
6.18967e-05
0.000320009
-0.000139121
1.09007e-05
0.000429992
-0.000170724
-7.13337e-05
0.000547818
-0.000188826
-0.000193632
0.000680822
-0.000202032
-0.000355313
0.000811303
-0.000211689
-0.000523067
0.000941827
-0.000224034
-0.000685065
0.00105819
-0.000241649
-0.000843224
0.00118971
-0.000264519
-0.00099567
0.00131551
-0.00028726
-0.00114145
0.00143679
-0.000307728
-0.00126864
0.00155816
-0.000322034
-0.00137583
0.0016717
-0.000331943
-0.00146703
0.00178789
-0.000328471
-0.00153613
0.00187738
-0.000319302
-0.00158771
0.00193173
-0.000296014
-0.00157875
0.0019714
-0.000310309
-0.00154294
0.00197701
-0.000288398
-0.00146206
0.00194438
-0.000284309
-0.00135488
0.00189729
-0.0002656
-0.00122731
0.00181395
-0.000245125
-0.00108552
0.00170215
-0.000224563
-0.000932809
0.00155924
-0.000205062
-0.000771611
0.00139572
-0.000199035
-0.00059939
0.00122006
-0.000198721
-0.000433216
0.00103908
-0.000197854
-0.000293702
0.000870263
-0.000193946
-0.00016855
0.000712262
-0.000188508
-8.20919e-05
0.000587904
-0.000165583
-2.4745e-05
0.000483311
-0.000149041
9.89317e-06
0.000405147
-0.000132079
2.23989e-05
0.000353008
-0.000108609
1.74713e-05
0.000287375
-7.64166e-05
0.000187475
-3.58357e-05
1.82797e-05
1.34501e-05
-3.54743e-05
6.17268e-05
1.05318e-05
-7.85721e-05
0.000102559
5.23281e-05
-9.31155e-05
0.000126132
0.000117856
-0.000102326
0.000127678
0.000203523
-0.000109004
0.000100198
0.000315566
-0.000122424
6.90394e-05
0.000420672
-0.000153551
2.27438e-05
0.000553852
-0.000187548
-3.70201e-05
0.000695593
-0.000205837
-0.000124878
0.000845189
-0.000209513
-0.000228123
0.000993536
-0.00020947
-0.000349511
0.00113501
-0.00020232
-0.000490773
0.00127912
-0.000196028
-0.000641996
0.00140403
-0.000194618
-0.000778638
0.00151696
-0.000190607
-0.000896242
0.00161216
-0.000179044
-0.000999221
0.00169684
-0.000157069
-0.00108849
0.00177694
-0.00012951
-0.00117827
0.00184029
-7.88081e-05
-0.00126062
0.00190038
-3.01304e-05
-0.00134234
0.00193672
2.2374e-05
-0.00141182
0.00192583
7.53871e-05
-0.00141634
0.00189794
7.79718e-05
-0.00141269
0.00187411
9.92494e-05
-0.00137493
0.00181826
8.83581e-05
-0.00132453
0.00176072
8.61712e-05
-0.00125906
0.00167208
7.63977e-05
-0.00118764
0.00156756
6.31628e-05
-0.00109546
0.00143868
2.83819e-05
-0.000979958
0.00129498
-1.47689e-05
-0.000839785
0.00114209
-6.21965e-05
-0.0006816
0.000991075
-0.000110184
-0.000520756
0.000853276
-0.000143857
-0.000378118
0.000729537
-0.000159913
-0.000247684
0.000633151
-0.00017568
-0.000140327
0.000539793
-0.000163839
-6.06654e-05
0.000470447
-0.000144961
-7.79779e-06
0.000421872
-0.000121731
8.52376e-06
0.000351171
-8.01175e-05
0.000228785
-3.27875e-05
1.85545e-05
5.75532e-05
-6.26577e-05
6.01817e-05
8.53479e-05
-0.000116443
0.000114102
0.000140972
-0.000142564
0.000132878
0.000236006
-0.000136925
0.000126774
0.000347506
-0.00013788
9.54553e-05
0.000495386
-0.000148501
6.61032e-05
0.000630843
-0.000180818
2.85741e-05
0.000797838
-0.000206457
-2.10052e-05
0.000952901
-0.000207729
-8.99207e-05
0.00110801
-0.000193911
-0.000174215
0.00125384
-0.000176006
-0.000271103
0.00138555
-0.00015365
-0.000362515
0.00149783
-0.000127297
-0.000453315
0.00159561
-0.000100781
-0.000542613
0.00167471
-6.8452e-05
-0.00064721
0.00173394
-1.71794e-05
-0.000756991
0.00176397
4.2652e-05
-0.000848356
0.00177433
9.39684e-05
-0.000935894
0.00177645
0.000151375
-0.00101426
0.00176624
0.000212501
-0.00108962
0.00175918
0.0002529
-0.00118108
0.00173428
0.000283009
-0.00122241
0.0016593
0.000279959
-0.0012628
0.00162202
0.000292488
-0.00127739
0.00155219
0.000280658
-0.00128346
0.00149625
0.000270535
-0.0012774
0.00142319
0.000242831
-0.00126578
0.00134458
0.000211359
-0.00123211
0.00124959
0.000155422
-0.00115633
0.00114988
6.9328e-05
-0.00104979
0.00103729
-1.74515e-06
-0.000906157
0.000925499
-7.80556e-05
-0.000734147
0.000816759
-0.000135493
-0.000557029
0.000723587
-0.000171168
-0.000377775
0.000643531
-0.000189634
-0.000230348
0.000581591
-0.000189226
-0.000113069
0.000520672
-0.000167504
-3.2881e-05
0.000476894
-0.000135211
4.02523e-06
0.00040214
-8.78752e-05
0.000264692
-3.18826e-05
2.46582e-05
0.000128124
-9.52295e-05
9.12075e-05
0.000185423
-0.000166624
0.000152189
0.000266471
-0.000186481
0.000170375
0.000385955
-0.000168135
0.000149872
0.000526306
-0.000158297
0.00013403
0.000683696
-0.000172469
0.000117706
0.000844925
-0.000197759
9.75077e-05
0.00101958
-0.000201549
5.79239e-05
0.00117009
-0.000177608
-1.38042e-07
0.00131395
-0.000147878
-6.78513e-05
0.00143684
-0.000115291
-0.000141572
0.0015392
-7.99283e-05
-0.00021791
0.00161893
-4.4769e-05
-0.000295223
0.00167166
1.27119e-06
-0.000368441
0.00169586
5.20629e-05
-0.000435072
0.00169611
0.000104462
-0.000505487
0.00167285
0.000161539
-0.000595634
0.00164148
0.000223003
-0.000696449
0.00159672
0.000280542
-0.000794876
0.00153831
0.000326361
-0.000882416
0.00148968
0.00035704
-0.000993586
0.00145883
0.000386617
-0.00106763
0.00136007
0.000373275
-0.0011399
0.00132397
0.000370328
-0.00120065
0.0012717
0.00034124
-0.00125502
0.00123648
0.000314142
-0.00129854
0.00119491
0.000271809
-0.00133207
0.00114896
0.000229142
-0.00134363
0.00109449
0.000166662
-0.00130169
0.00103403
7.39081e-05
-0.00122078
0.00095721
-8.28392e-07
-0.00109496
0.000875167
-7.54878e-05
-0.000922193
0.000790533
-0.000146543
-0.000725196
0.000715601
-0.000189011
-0.000509527
0.000652854
-0.000224992
-0.00032273
0.000618571
-0.000223777
-0.000169147
0.000566439
-0.000199349
-5.86123e-05
0.000525106
-0.000158747
-2.62007e-06
0.000447306
-0.000101157
0.000297302
-3.52299e-05
2.94156e-05
0.000226157
-0.000127448
0.000123468
0.000308871
-0.000217499
0.000198175
0.000419781
-0.000228017
0.000225323
0.000555049
-0.000196242
0.000214382
0.000712871
-0.000175623
0.000204933
0.000874765
-0.00018162
0.000197137
0.00103989
-0.000187173
0.000188138
0.0011978
-0.000169214
0.000156926
0.00133592
-0.000134612
0.000111841
0.00145263
-9.35955e-05
5.83093e-05
0.00154602
-5.56495e-05
-3.59502e-06
0.00161145
-1.03511e-05
-7.25249e-05
0.00164335
4.45099e-05
-0.000138916
0.00164642
9.16247e-05
-0.000210334
0.00162133
0.000145954
-0.000283848
0.00157078
0.000198839
-0.000361039
0.001501
0.000249037
-0.000447832
0.00143135
0.000296922
-0.000537774
0.00135448
0.000332187
-0.000641349
0.00128301
0.000358866
-0.000732601
0.00121241
0.000368523
-0.000844808
0.00119184
0.000379197
-0.00095653
0.00111117
0.000360625
-0.00105905
0.00108102
0.000345472
-0.00115352
0.00104823
0.000317941
-0.00124106
0.00103653
0.000287489
-0.00131428
0.00102152
0.000246606
-0.00137758
0.000996621
0.000215642
-0.00141796
0.000970175
0.000164693
-0.00141145
0.000927426
0.000100095
-0.0013587
0.000874059
3.0398e-05
-0.00125105
0.00080821
-4.06908e-05
-0.00108176
0.000743578
-0.000122342
-0.000878346
0.000691766
-0.000179577
-0.000649847
0.000642178
-0.000217823
-0.000413571
0.000634853
-0.000252559
-0.000221848
0.000598553
-0.000223838
-8.23446e-05
0.000566262
-0.00018066
-9.0944e-06
0.000489277
-0.000115221
0.000327717
-3.95091e-05
5.24864e-05
0.00032553
-0.00015186
0.000168898
0.000450533
-0.000258074
0.000265127
0.000589699
-0.000266147
0.000301936
0.000734658
-0.000216419
0.000301016
0.000893959
-0.000180169
0.00029413
0.00104785
-0.000166203
0.000285691
0.00120028
-0.000151952
0.000284699
0.00133106
-0.000132266
0.000272111
0.00144284
-9.4336e-05
0.000234197
0.00153576
-4.52074e-05
0.0001849
0.00158889
6.42458e-06
0.000123383
0.00160922
6.37457e-05
5.41408e-05
0.00160101
0.000111588
-1.6326e-05
0.00155931
0.00015758
-9.17218e-05
0.00149276
0.000203965
-0.000172263
0.00140628
0.000245049
-0.000260106
0.00130843
0.000280413
-0.000359586
0.00122389
0.00030694
-0.000451231
0.00112681
0.000319309
-0.000555214
0.00106252
0.00032448
-0.000661143
0.0010007
0.00031764
-0.000766157
0.00098332
0.000313536
-0.00088605
0.000931354
0.000299708
-0.00100681
0.000916637
0.00028514
-0.00112239
0.000892373
0.000271431
-0.00122968
0.000896345
0.000247476
-0.00132547
0.00089266
0.000224649
-0.00140944
0.000882855
0.000197736
-0.00147561
0.000863614
0.000172739
-0.0015034
0.000826588
0.000128624
-0.0014745
0.000780328
6.48308e-05
-0.00137906
0.000727302
-1.45369e-05
-0.00121439
0.000670966
-9.20573e-05
-0.000993825
0.000630623
-0.000159418
-0.000748609
0.000605972
-0.00020901
-0.00049513
0.000620902
-0.000239528
-0.0002762
0.00062301
-0.000243386
-0.000107284
0.000595525
-0.000198179
-1.65368e-05
0.000528063
-0.000129534
0.000356941
-4.57616e-05
6.6921e-05
0.000425986
-0.000167376
0.000206542
0.000601597
-0.000290684
0.00032711
0.000760952
-0.000291823
0.000383381
0.000904389
-0.000226002
0.00039813
0.00105119
-0.000171978
0.000392032
0.00118794
-0.000133993
0.000382018
0.001322
-0.000111704
0.000373738
0.0014287
-8.93608e-05
0.000357752
0.00150801
-4.91865e-05
0.000338309
0.00155475
4.45431e-07
0.000297344
0.00157857
5.1287e-05
0.000226175
0.00156979
0.000110606
0.000151749
0.00151965
0.000155786
7.51398e-05
0.00144002
0.000195905
-9.7389e-06
0.00134745
0.000230188
-9.91847e-05
0.00123935
0.00025637
-0.000203109
0.00113622
0.000276137
-0.000309413
0.00104647
0.000283729
-0.000418515
0.000955994
0.00027992
-0.000523571
0.000901664
0.000265909
-0.000630344
0.00085528
0.000252194
-0.000725253
0.000833829
0.000244399
-0.000837516
0.000806368
0.000237248
-0.00096018
0.00080175
0.00023755
-0.00108939
0.000786429
0.000235149
-0.00120135
0.000781667
0.000226639
-0.00130975
0.000785143
0.000215915
-0.00141048
0.000775869
0.00020772
-0.0014989
0.000751026
0.000201004
-0.00154971
0.000715639
0.000161763
-0.00154887
0.000678348
0.000101138
-0.00147501
0.000638604
1.48439e-05
-0.00133042
0.000602017
-7.565e-05
-0.00111201
0.000567085
-0.000154871
-0.000857749
0.000546464
-0.000194753
-0.000576318
0.000561359
-0.000221889
-0.000321495
0.000615911
-0.000247724
-0.00013064
0.000610517
-0.000205847
-2.30345e-05
0.00055836
-0.000137903
0.00038369
-4.97826e-05
8.37571e-05
0.000514305
-0.000172077
0.000249286
0.000748957
-0.000312889
0.000394363
0.000923185
-0.00030731
0.000470362
0.00105541
-0.000227023
0.000498389
0.00118118
-0.000158018
0.000494698
0.00129449
-0.000102854
0.000483646
0.00140325
-7.01947e-05
0.000465145
0.00148157
-3.43665e-05
0.000435013
0.00153598
2.16656e-06
0.000397102
0.00155804
3.46243e-05
0.000356443
0.00153943
7.97994e-05
0.000299367
0.00149051
0.000136353
0.000223851
0.00141825
0.000176916
0.000134348
0.00131956
0.000209963
4.2751e-05
0.00120724
0.000231812
-5.34158e-05
0.00109254
0.000242975
-0.000170433
0.00100101
0.00025222
-0.000277961
0.000907023
0.00024697
-0.000401498
0.000844875
0.000234656
-0.000503511
0.000789179
0.000214499
-0.000599079
0.000752334
0.000198514
-0.000691555
0.000731497
0.000194809
-0.000795794
0.000715816
0.00019479
-0.000902706
0.000702498
0.000206164
-0.00103133
0.000699982
0.000215077
-0.00114993
0.00067544
0.000224822
-0.0012672
0.000676924
0.000225491
-0.00139037
0.000659955
0.000239085
-0.00149703
0.000636515
0.000221167
-0.00157226
0.000607871
0.000183004
-0.00160284
0.000579936
0.000128993
-0.00156041
0.000551728
4.44437e-05
-0.00143194
0.000514275
-4.07338e-05
-0.0012063
0.00048731
-0.000145857
-0.000928168
0.000473136
-0.000204808
-0.000640388
0.000498342
-0.000224763
-0.000371796
0.000563393
-0.000216074
-0.00015617
0.000614931
-0.000220039
-3.0451e-05
0.000576012
-0.000143371
0.000409557
-5.63181e-05
9.24193e-05
0.000591015
-0.000169129
0.000283488
0.000879581
-0.000321692
0.000456052
0.00106275
-0.000312128
0.000552071
0.00118247
-0.000223076
0.00059221
0.00128498
-0.000143941
0.000593413
0.00136949
-7.62028e-05
0.000580919
0.00144884
-3.30983e-05
0.000551813
0.00150095
9.72142e-06
0.000509485
0.00152971
4.85912e-05
0.000455949
0.0015211
9.04819e-05
0.00039655
0.00148396
0.00011487
0.000326772
0.00141229
0.000147995
0.000256185
0.00131017
0.000178662
0.00016957
0.00119946
0.000206706
7.78501e-05
0.00108424
0.000214719
-2.66452e-05
0.000976353
0.000220685
-0.000137097
0.000890776
0.00022069
-0.000254987
0.000809588
0.000215325
-0.000366537
0.000757791
0.000198634
-0.000464325
0.000709672
0.000177295
-0.000557122
0.000680128
0.000165003
-0.000645267
0.000654807
0.000164836
-0.00073554
0.000632766
0.000173324
-0.000832673
0.000611087
0.000188544
-0.00094348
0.000596011
0.000214777
-0.00107273
0.000574027
0.000230668
-0.00119443
0.000545869
0.000252748
-0.00133004
0.000541102
0.000254465
-0.00145282
0.000521811
0.000237483
-0.00155652
0.000504741
0.000206831
-0.00161172
0.000488224
0.000146914
-0.00159699
0.000472237
6.47536e-05
-0.00150267
0.000434591
-1.46362e-05
-0.00132224
0.000408622
-0.000101735
-0.0010348
0.00039615
-0.000210459
-0.000709521
0.000418622
-0.000245558
-0.000405814
0.000485636
-0.000225949
-0.000176805
0.000584683
-0.000198762
-3.72181e-05
0.000583304
-0.000146879
0.000430795
-5.84569e-05
0.000100008
0.000650116
-0.000159109
0.000314543
0.00098592
-0.000320874
0.000512746
0.00117664
-0.000312097
0.00062662
0.00128207
-0.00021347
0.000674369
0.00136231
-0.00012508
0.000678452
0.00142108
-5.56724e-05
0.000664023
0.00146887
-5.59651e-06
0.000628061
0.00149101
4.59068e-05
0.000576614
0.00149286
8.82953e-05
0.000510708
0.00146493
0.000122068
0.000435314
0.0014078
0.000151557
0.000353188
0.00132165
0.000172765
0.000271682
0.00121183
0.000179843
0.000183151
0.00109557
0.000192424
9.44689e-05
0.000979136
0.000193783
-9.69547e-06
0.000883968
0.000196549
-0.000114838
0.000800464
0.000195454
-0.000230436
0.000733628
0.000191558
-0.000330962
0.000687792
0.000170527
-0.000423942
0.000646069
0.000156583
-0.000506349
0.000614163
0.000148372
-0.0005845
0.000583171
0.000149786
-0.00065965
0.000551621
0.000156295
-0.000753792
0.000527625
0.000177604
-0.000842603
0.000487592
0.000197231
-0.000964403
0.000472755
0.000223072
-0.00109227
0.000429191
0.000244542
-0.00122786
0.000419003
0.000257695
-0.00136497
0.000412379
0.000246536
-0.00148738
0.000410224
0.000216928
-0.00158257
0.000403472
0.000179945
-0.00160765
0.000374439
0.000122879
-0.00155644
0.000331027
5.2349e-05
-0.0014028
0.000290641
-3.56532e-05
-0.00114581
0.00028113
-0.000141972
-0.000801062
0.00031482
-0.000240946
-0.000460879
0.000403253
-0.0002578
-0.000198643
0.000512682
-0.000190235
-4.46369e-05
0.0005794
-0.000150103
0.000450514
-6.43576e-05
0.000106541
0.000686392
-0.000142816
0.000340192
0.00106532
-0.000313048
0.000559255
0.00126585
-0.000308275
0.00068934
0.00135965
-0.000207665
0.000746089
0.00141501
-0.000109453
0.000751163
0.00144872
-3.27126e-05
0.000733606
0.00146724
1.9187e-05
0.000688875
0.00146254
7.32026e-05
0.000630994
0.0014411
0.000109643
0.000559217
0.00139301
0.000143704
0.000473455
0.00132276
0.000170796
0.000378156
0.00122788
0.000189076
0.000282604
0.00111672
0.000190663
0.000194787
0.00100004
0.000183348
0.00010571
0.000891493
0.00017672
7.80408e-06
0.000805411
0.000176464
-9.78274e-05
0.000727436
0.00017866
-0.000202188
0.000673098
0.000164891
-0.000291849
0.000625805
0.000151647
-0.000374276
0.000584658
0.00014384
-0.000445953
0.000543725
0.000142115
-0.000513156
0.000508674
0.000141699
-0.000570534
0.000463177
0.000145821
-0.000647219
0.000442538
0.000161772
-0.000735054
0.000391288
0.000184139
-0.000833844
0.000364952
0.000206593
-0.000966136
0.000331372
0.000230111
-0.00109144
0.000302042
0.000242266
-0.00123338
0.000311108
0.000243209
-0.00138281
0.000321977
0.000237673
-0.00149824
0.000303998
0.000214908
-0.00157409
0.000260701
0.000189588
-0.00157473
0.000201847
0.000129816
-0.00147173
0.000147184
4.04598e-05
-0.00124006
0.000118365
-6.89088e-05
-0.000903023
0.000157814
-0.000180028
-0.000520323
0.000280154
-0.0002596
-0.000226514
0.000439945
-0.000221071
-5.06204e-05
0.000549633
-0.000146125
0.000467772
-6.78787e-05
0.000106751
0.000704393
-0.000124752
0.000353551
0.00111531
-0.000296798
0.000592727
0.00132752
-0.000300841
0.000740482
0.00141407
-0.000202179
0.000803193
0.00144947
-9.7169e-05
0.000804634
0.00145893
-1.16551e-05
0.000780379
0.00144738
4.41105e-05
0.000734254
0.00142137
8.72906e-05
0.000672997
0.00137998
0.000122374
0.000594986
0.00131344
0.000157578
0.00050609
0.00123296
0.000178699
0.0004069
0.00113319
0.000193877
0.000299209
0.00102833
0.000196081
0.000196711
0.000921016
0.000181521
9.89652e-05
0.000821441
0.000167799
1.18713e-05
0.000725998
0.000166506
-7.80569e-05
0.000656711
0.000160654
-0.000165947
0.000610481
0.000150507
-0.000241633
0.000561462
0.00014003
-0.000311886
0.000515035
0.000139876
-0.000376945
0.000469925
0.000138858
-0.000432947
0.000431553
0.000133123
-0.000488166
0.000379548
0.000138848
-0.000540224
0.000351679
0.000142917
-0.000620596
0.000310082
0.000161577
-0.000704899
0.000266056
0.000183199
-0.000820756
0.000237986
0.000209242
-0.000944615
0.000202345
0.000223555
-0.0010857
0.000213649
0.000238546
-0.00123501
0.00021931
0.000251981
-0.00137591
0.000188551
0.000256338
-0.00148857
0.000140829
0.000232539
-0.00153893
7.00307e-05
0.000182175
-0.00149121
-3.67847e-06
0.000103139
-0.00131367
-5.72426e-05
-1.92892e-06
-0.00100709
-3.80558e-05
-0.000110708
-0.000599106
8.6255e-05
-0.000214089
-0.000246378
0.000335653
-0.000248437
-5.87391e-05
0.000502555
-0.00014056
0.000476703
-6.76689e-05
0.000116224
0.000668049
-7.98808e-05
0.000373109
0.00112
-0.000261575
0.000622686
0.00135092
-0.000272973
0.000783725
0.00143276
-0.000179732
0.000853954
0.00145273
-7.34892e-05
0.000853166
0.00143856
2.11618e-05
0.00082538
0.00140725
6.79199e-05
0.000777421
0.00136105
0.000108282
0.000712389
0.00130967
0.000135347
0.000627907
0.00124141
0.000156512
0.000523787
0.00115855
0.000178531
0.000411475
0.00105233
0.00019317
0.000311176
0.000937136
0.000191493
0.000227494
0.000823903
0.000180796
0.000142188
0.000735336
0.000171411
4.11283e-05
0.000662699
0.00016436
-5.54615e-05
0.000602594
0.000150708
-0.000129851
0.000550065
0.000134806
-0.000193897
0.000496768
0.00012874
-0.000252413
0.000446222
0.00012733
-0.000310435
0.000398401
0.000129547
-0.000358275
0.000355035
0.000124358
-0.000414155
0.000308095
0.000127332
-0.000453406
0.000267926
0.000123003
-0.000512016
0.000236193
0.0001325
-0.000592174
0.000184454
0.00016176
-0.000683605
0.000139097
0.00019032
-0.000804306
0.000104074
0.000218972
-0.000923133
9.03697e-05
0.000242105
-0.00106492
9.31979e-05
0.000267903
-0.00121953
6.67463e-05
0.000276407
-0.00136025
1.96315e-05
0.000261924
-0.00145809
-5.6256e-05
0.000224126
-0.0014656
-0.000152947
0.000156776
-0.00134784
-0.00023642
6.14217e-05
-0.00108533
-0.000252044
-4.85249e-05
-0.000703524
-0.000145605
-0.000149947
-0.000293541
0.000136664
-0.000210995
-6.481e-05
0.00043167
-0.000157848
0.000477101
-6.52068e-05
0.000106397
0.000611505
-4.98531e-05
0.000364057
0.00110691
-0.000244565
0.000629814
0.00135046
-0.0002653
0.000811573
0.00143052
-0.000179517
0.000887192
0.00143595
-5.88357e-05
0.000886955
0.0014057
3.30945e-05
0.000850324
0.00135394
8.994e-05
0.000785317
0.00130311
0.000122941
0.00070528
0.00123953
0.000150174
0.000627783
0.00114823
0.000170679
0.000550713
0.00105126
0.000184358
0.00046739
0.000947195
0.00018846
0.000373186
0.000852195
0.000179145
0.000272058
0.000759403
0.000165628
0.000170848
0.000678688
0.000157858
6.90104e-05
0.000604835
0.000159701
-1.8069e-05
0.000546756
0.000142917
-8.37689e-05
0.000487185
0.00012858
-0.000140745
0.000436654
0.00011709
-0.000194023
0.000384332
0.000115167
-0.000244872
0.0003342
0.000115051
-0.00029072
0.000290095
0.000110788
-0.000340337
0.000245092
0.000112619
-0.000379924
0.000200227
0.000107286
-0.000422313
0.000167897
0.000110684
-0.000492329
0.000113175
0.000141294
-0.000574908
5.57494e-05
0.000165926
-0.000675947
1.28207e-05
0.000192292
-0.000789568
-2.82452e-05
0.000232236
-0.000918542
-4.34306e-05
0.000265603
-0.0010674
-7.13185e-05
0.000286921
-0.00120923
-0.000131433
0.000292897
-0.00132818
-0.000202598
0.000265296
-0.00138639
-0.000302505
0.000207759
-0.00133184
-0.000415637
0.000124673
-0.00112824
-0.000482737
2.70929e-05
-0.000770655
-0.000414298
-8.88928e-05
-0.000360649
-0.000114254
-0.000159088
-6.53669e-05
0.00030437
-0.000167983
0.000463819
-5.20853e-05
0.000128021
0.000471606
1.18789e-05
0.000377117
0.00104005
-0.000182235
0.00064793
0.00130462
-0.000224979
0.000835184
0.00139069
-0.000147427
0.000914946
0.00138756
-3.13758e-05
0.000912736
0.00134713
6.07782e-05
0.000876867
0.00127689
0.000112921
0.000830201
0.00120305
0.000146724
0.000779713
0.00112584
0.00016418
0.000708814
0.00104405
0.000175079
0.000612017
0.000966726
0.000181329
0.000498029
0.000878406
0.000182777
0.000386033
0.000792109
0.000172082
0.00028799
0.000702242
0.000155204
0.000200837
0.000626691
0.000139149
0.000117463
0.000550763
0.000137447
3.44349e-05
0.00049019
0.000139595
-3.41587e-05
0.000430755
0.000125024
-8.89176e-05
0.000379032
0.00011238
-0.000138549
0.000327738
0.000106226
-0.000186276
0.000278566
0.000103362
-0.000229491
0.000234955
9.83539e-05
-0.000274224
0.000191901
9.79235e-05
-0.00031728
0.000147582
9.57006e-05
-0.000354093
0.000108946
9.57639e-05
-0.000411242
4.92777e-05
0.000121047
-0.000483732
-5.146e-06
0.000133385
-0.000562643
-6.15787e-05
0.00015331
-0.000661249
-0.000114376
0.000184736
-0.000774221
-0.000159806
0.000229347
-0.000903579
-0.000217381
0.00027542
-0.00106048
-0.000270529
0.000296
-0.00122415
-0.000334218
0.00029529
-0.0013114
-0.000484683
0.000269428
-0.00130041
-0.000644891
0.000218267
-0.00115327
-0.000760201
0.00013032
-0.000831358
-0.000754731
1.85208e-05
-0.00041501
-0.000434594
-9.60067e-05
-7.26948e-05
9.23561e-05
-0.000130301
0.000423417
-3.22943e-05
0.000123607
0.00034301
4.98806e-06
0.000342126
0.00098641
-0.000164879
0.000622225
0.00124816
-0.000223635
0.000825185
0.00133647
-0.000148738
0.00092364
0.00131986
-3.07531e-05
0.000949546
0.00126071
6.05158e-05
0.000921688
0.00117984
0.000124907
0.000868623
0.0011112
0.000144913
0.00078849
0.00104392
0.000162059
0.000697029
0.000965678
0.000169831
0.000605105
0.000883977
0.000174674
0.00051106
0.000800533
0.000171918
0.000415748
0.000720663
0.000166758
0.000323615
0.000644462
0.000149913
0.000243776
0.000575917
0.000130614
0.000168678
0.00050827
0.000117591
9.4072e-05
0.000447142
0.000117655
1.97333e-05
0.000383613
0.00012148
-3.76204e-05
0.000326865
0.000109522
-8.77259e-05
0.000280212
9.76309e-05
-0.00013577
0.000231397
9.52131e-05
-0.000175799
0.000187349
8.76352e-05
-0.000217368
0.000146676
8.67936e-05
-0.000257554
0.000103686
8.40814e-05
-0.000293859
5.80305e-05
8.72195e-05
-0.000349838
3.36481e-06
0.000101892
-0.000409884
-5.22674e-05
0.000107167
-0.000480551
-0.000110559
0.000119648
-0.000569776
-0.000169128
0.000143976
-0.000671748
-0.000236435
0.000178601
-0.000785458
-0.000323888
0.000220219
-0.000898223
-0.000428512
0.000270748
-0.00100918
-0.000529306
0.000306044
-0.00113646
-0.000662716
0.000305315
-0.00122008
-0.000822994
0.000261724
-0.00115988
-0.00100548
0.000185081
-0.000937037
-0.00106191
8.43387e-05
-0.000504239
-0.00084403
-2.3363e-05
-0.000111704
-0.000232655
-6.7525e-05
0.000300653
1.10594e-05
9.54282e-05
0.00023291
1.46717e-05
0.000340254
0.00088433
-0.000142746
0.000616425
0.00116985
-0.000197863
0.000829425
0.00126813
-0.00014466
0.000932382
0.00125269
-3.57869e-05
0.000954234
0.00118689
5.19661e-05
0.000908986
0.00110449
0.000120599
0.000853883
0.00102277
0.000143535
0.000792019
0.000949305
0.000156478
0.000718526
0.000877021
0.000162151
0.000635113
0.000803607
0.000163783
0.000544321
0.00073109
0.000160234
0.000453747
0.000658784
0.000152453
0.000365664
0.000592713
0.000139831
0.000282757
0.000527979
0.000130845
0.000210791
0.000468365
0.000111872
0.000145761
0.000407516
0.000104656
7.91768e-05
0.000348644
0.000101554
1.24657e-05
0.000289369
0.000104207
-3.65124e-05
0.000234974
9.4216e-05
-8.68411e-05
0.000192779
8.89457e-05
-0.000128304
0.000147349
8.14634e-05
-0.000169842
0.000108976
7.92381e-05
-0.000207054
6.28019e-05
7.80952e-05
-0.000245246
1.29874e-05
8.32344e-05
-0.000295876
-3.5813e-05
8.98082e-05
-0.000347336
-9.16715e-05
9.08643e-05
-0.000409653
-0.000150133
0.000101891
-0.000480221
-0.000213421
0.000114861
-0.000563861
-0.00029011
0.000137314
-0.000678955
-0.000380851
0.000172057
-0.000826703
-0.000492919
0.000212155
-0.00096766
-0.000650735
0.000262384
-0.00107388
-0.000854352
0.000297853
-0.00112224
-0.00106741
0.000292785
-0.00109413
-0.00128479
0.000251194
-0.000913355
-0.00139183
0.000149141
-0.000567518
-0.00124117
5.1303e-05
-0.000142138
-0.000630099
-2.79351e-05
0.000104647
5.38675e-05
6.43253e-05
0.000177223
-8.63835e-06
0.000305348
0.000782271
-0.000138966
0.000574438
0.00108904
-0.000188277
0.000801449
0.00119671
-0.000155593
0.000921428
0.00118348
-5.07673e-05
0.000959497
0.00111185
3.69747e-05
0.000932902
0.00102369
0.000107392
0.000884005
0.000940375
0.000131295