/*--------------------------------*- C++ -*----------------------------------*\
| =========                 |                                                 |
| \\      /  F ield         | OpenFOAM: The Open Source CFD Toolbox           |
|  \\    /   O peration     | Version:  v1806                                 |
|   \\  /    A nd           | Web:      www.OpenFOAM.com                      |
|    \\/     M anipulation  |                                                 |
\*---------------------------------------------------------------------------*/
FoamFile
{
    version     2.0;
    format      ascii;
    class       volVectorField;
    location    "0.068";
    object      U_0;
}
// * * * * * * * * * * * * * * * * * * * * * * * * * * * * * * * * * * * * * //

dimensions      [0 1 -1 0 0 0 0];


internalField   nonuniform List<vector> 
64000
(
(-0.00880466 -0.00985077 -0.0062732)
(0.0137258 -0.0102377 -0.00371534)
(0.0201196 -0.0035641 0.00103098)
(0.0234979 -0.00362419 0.00143727)
(0.0240008 -0.00265186 0.00199437)
(0.023952 -0.00285976 0.0028084)
(0.0232905 -0.00345945 0.00308111)
(0.0199238 -0.00396767 0.00320099)
(0.018416 -0.0049863 0.00460663)
(0.0114357 -0.0043909 0.00396603)
(0.00585048 -0.00555664 0.00634398)
(-0.00770951 -0.00906793 0.00633323)
(-0.0279383 -0.0128737 0.006553)
(-0.0515837 -0.0179611 0.00407021)
(-0.0826157 -0.0181781 0.0051437)
(-0.117689 -0.0156514 0.00277212)
(-0.149752 0.000948173 0.00213224)
(-0.192702 -0.00427287 -0.00225011)
(-0.19654 -0.0100399 0.00604768)
(-0.254143 -0.028964 -0.0159688)
(-0.219411 -0.0241579 -0.025203)
(-0.105612 -0.0251219 -0.0395875)
(-0.10183 -0.0106921 -0.0271418)
(-0.0974593 -0.00443126 -0.0372685)
(-0.111043 0.00232054 -0.0479965)
(-0.106547 0.0107979 -0.0569911)
(-0.0936844 0.0206183 -0.0618667)
(-0.0598279 0.0322092 -0.0570444)
(-0.027674 0.0380152 -0.0529789)
(0.0155182 0.0533549 -0.0345142)
(0.064349 0.0449264 -0.0320405)
(0.0970835 0.0373538 -0.0230038)
(0.112969 0.0262484 -0.0115337)
(0.108383 0.0127045 -0.00415651)
(0.0942237 0.00453967 0.00188903)
(0.0744802 -0.00368156 0.00444243)
(0.0535085 -0.00708493 0.00621304)
(0.0320913 -0.00613754 0.00705748)
(0.0171178 -0.00449263 0.00738515)
(0.0024793 -0.00290698 0.00527335)
(-0.00659463 -0.000453029 -0.00280406)
(0.0095242 -0.0170002 -0.00246369)
(0.0252068 -0.012022 -0.000857528)
(0.0338908 -0.00867441 -0.000618709)
(0.0388896 -0.00379522 -0.000483487)
(0.0386971 -0.00108863 -0.00127298)
(0.0368955 0.00294442 -0.00282428)
(0.0293478 0.00475451 -0.00263814)
(0.0224394 0.0104288 -0.00701701)
(0.00475256 0.0161968 -0.0044091)
(-0.0197533 0.0247174 -0.00807591)
(-0.0567072 0.0313641 0.000240738)
(-0.10498 0.0426157 -0.00403326)
(-0.156695 0.0639206 -0.00686253)
(-0.216345 0.0766218 -0.0109315)
(-0.274146 0.0855478 -0.0182056)
(-0.357946 0.0929494 -0.0432596)
(-0.462 0.0954022 -0.0582141)
(-0.514757 0.101025 -0.0756881)
(-0.595819 0.0981639 -0.0995064)
(-0.549367 0.12481 -0.101218)
(-0.410214 0.139814 -0.127253)
(-0.387516 0.184731 -0.138534)
(-0.370359 0.210873 -0.147102)
(-0.35631 0.236369 -0.158277)
(-0.319267 0.258419 -0.164199)
(-0.267635 0.278967 -0.16552)
(-0.198428 0.295251 -0.15387)
(-0.120927 0.300761 -0.133755)
(-0.051742 0.308496 -0.109769)
(0.0150849 0.28959 -0.0751126)
(0.0798154 0.259555 -0.0473389)
(0.115256 0.208746 -0.0387267)
(0.12739 0.159221 -0.0267795)
(0.121504 0.108135 -0.0128124)
(0.101821 0.06838 -0.00523205)
(0.0814333 0.0398783 -0.000784094)
(0.0557659 0.0253564 0.000288175)
(0.0333066 0.015573 0.00190252)
(0.0083511 0.00710231 0.00258654)
(-0.000532865 -0.00831813 0.00158361)
(0.0153234 -0.0235579 -0.00118189)
(0.0328582 -0.0188738 -0.00202478)
(0.0426953 -0.00647606 -0.00262151)
(0.0447002 0.004693 -0.00464706)
(0.041854 0.0159406 -0.00628061)
(0.0339806 0.0316907 -0.00757699)
(0.0199911 0.0456967 -0.00943319)
(0.00391101 0.0695351 -0.00202443)
(-0.0263438 0.0898661 -0.00467768)
(-0.0647925 0.117456 -0.00817456)
(-0.11796 0.150375 -0.0132687)
(-0.172675 0.183945 -0.0171476)
(-0.251394 0.210699 -0.0320172)
(-0.351984 0.229436 -0.0346859)
(-0.447777 0.243012 -0.0423315)
(-0.536349 0.24785 -0.0586211)
(-0.622468 0.269075 -0.0763532)
(-0.669494 0.298042 -0.09407)
(-0.73482 0.331134 -0.116135)
(-0.674727 0.369551 -0.110062)
(-0.509545 0.397839 -0.123895)
(-0.46299 0.454363 -0.127026)
(-0.435281 0.48748 -0.12355)
(-0.412058 0.519428 -0.125566)
(-0.371138 0.542082 -0.123638)
(-0.319063 0.555907 -0.119163)
(-0.255116 0.560045 -0.104555)
(-0.187009 0.549983 -0.0830329)
(-0.123286 0.530747 -0.0593403)
(-0.0666441 0.501499 -0.0398979)
(-0.0249494 0.452947 -0.0277369)
(0.00982806 0.37999 -0.0153516)
(0.0327539 0.307447 -0.00805692)
(0.0434819 0.227877 -0.0109731)
(0.0491991 0.162672 -0.0108151)
(0.0485382 0.114282 -0.00699109)
(0.0391556 0.0767056 -0.00471256)
(0.0276425 0.0506456 -0.000896454)
(0.0082561 0.0236845 0.00204848)
(0.000239797 -0.0130836 0.00239101)
(0.0174359 -0.026108 -0.00121934)
(0.0392506 -0.0132867 -0.00232372)
(0.0474104 0.00529833 -0.00600334)
(0.0446332 0.0291141 -0.0064361)
(0.0395378 0.0545393 -0.00854677)
(0.0261601 0.0898186 -0.00859341)
(0.00643581 0.122493 -0.00528729)
(-0.0205481 0.167746 -0.010402)
(-0.0656118 0.208259 -0.0127011)
(-0.111553 0.251876 -0.0169199)
(-0.177323 0.285353 -0.0240355)
(-0.264895 0.312566 -0.0265467)
(-0.356349 0.328387 -0.0286252)
(-0.442941 0.349905 -0.0306946)
(-0.521504 0.375299 -0.0368935)
(-0.594355 0.405126 -0.0508211)
(-0.667079 0.43476 -0.0597389)
(-0.699562 0.474117 -0.0688234)
(-0.749861 0.516801 -0.0769287)
(-0.678067 0.550863 -0.0522217)
(-0.492567 0.569985 -0.046795)
(-0.431887 0.612586 -0.042296)
(-0.404838 0.622492 -0.0296013)
(-0.383363 0.635265 -0.026228)
(-0.351845 0.636893 -0.0207448)
(-0.311649 0.629039 -0.0172965)
(-0.264698 0.611241 -0.0101548)
(-0.21422 0.585986 0.00156351)
(-0.169926 0.554307 0.00875787)
(-0.137635 0.515137 0.0142304)
(-0.11389 0.471343 0.0126549)
(-0.0913779 0.4163 0.00742576)
(-0.0690533 0.351281 -0.000895465)
(-0.0471584 0.271933 -0.00475155)
(-0.0190451 0.202481 -0.0100148)
(0.000689647 0.146695 -0.0101587)
(0.00957891 0.110063 -0.00756744)
(0.0175394 0.0763878 -0.00311058)
(0.00660509 0.0354258 0.00170594)
(0.000818161 -0.0138897 0.000760788)
(0.023637 -0.0164171 -0.0047292)
(0.0480355 0.0016339 -0.00648679)
(0.055923 0.0366199 -0.00782756)
(0.0526273 0.0764337 -0.00673156)
(0.0463912 0.122715 -0.0146406)
(0.0266419 0.179553 -0.0117039)
(-0.000367125 0.237621 -0.00554788)
(-0.0331939 0.291353 -0.00750775)
(-0.088054 0.333623 -0.00957176)
(-0.153017 0.366096 -0.0123614)
(-0.233033 0.385103 -0.01497)
(-0.305339 0.408195 -0.0160091)
(-0.379186 0.435555 -0.021196)
(-0.453564 0.467094 -0.0192346)
(-0.520169 0.49971 -0.0210502)
(-0.579339 0.528468 -0.0237597)
(-0.632103 0.565087 -0.0203369)
(-0.645474 0.607222 -0.0171268)
(-0.682594 0.651487 -0.0258308)
(-0.611507 0.679875 -0.000214245)
(-0.419538 0.686207 0.0139712)
(-0.355009 0.699472 0.0244938)
(-0.336937 0.67802 0.0364427)
(-0.327142 0.659774 0.0378017)
(-0.315021 0.635113 0.0440385)
(-0.295416 0.602584 0.0452286)
(-0.26663 0.567003 0.0492391)
(-0.236859 0.526404 0.0426718)
(-0.212767 0.487729 0.0351254)
(-0.192042 0.443879 0.025315)
(-0.182482 0.410797 0.0179353)
(-0.175478 0.37528 0.00998364)
(-0.171663 0.344427 -0.00183251)
(-0.150927 0.279376 -0.0124415)
(-0.10336 0.208331 -0.0135717)
(-0.0518341 0.160358 -0.0131545)
(-0.0164498 0.129485 -0.0112872)
(0.00313037 0.0947227 -0.00561087)
(0.0037145 0.0444088 0.0016588)
(0.00533105 -0.0101999 -8.99504e-05)
(0.0294903 -0.00152421 -0.00496658)
(0.0624017 0.0240354 -0.00523141)
(0.0764759 0.07543 -0.00907603)
(0.070072 0.132828 -0.0139088)
(0.0651511 0.197985 -0.0183645)
(0.0458684 0.272324 -0.0137143)
(0.00576242 0.319922 -0.00286919)
(-0.0505278 0.362077 -0.00515737)
(-0.122445 0.394881 -0.00688341)
(-0.187835 0.424912 -0.0089201)
(-0.249724 0.455892 -0.00913236)
(-0.309266 0.491255 -0.00722601)
(-0.366698 0.519341 -0.00430191)
(-0.418906 0.550026 0.00214492)
(-0.469187 0.578799 0.00700858)
(-0.50509 0.60975 0.00813645)
(-0.539159 0.641981 0.0090128)
(-0.546842 0.686821 0.0105583)
(-0.572554 0.720047 0.00867981)
(-0.503056 0.744765 0.0333093)
(-0.327162 0.6973 0.0488764)
(-0.279071 0.679684 0.0587344)
(-0.282 0.627925 0.0730065)
(-0.288023 0.585528 0.0764834)
(-0.293947 0.544402 0.0771167)
(-0.290855 0.500946 0.0744503)
(-0.282301 0.460531 0.0687028)
(-0.266843 0.413483 0.066274)
(-0.256759 0.376048 0.0462043)
(-0.247129 0.333342 0.0355652)
(-0.236916 0.302804 0.0216394)
(-0.223953 0.278225 0.00973656)
(-0.232334 0.264969 -0.00163466)
(-0.238879 0.241028 -0.0146205)
(-0.174274 0.192387 -0.0135324)
(-0.0921546 0.161231 -0.0148008)
(-0.0401218 0.134503 -0.0116535)
(-0.00426367 0.102797 -0.00653552)
(0.0026923 0.0475191 0.00215208)
(0.00833542 -0.00542481 0.000710799)
(0.038801 0.0100682 -0.0100418)
(0.0812417 0.0494548 -0.0094466)
(0.105575 0.103911 -0.0108195)
(0.101933 0.164937 -0.013572)
(0.0982127 0.24076 -0.0167172)
(0.0501065 0.295741 -0.00759342)
(-0.0149888 0.330091 0.00295144)
(-0.0609255 0.373739 -0.00184849)
(-0.117207 0.416741 -0.00266601)
(-0.166362 0.463767 -0.00287108)
(-0.217105 0.506182 -0.00117055)
(-0.263772 0.54452 0.00188746)
(-0.310167 0.578345 0.00739203)
(-0.350898 0.61066 0.0143593)
(-0.384924 0.636445 0.0200418)
(-0.410783 0.662588 0.0258071)
(-0.426823 0.677228 0.0293643)
(-0.42314 0.701919 0.0256109)
(-0.444471 0.717468 0.0169557)
(-0.433084 0.735792 0.0304824)
(-0.291251 0.63292 0.0519001)
(-0.229341 0.582375 0.0558311)
(-0.249057 0.523781 0.0694379)
(-0.26484 0.479855 0.0706967)
(-0.286887 0.442477 0.0708496)
(-0.299625 0.406525 0.0670666)
(-0.307345 0.372768 0.0605766)
(-0.305389 0.336246 0.0481573)
(-0.3068 0.302212 0.0332827)
(-0.304354 0.269808 0.0205276)
(-0.296109 0.242032 0.00886026)
(-0.284262 0.22324 -0.000998586)
(-0.282349 0.207442 -0.0074787)
(-0.286387 0.217274 -0.0170846)
(-0.226035 0.193161 -0.0202899)
(-0.127169 0.166222 -0.0215785)
(-0.0558368 0.145578 -0.0166191)
(-0.00963612 0.111296 -0.0104339)
(0.00256675 0.0519185 0.000438942)
(0.00760826 0.00260165 -0.00238598)
(0.0457631 0.0293654 -0.0130844)
(0.0997488 0.0786237 -0.0135719)
(0.124746 0.133675 -0.0106642)
(0.129593 0.19212 -0.0116395)
(0.110642 0.262075 -0.011395)
(0.0492018 0.290235 -5.26914e-05)
(0.0032671 0.344778 0.00553743)
(-0.0323667 0.391568 0.00182709)
(-0.0818409 0.44492 0.00318145)
(-0.124036 0.488354 0.00441389)
(-0.166349 0.525285 0.0103039)
(-0.202103 0.557924 0.0165336)
(-0.232377 0.584876 0.0236716)
(-0.261191 0.609389 0.0281867)
(-0.288792 0.625025 0.0323648)
(-0.309469 0.635933 0.0348357)
(-0.327085 0.638135 0.0343659)
(-0.328042 0.63249 0.0307457)
(-0.345028 0.615812 0.0147723)
(-0.384827 0.617229 0.0148368)
(-0.295351 0.542323 0.0333906)
(-0.218893 0.456323 0.0361189)
(-0.23822 0.418645 0.0474368)
(-0.261388 0.380776 0.0518176)
(-0.292597 0.356922 0.0534471)
(-0.315744 0.330042 0.0544166)
(-0.334141 0.304681 0.0478799)
(-0.343342 0.276191 0.039312)
(-0.3518 0.246226 0.0178134)
(-0.353647 0.214605 0.0102352)
(-0.34459 0.190179 0.00113596)
(-0.331051 0.176678 -0.00702037)
(-0.316074 0.169197 -0.0106836)
(-0.324577 0.190531 -0.0201275)
(-0.275958 0.19611 -0.0205137)
(-0.161032 0.171648 -0.0223233)
(-0.0741756 0.154672 -0.0176154)
(-0.0147582 0.118527 -0.0101687)
(0.00379972 0.055407 0.00115888)
(0.00642054 0.0128499 -0.00553189)
(0.0533221 0.0597443 -0.0181527)
(0.118996 0.115992 -0.0193977)
(0.150248 0.17082 -0.013095)
(0.157284 0.232225 -0.0142133)
(0.12397 0.278567 -0.0101971)
(0.0676504 0.319024 -0.00168241)
(0.0314455 0.374988 0.00562013)
(0.00304136 0.41315 0.0116418)
(-0.0319873 0.45371 0.0115555)
(-0.0715809 0.491921 0.0158117)
(-0.10271 0.518523 0.0213059)
(-0.128533 0.540879 0.0282265)
(-0.153405 0.553146 0.0341475)
(-0.177423 0.557068 0.0361513)
(-0.202219 0.554023 0.0368068)
(-0.225061 0.546678 0.035603)
(-0.251291 0.533349 0.0312437)
(-0.272928 0.51948 0.0250723)
(-0.294024 0.49231 0.0101213)
(-0.345812 0.480133 -5.68343e-05)
(-0.318013 0.453623 0.00965931)
(-0.240168 0.354268 0.0178181)
(-0.236793 0.337808 0.0238696)
(-0.265987 0.311497 0.0317194)
(-0.300482 0.297214 0.0364294)
(-0.333366 0.279013 0.0414818)
(-0.35893 0.256535 0.0383307)
(-0.378344 0.232574 0.0240359)
(-0.39602 0.199269 0.00962443)
(-0.399447 0.174756 -0.000118375)
(-0.387141 0.151761 -0.00534215)
(-0.372328 0.138054 -0.0114191)
(-0.346125 0.139863 -0.0188149)
(-0.336713 0.152446 -0.0227713)
(-0.304825 0.190376 -0.0279623)
(-0.196773 0.173592 -0.0264125)
(-0.0896512 0.163637 -0.0244515)
(-0.0198267 0.128163 -0.0135473)
(0.00463825 0.0610849 -0.00098858)
(0.00790028 0.0295181 -0.00848466)
(0.0624298 0.099076 -0.0258412)
(0.137033 0.159631 -0.0251666)
(0.175281 0.213141 -0.015737)
(0.175014 0.264264 -0.0143021)
(0.142215 0.296953 -0.0129735)
(0.101896 0.345879 -0.00227879)
(0.0693286 0.392155 0.010044)
(0.038455 0.428947 0.0164527)
(0.0145245 0.455698 0.0266787)
(-0.0125322 0.477285 0.0236168)
(-0.0433213 0.490496 0.0337676)
(-0.06618 0.498344 0.0386344)
(-0.0888983 0.48896 0.0439728)
(-0.112815 0.473596 0.0431506)
(-0.139242 0.451201 0.0399903)
(-0.166869 0.427501 0.0348254)
(-0.196866 0.402727 0.0277859)
(-0.227042 0.387475 0.0195715)
(-0.262198 0.370321 0.00461143)
(-0.317876 0.357095 -0.0073756)
(-0.340052 0.357575 -0.0071657)
(-0.270877 0.294595 0.0067596)
(-0.234452 0.283063 0.00942514)
(-0.267502 0.266115 0.0197636)
(-0.301893 0.257588 0.0274305)
(-0.34132 0.238353 0.0362279)
(-0.374032 0.220784 0.0317654)
(-0.401937 0.190489 0.0245307)
(-0.418119 0.163849 0.0096621)
(-0.423596 0.135683 0.0112049)
(-0.420028 0.11452 0.0176386)
(-0.400631 0.0949957 0.014875)
(-0.377371 0.0968596 0.00904094)
(-0.357694 0.110667 -0.0126086)
(-0.327373 0.158929 -0.0239602)
(-0.227061 0.171349 -0.024594)
(-0.106765 0.163395 -0.0215236)
(-0.0255998 0.136005 -0.012544)
(0.00580648 0.0652012 0.000189466)
(0.00878333 0.0503175 -0.0111662)
(0.0700858 0.140642 -0.0321281)
(0.154307 0.205275 -0.0312037)
(0.19558 0.252681 -0.0176421)
(0.192711 0.288931 -0.0120065)
(0.168714 0.324063 -0.0127649)
(0.140085 0.36486 -0.00233655)
(0.109406 0.401425 0.00548021)
(0.0841056 0.429631 0.0136891)
(0.0562612 0.450113 0.0289884)
(0.0280653 0.454811 0.037476)
(0.011442 0.455596 0.0471536)
(-0.0122425 0.442471 0.0469776)
(-0.0418498 0.421456 0.0501256)
(-0.0683197 0.393071 0.0471819)
(-0.0993615 0.362069 0.0399633)
(-0.132333 0.33195 0.0315791)
(-0.165552 0.305706 0.0233773)
(-0.200214 0.29155 0.0142651)
(-0.241112 0.276058 0.00258977)
(-0.292961 0.27004 -0.00681288)
(-0.329973 0.276103 -0.0109964)
(-0.273958 0.264684 0.000312377)
(-0.228678 0.24839 0.00016562)
(-0.256045 0.236195 0.01237)
(-0.294632 0.223556 0.0213256)
(-0.338886 0.207511 0.0302546)
(-0.376719 0.184449 0.0292155)
(-0.408355 0.157864 0.0188408)
(-0.431827 0.128012 0.0304563)
(-0.446149 0.0934932 0.0315733)
(-0.448319 0.065104 0.0189839)
(-0.43559 0.0513546 0.0135828)
(-0.402378 0.0477617 0.0065027)
(-0.365299 0.063326 8.0511e-05)
(-0.334629 0.108579 -0.0215349)
(-0.250705 0.150655 -0.0283285)
(-0.124544 0.159322 -0.0234345)
(-0.0284108 0.139641 -0.0150157)
(0.00493994 0.069167 -0.00140016)
(0.00938538 0.0703152 -0.0117207)
(0.0762742 0.182721 -0.0359036)
(0.166273 0.249464 -0.034236)
(0.208355 0.285207 -0.0175659)
(0.212722 0.31428 -0.00983344)
(0.198086 0.346042 -0.00649731)
(0.17517 0.377241 -0.00497107)
(0.148275 0.401352 0.00862637)
(0.121773 0.420685 0.0131222)
(0.0978133 0.428938 0.0255899)
(0.0750528 0.431211 0.0363093)
(0.0471116 0.419703 0.052111)
(0.0218886 0.392794 0.0553273)
(-0.00243646 0.358965 0.0549283)
(-0.0343527 0.327303 0.0474631)
(-0.069162 0.295101 0.0365127)
(-0.106623 0.268025 0.0254996)
(-0.139464 0.247111 0.016939)
(-0.178358 0.238072 0.00698155)
(-0.22285 0.227585 -0.000583434)
(-0.26848 0.226545 -0.0077953)
(-0.300235 0.231491 -0.010711)
(-0.254334 0.250845 -0.00269263)
(-0.213263 0.230523 -0.00343044)
(-0.237933 0.210624 0.00751165)
(-0.273538 0.192713 0.0170215)
(-0.32086 0.173187 0.0238293)
(-0.362272 0.149718 0.0202337)
(-0.398509 0.121796 0.0373784)
(-0.431501 0.086795 0.0449464)
(-0.453311 0.053565 0.0406916)
(-0.455033 0.0278704 0.0516666)
(-0.44795 0.00427761 0.0403358)
(-0.432413 0.000561622 0.0339427)
(-0.396152 0.0104262 0.0250488)
(-0.351652 0.0568667 0.00378467)
(-0.263225 0.11112 -0.0247886)
(-0.138389 0.14792 -0.0248504)
(-0.0344049 0.138084 -0.0141998)
(0.00607948 0.0726002 -0.00135653)
(0.00993276 0.0894153 -0.0113871)
(0.0792625 0.221122 -0.0388429)
(0.169976 0.288658 -0.0375008)
(0.218607 0.317351 -0.0189087)
(0.234034 0.339684 -0.0060291)
(0.226769 0.362691 0.000378604)
(0.205932 0.384226 0.00480443)
(0.181271 0.397744 0.00592588)
(0.160058 0.406959 0.0163413)
(0.136705 0.40825 0.0264244)
(0.109985 0.398547 0.0355824)
(0.0834491 0.379389 0.0425255)
(0.0507927 0.350953 0.054925)
(0.0206708 0.314518 0.0549927)
(-0.00765567 0.27498 0.0463362)
(-0.0447513 0.24893 0.0310334)
(-0.0836603 0.223852 0.0192553)
(-0.11603 0.208933 0.0110008)
(-0.154645 0.201626 0.00171912)
(-0.196959 0.197521 -0.00267914)
(-0.235851 0.19707 -0.00789494)
(-0.24887 0.211236 -0.00677334)
(-0.212902 0.242183 -0.00274519)
(-0.197415 0.217111 -0.00287804)
(-0.215041 0.185409 0.00401259)
(-0.247765 0.160359 0.0119653)
(-0.291731 0.133705 0.0166562)
(-0.334537 0.110811 0.0290008)
(-0.378487 0.0779043 0.0419768)
(-0.415975 0.0466878 0.0461479)
(-0.43849 0.013688 0.0659067)
(-0.464504 -0.0241586 0.0470318)
(-0.472233 -0.0657562 0.0356159)
(-0.454461 -0.0867841 0.0150815)
(-0.414652 -0.0742105 0.00441716)
(-0.370148 -0.0251393 0.00976424)
(-0.284522 0.0599532 -0.00251041)
(-0.152378 0.116111 -0.0310873)
(-0.0393527 0.130281 -0.0144108)
(0.0065374 0.0733678 -0.00296496)
(0.00875994 0.0970479 -0.0103707)
(0.0778306 0.246235 -0.0409852)
(0.170827 0.317812 -0.0417942)
(0.225301 0.343634 -0.0220834)
(0.251233 0.357376 -0.00367573)
(0.25107 0.367216 0.00650391)
(0.23235 0.378661 0.0124219)
(0.209501 0.386729 0.0161092)
(0.189544 0.391853 0.0188338)
(0.166847 0.385978 0.0229652)
(0.14329 0.370981 0.0285999)
(0.112006 0.346024 0.0393027)
(0.078303 0.313322 0.0413414)
(0.0420875 0.27939 0.0485773)
(0.011999 0.242173 0.043287)
(-0.0206724 0.211926 0.0237464)
(-0.0621496 0.193752 0.0134277)
(-0.0904169 0.182903 0.00623121)
(-0.125887 0.174952 -0.00193572)
(-0.164726 0.171456 -0.0043459)
(-0.188036 0.176342 -0.00478332)
(-0.181514 0.20623 0.000167585)
(-0.167214 0.217399 -0.000926095)
(-0.178807 0.191508 -0.000411197)
(-0.195257 0.158731 0.00219768)
(-0.217625 0.121948 0.00834987)
(-0.255267 0.0969049 0.0121948)
(-0.296703 0.0667588 0.030233)
(-0.340242 0.0393758 0.0384078)
(-0.378296 0.00904591 0.0597786)
(-0.4263 -0.0332154 0.0448282)
(-0.468097 -0.0870063 0.0381097)
(-0.486056 -0.130772 0.0247378)
(-0.474381 -0.163146 0.0141873)
(-0.433866 -0.166589 -0.004834)
(-0.372518 -0.124634 -0.00680475)
(-0.290706 -0.0219397 -0.000216531)
(-0.171516 0.0761424 -0.0168021)
(-0.0434522 0.116996 -0.0196946)
(0.00720398 0.0743355 -0.00194464)
(0.00737214 0.105953 -0.00932165)
(0.0755361 0.269927 -0.0411054)
(0.169264 0.346107 -0.0435249)
(0.230197 0.36958 -0.0233787)
(0.262429 0.375589 -0.00297002)
(0.26816 0.373129 0.0115424)
(0.257775 0.375722 0.0203624)
(0.240547 0.377754 0.0229984)
(0.221542 0.37545 0.0255051)
(0.196982 0.363257 0.02696)
(0.169141 0.343428 0.0285938)
(0.137697 0.313536 0.0261645)
(0.100767 0.282189 0.0281416)
(0.0629671 0.246078 0.0282621)
(0.0275715 0.219902 0.0307699)
(-0.00309488 0.187163 0.0170967)
(-0.0335396 0.171601 0.00752759)
(-0.0637695 0.163771 0.00102949)
(-0.0964369 0.150302 -0.00405231)
(-0.121851 0.155421 -0.00293432)
(-0.120755 0.173004 0.00172881)
(-0.120948 0.189079 0.00306337)
(-0.133134 0.179286 0.0037638)
(-0.153836 0.15673 0.0027461)
(-0.17377 0.130345 0.00331402)
(-0.18968 0.0918454 0.00516366)
(-0.217406 0.0626926 0.0165203)
(-0.25374 0.0320395 0.0257387)
(-0.290838 0.00343848 0.0450536)
(-0.343838 -0.0367787 0.0391157)
(-0.399375 -0.0902667 0.0375048)
(-0.447394 -0.142696 0.0281157)
(-0.477621 -0.195866 0.0179708)
(-0.482126 -0.236779 0.00329525)
(-0.448635 -0.256037 -0.0106873)
(-0.383232 -0.224388 -0.0198692)
(-0.292701 -0.134853 -0.0186902)
(-0.177757 0.0125144 0.000647469)
(-0.0535694 0.09233 -0.027044)
(0.00658394 0.0744004 -0.00332259)
(0.00526162 0.0880425 -0.00752048)
(0.0702152 0.266194 -0.0396939)
(0.164225 0.348271 -0.0418408)
(0.229962 0.371029 -0.0222465)
(0.269123 0.370812 0.000738893)
(0.283605 0.363684 0.0146964)
(0.279895 0.36222 0.0200843)
(0.262456 0.356937 0.0229975)
(0.241875 0.350377 0.0247096)
(0.217992 0.337593 0.0250079)
(0.191896 0.317523 0.0241475)
(0.159615 0.290681 0.0204175)
(0.122632 0.256951 0.0166116)
(0.0867486 0.223982 0.0103059)
(0.050393 0.196628 0.0148536)
(0.0172484 0.173228 0.00698929)
(-0.00759012 0.158692 0.0016139)
(-0.036779 0.148181 -0.00436096)
(-0.0572641 0.146429 -0.00247972)
(-0.0599852 0.157512 0.000248375)
(-0.0666233 0.166003 0.00371643)
(-0.0823951 0.155667 0.00693363)
(-0.10114 0.141892 0.00730677)
(-0.124117 0.121848 0.00642551)
(-0.149228 0.102516 0.00568347)
(-0.165446 0.0696201 0.00738628)
(-0.18474 0.0338807 0.0156646)
(-0.213975 0.00400224 0.0293437)
(-0.255412 -0.0328004 0.0280877)
(-0.309323 -0.0779198 0.0317638)
(-0.364463 -0.125951 0.0288465)
(-0.416881 -0.182642 0.0251488)
(-0.454641 -0.241556 0.0160139)
(-0.470682 -0.296523 0.0030175)
(-0.449121 -0.329077 -0.0134712)
(-0.390769 -0.318847 -0.0272137)
(-0.287788 -0.238482 -0.0315256)
(-0.176365 -0.0856685 -0.0202003)
(-0.0566891 0.0493928 -0.0193012)
(0.00861678 0.0634068 -0.00890039)
(0.00400872 0.102513 -0.00648932)
(0.0659686 0.286118 -0.03721)
(0.158773 0.372163 -0.0420525)
(0.230572 0.39333 -0.0211136)
(0.279114 0.388391 0.00336137)
(0.304355 0.373681 0.0139606)
(0.305956 0.361873 0.0198405)
(0.291454 0.349348 0.0210575)
(0.273902 0.336999 0.0189188)
(0.248188 0.316362 0.0154763)
(0.219034 0.290103 0.0123171)
(0.182888 0.259644 0.00758781)
(0.141707 0.230525 0.00416275)
(0.104925 0.202818 0.000977158)
(0.0699429 0.185209 0.00125389)
(0.0435036 0.174291 -0.00160614)
(0.0205962 0.168443 -0.00471704)
(0.00264564 0.163402 -0.00344108)
(-0.005863 0.167177 -0.000909583)
(-0.017134 0.16162 0.00210232)
(-0.0335445 0.145314 0.00541101)
(-0.0530209 0.127724 0.00895812)
(-0.072351 0.10992 0.00937109)
(-0.0949601 0.091792 0.00871973)
(-0.122775 0.0743751 0.00916068)
(-0.147239 0.0544439 0.00429125)
(-0.161449 0.0171018 0.00693759)
(-0.185716 -0.0170328 0.0100546)
(-0.22329 -0.0615815 0.0161904)
(-0.269391 -0.106182 0.018314)
(-0.32298 -0.158014 0.019737)
(-0.375956 -0.218149 0.0174991)
(-0.418421 -0.28359 0.0117472)
(-0.44411 -0.350603 0.000536948)
(-0.435779 -0.400408 -0.0153088)
(-0.387486 -0.411041 -0.0321174)
(-0.296195 -0.345552 -0.0481454)
(-0.182167 -0.190328 -0.0354043)
(-0.0578219 0.00532308 -0.00909144)
(0.00615119 0.0658802 -0.0106121)
(-0.00587289 0.0769245 -0.0151293)
(0.0460481 0.270573 -0.0400956)
(0.140626 0.366507 -0.046377)
(0.219709 0.388743 -0.0273441)
(0.277577 0.384251 -0.00767244)
(0.31097 0.362001 0.00463943)
(0.32045 0.342968 0.0107497)
(0.307031 0.325151 0.011612)
(0.284733 0.31774 0.0109957)
(0.25662 0.311679 0.00801797)
(0.230252 0.304441 0.00616885)
(0.201402 0.289957 0.00326426)
(0.167814 0.272575 0.00149161)
(0.138532 0.251784 9.98179e-05)
(0.111659 0.232333 0.00306379)
(0.0840685 0.219757 -0.00304735)
(0.0617895 0.205479 -0.00895858)
(0.04243 0.189119 -0.00657708)
(0.023552 0.173747 -0.0050082)
(0.00297846 0.151743 -0.000740914)
(-0.0143646 0.128201 0.00465664)
(-0.0307543 0.105601 0.00801759)
(-0.0493284 0.0856459 0.00895031)
(-0.0700185 0.0669124 0.00945998)
(-0.0934651 0.0491414 0.00500641)
(-0.123159 0.032547 0.00168386)
(-0.146816 0.00803705 0.00207617)
(-0.170155 -0.0280865 -0.00082873)
(-0.205 -0.0660771 0.00225372)
(-0.245906 -0.109242 0.00703352)
(-0.293525 -0.15896 0.0111531)
(-0.342161 -0.222927 0.0125406)
(-0.383666 -0.296403 0.00933431)
(-0.411734 -0.376452 0.000210586)
(-0.410236 -0.444408 -0.0136491)
(-0.369379 -0.476058 -0.0321872)
(-0.276909 -0.440362 -0.0551173)
(-0.163604 -0.307185 -0.0575911)
(-0.0436461 -0.0903879 -0.021919)
(0.0101382 0.032256 -0.00830207)
(-0.00720463 0.175465 -0.00913087)
(0.0413068 0.388061 -0.0243753)
(0.128834 0.488076 -0.0348601)
(0.209397 0.51179 -0.0150334)
(0.274267 0.500465 -0.00614638)
(0.315985 0.470735 0.0105509)
(0.33634 0.435658 0.0142586)
(0.34011 0.420993 0.0156955)
(0.338934 0.42387 0.0103552)
(0.318625 0.421921 0.0044207)
(0.287238 0.41092 -0.0017189)
(0.246423 0.386723 -0.00593878)
(0.200883 0.35367 -0.00878183)
(0.158862 0.318191 -0.00802774)
(0.126025 0.280749 -0.00639998)
(0.100223 0.246578 -0.0024791)
(0.0713427 0.216815 -0.00804878)
(0.0516163 0.188743 -0.0083755)
(0.0384133 0.158647 -0.0061864)
(0.0191315 0.133138 -0.00338196)
(0.00156355 0.112373 0.00141113)
(-0.0149157 0.0877877 0.00634014)
(-0.0305597 0.0670753 0.0076699)
(-0.0502081 0.0460892 0.0106747)
(-0.0732625 0.0271221 0.00294181)
(-0.0990369 0.00917014 0.00612389)
(-0.12422 -0.00381023 0.00542881)
(-0.149385 -0.027316 0.00188431)
(-0.176662 -0.061458 -0.00383116)
(-0.212621 -0.111175 -0.00858049)
(-0.259796 -0.167473 -0.0096465)
(-0.309958 -0.233079 -0.00882145)
(-0.354175 -0.304219 -0.00776876)
(-0.386873 -0.389375 -0.0120396)
(-0.390894 -0.470246 -0.0242631)
(-0.366983 -0.533704 -0.0537674)
(-0.301253 -0.524344 -0.0776436)
(-0.194783 -0.399023 -0.0744299)
(-0.0585025 -0.152143 -0.0441659)
(0.0100943 0.0371051 -0.00659645)
(-0.0186797 0.257868 -0.0219201)
(0.0171161 0.499292 -0.0443167)
(0.106027 0.609801 -0.0531432)
(0.190052 0.651906 -0.0406093)
(0.260183 0.645098 -0.0297065)
(0.306054 0.618852 -0.0151479)
(0.34372 0.577046 -0.00466302)
(0.370661 0.549113 -0.00351996)
(0.364472 0.526917 -0.00768962)
(0.327382 0.495949 -0.00996689)
(0.283637 0.45741 -0.0103491)
(0.236561 0.412108 -0.0106646)
(0.193186 0.362821 -0.00965762)
(0.157852 0.316565 -0.00840699)
(0.128187 0.272543 -0.00640124)
(0.103698 0.233774 -0.00387929)
(0.0853362 0.198675 0.000227325)
(0.064566 0.171954 -0.00488633)
(0.046912 0.144338 -0.00552652)
(0.0346019 0.118246 -0.00365656)
(0.0166118 0.0941496 -0.00146895)
(-0.00109092 0.0745842 0.00357485)
(-0.016678 0.0492238 0.00664528)
(-0.0352573 0.0305832 0.00763415)
(-0.0533802 0.0119298 0.00635466)
(-0.0726278 -0.00366096 0.00999547)
(-0.0944321 -0.0173201 0.00970507)
(-0.127547 -0.0325109 0.00556466)
(-0.172037 -0.0554435 0.00407826)
(-0.212211 -0.095287 0.00510748)
(-0.247188 -0.14574 0.00344112)
(-0.275225 -0.217975 -0.00190749)
(-0.303855 -0.311073 -0.0125651)
(-0.332312 -0.437581 -0.0230335)
(-0.349416 -0.557129 -0.0334369)
(-0.338681 -0.665492 -0.0549079)
(-0.271194 -0.699147 -0.0802103)
(-0.172575 -0.593455 -0.0889673)
(-0.0546151 -0.311265 -0.0676367)
(0.0108704 -0.0189793 -0.0102192)
(-0.000247643 0.223361 0.00180064)
(0.0367249 0.464764 -0.0342836)
(0.108527 0.589031 -0.0458924)
(0.190157 0.643701 -0.0414091)
(0.258276 0.646494 -0.0315158)
(0.306929 0.625257 -0.0215437)
(0.344184 0.589044 -0.0137973)
(0.369585 0.54921 -0.0064177)
(0.365994 0.508098 -0.00724209)
(0.330746 0.470536 -0.00646834)
(0.287277 0.4321 -0.00597662)
(0.238932 0.391435 -0.00486831)
(0.194405 0.347242 -0.0044017)
(0.157503 0.305035 -0.00308039)
(0.130225 0.261768 -0.00351483)
(0.110548 0.223439 -0.00155237)
(0.0908183 0.185612 -0.00161591)
(0.0765201 0.154088 0.000731294)
(0.0618968 0.130008 0.000684154)
(0.0436718 0.104431 -0.00319201)
(0.0304796 0.0835368 -0.000893751)
(0.0110972 0.0608861 0.00107937)
(-0.00446424 0.0425034 0.00877817)
(-0.0171078 0.0214109 0.00756767)
(-0.0350992 0.0041453 0.00670941)
(-0.0523071 -0.0117381 0.00982696)
(-0.070631 -0.0283243 0.011231)
(-0.0952516 -0.0453082 0.0102415)
(-0.132587 -0.0570282 0.00653918)
(-0.174653 -0.0707946 0.00511072)
(-0.224965 -0.0966813 0.00462331)
(-0.283154 -0.146657 0.0060298)
(-0.342768 -0.22337 0.00847114)
(-0.368825 -0.338744 0.00658354)
(-0.360874 -0.46636 -0.00199534)
(-0.341624 -0.606749 -0.0153814)
(-0.276239 -0.695668 -0.0321638)
(-0.166078 -0.679841 -0.0561952)
(-0.0315655 -0.425872 -0.0553095)
(0.0249999 -0.0615001 -0.00140382)
(-0.00013483 0.240685 0.00063782)
(0.036224 0.457268 -0.0283699)
(0.103436 0.579947 -0.0387611)
(0.17907 0.63618 -0.0364315)
(0.245935 0.64158 -0.0221471)
(0.295759 0.619456 -0.0158062)
(0.337098 0.580995 -0.00654975)
(0.364229 0.540815 -0.00115062)
(0.361509 0.494636 -0.000910499)
(0.328822 0.455442 -0.000302061)
(0.284238 0.414479 -6.58314e-05)
(0.234901 0.372303 0.000119703)
(0.192807 0.330183 -7.22094e-05)
(0.159396 0.290399 -0.000578258)
(0.132816 0.250876 -0.000820304)
(0.112016 0.212064 0.000140368)
(0.0979685 0.173534 0.00143312)
(0.0880481 0.140357 0.00287004)
(0.0732353 0.113107 0.00291226)
(0.0611635 0.0903954 0.0054474)
(0.0435402 0.0710395 0.0017877)
(0.0264948 0.0522915 0.00148253)
(0.0116201 0.0337725 0.00529002)
(-0.00557762 0.0173338 0.00631405)
(-0.0169383 -0.00405753 0.00739979)
(-0.0323846 -0.0195973 0.00859864)
(-0.0499914 -0.0387945 0.0101862)
(-0.0698656 -0.0585036 0.0111384)
(-0.0981284 -0.0768562 0.0115219)
(-0.132814 -0.0948971 0.0101144)
(-0.175139 -0.114546 0.0103952)
(-0.215568 -0.146344 0.0102571)
(-0.268271 -0.184295 0.0104192)
(-0.31121 -0.249195 0.00987349)
(-0.341613 -0.345157 0.00606182)
(-0.357209 -0.486382 0.00067818)
(-0.327026 -0.595412 -0.0121371)
(-0.228318 -0.628869 -0.0348391)
(-0.057336 -0.420885 -0.0488261)
(0.027879 -0.0230506 -0.0224693)
(0.00644225 0.21289 0.000510748)
(0.0436321 0.409942 -0.0235261)
(0.103625 0.539671 -0.0324211)
(0.176543 0.600595 -0.0315123)
(0.241302 0.615769 -0.0189839)
(0.290948 0.596985 -0.0117405)
(0.334349 0.561145 -0.0023738)
(0.35918 0.517979 0.00214997)
(0.357098 0.468299 0.00290152)
(0.327688 0.426077 0.00316282)
(0.282428 0.384401 0.00374032)
(0.235523 0.345721 0.00413515)
(0.196262 0.308867 0.00346694)
(0.163688 0.272609 0.00298121)
(0.137659 0.235634 0.00217611)
(0.117995 0.199419 0.00266094)
(0.101881 0.164807 0.00375844)
(0.0959432 0.130277 0.00618857)
(0.0882978 0.102398 0.00620628)
(0.0743997 0.07739 0.0054648)
(0.0622345 0.0616117 0.00601236)
(0.0418023 0.0427544 0.00525543)
(0.0275989 0.0275729 0.00387193)
(0.0122591 0.0107897 0.00344319)
(-0.00358343 -0.00519617 0.00715117)