/*--------------------------------*- C++ -*----------------------------------*\
| =========                 |                                                 |
| \\      /  F ield         | OpenFOAM: The Open Source CFD Toolbox           |
|  \\    /   O peration     | Version:  v1806                                 |
|   \\  /    A nd           | Web:      www.OpenFOAM.com                      |
|    \\/     M anipulation  |                                                 |
\*---------------------------------------------------------------------------*/
FoamFile
{
    version     2.0;
    format      ascii;
    class       volScalarField;
    location    "0.033";
    object      p;
}
// * * * * * * * * * * * * * * * * * * * * * * * * * * * * * * * * * * * * * //

dimensions      [0 2 -2 0 0 0 0];


internalField   nonuniform List<scalar> 
64000
(
-9.42797e-06
-0.0857067
-0.230469
-0.302855
-0.28483
-0.318649
-0.359789
-0.383312
-0.41039
-0.439065
-0.443499
-0.497644
-0.515274
-0.573075
-0.598645
-0.621741
-0.644
-0.654525
-0.635134
-0.836674
-0.469207
-1.16979
-1.14543
-1.14747
-1.20076
-1.03717
-1.04751
-0.91365
-0.969657
-0.880916
-0.975444
-0.99497
-1.08657
-1.11198
-1.17888
-1.19098
-1.24351
-1.22964
-1.24304
-1.23143
-0.111045
-0.196647
-0.277975
-0.320646
-0.293171
-0.304923
-0.335606
-0.358984
-0.386979
-0.438231
-0.459689
-0.495472
-0.471311
-0.46741
-0.46663
-0.472767
-0.581107
-0.576113
-0.574753
-0.643956
-0.45328
-1.00977
-1.12852
-1.07325
-1.13846
-0.980358
-0.998954
-0.89149
-0.916574
-0.877109
-0.941634
-0.950209
-1.0557
-1.05669
-1.1377
-1.13394
-1.20432
-1.20433
-1.22956
-1.22619
-0.239648
-0.274167
-0.313059
-0.346403
-0.313674
-0.326361
-0.382916
-0.392121
-0.439297
-0.409659
-0.390311
-0.410427
-0.418949
-0.569186
-0.632854
-0.684729
-0.710247
-0.711798
-0.718762
-0.801414
-0.714806
-1.24372
-1.4936
-1.46998
-1.59832
-1.47851
-1.53294
-1.44504
-1.44688
-1.38035
-1.34424
-1.31183
-1.27678
-1.25814
-1.23587
-1.19052
-1.22536
-1.21906
-1.23264
-1.23696
-0.339466
-0.34745
-0.363672
-0.376202
-0.358575
-0.287702
-0.35049
-0.326937
-0.337644
-0.361584
-0.458551
-0.62724
-0.716053
-0.757
-0.753716
-0.782699
-0.836693
-0.84766
-0.875178
-0.960628
-0.933555
-1.4636
-1.81966
-1.82191
-1.9884
-1.90586
-1.96958
-1.90712
-1.89871
-1.82791
-1.77098
-1.62678
-1.49013
-1.33814
-1.28907
-1.18735
-1.22987
-1.2099
-1.23357
-1.24186
-0.377613
-0.386078
-0.396128
-0.389184
-0.408487
-0.296041
-0.333735
-0.371315
-0.60489
-0.798384
-0.938462
-0.97398
-0.970866
-1.06354
-1.07406
-1.11014
-1.13974
-1.14361
-1.18341
-1.29288
-1.27084
-1.79433
-2.17534
-2.20302
-2.37273
-2.30297
-2.37071
-2.30467
-2.31801
-2.25145
-2.20342
-2.09654
-1.98247
-1.73678
-1.47771
-1.21828
-1.29662
-1.28414
-1.26929
-1.27892
-0.456563
-0.469654
-0.473457
-0.525977
-0.616078
-0.578233
-0.916294
-0.975343
-1.1508
-1.18891
-1.23692
-1.27948
-1.28545
-1.31213
-1.27328
-1.2561
-1.3406
-1.30875
-1.32634
-1.37702
-1.37095
-1.90897
-2.34798
-2.36081
-2.53338
-2.47848
-2.53462
-2.50956
-2.5038
-2.46572
-2.40195
-2.30538
-2.20886
-2.0449
-1.75959
-1.28522
-1.38857
-1.32716
-1.31142
-1.32292
-0.501267
-0.537687
-0.512731
-0.638234
-0.702188
-0.814099
-1.21185
-1.21386
-1.38027
-1.45549
-1.52037
-1.56896
-1.60522
-1.65724
-1.64592
-1.63404
-1.59802
-1.49623
-1.60909
-1.66805
-1.73007
-1.7668
-2.3486
-2.43875
-2.59081
-2.5834
-2.64692
-2.63989
-2.66084
-2.63203
-2.56161
-2.46417
-2.36763
-2.1834
-1.92885
-1.39572
-1.40851
-1.38696
-1.35808
-1.36999
-0.547059
-0.560683
-0.592702
-0.733806
-0.808889
-1.16592
-1.34671
-1.44237
-1.5687
-1.65478
-1.7198
-1.79786
-1.82909
-1.89232
-1.91804
-1.93406
-1.93609
-1.80252
-1.93813
-1.88742
-1.93925
-1.6715
-1.97636
-2.34907
-2.54741
-2.61058
-2.70664
-2.73046
-2.77432
-2.76258
-2.7097
-2.60986
-2.49196
-2.30643
-2.13289
-1.53784
-1.4379
-1.44375
-1.40632
-1.42669
-0.620607
-0.593643
-0.656405
-0.786076
-1.01259
-1.32949
-1.46291
-1.58996
-1.68516
-1.8143
-1.8935
-1.9793
-2.04247
-2.12754
-2.19326
-2.2593
-2.30473
-2.23989
-2.30883
-2.17492
-2.1042
-1.69391
-1.53188
-2.02567
-2.48892
-2.62417
-2.76734
-2.79969
-2.87438
-2.86403
-2.80289
-2.70883
-2.58343
-2.38724
-2.20202
-1.7651
-1.47234
-1.49876
-1.4619
-1.48098
-0.643074
-0.638297
-0.706442
-0.928206
-1.19371
-1.44363
-1.57244
-1.70694
-1.80102
-1.90958
-2.00549
-2.10033
-2.15989
-2.24927
-2.33154
-2.42354
-2.50003
-2.5055
-2.56533
-2.45547
-2.10003
-1.56341
-1.2268
-1.61345
-2.43685
-2.67901
-2.86441
-2.88371
-2.9727
-2.95992
-2.9421
-2.82696
-2.69577
-2.53271
-2.30859
-1.98443
-1.54925
-1.5544
-1.52489
-1.55131
-0.698519
-0.683888
-0.821038
-1.06598
-1.30376
-1.50831
-1.66016
-1.79217
-1.89199
-2.01151
-2.07246
-2.16381
-2.23212
-2.30499
-2.37499
-2.48854
-2.5243
-2.58211
-2.61468
-2.3546
-1.92023
-1.37052
-1.08422
-1.27582
-2.07296
-2.76213
-2.863
-2.99222
-2.99901
-3.03206
-2.98565
-2.92724
-2.75121
-2.56996
-2.3624
-2.14146
-1.68716
-1.59328
-1.5978
-1.60833
-0.75946
-0.768678
-0.918883
-1.14528
-1.36099
-1.56675
-1.71851
-1.85126
-1.95754
-2.04714
-2.11984
-2.19493
-2.24016
-2.28728
-2.36858
-2.4681
-2.38021
-2.70239
-2.26364
-1.94645
-1.79458
-1.47292
-1.10383
-1.26743
-1.70156
-2.73494
-3.02881
-3.05611
-3.12298
-3.09577
-3.10128
-2.98655
-2.89646
-2.70391
-2.47935
-2.22269
-1.86326
-1.66674
-1.66422
-1.68467
-0.862335
-0.867922
-1.01784
-1.21361
-1.41915
-1.61163
-1.76301
-1.88763
-1.97824
-2.06404
-2.11768
-2.18189
-2.22603
-2.27488
-2.33221
-2.37173
-2.40612
-2.31834
-1.8612
-1.67264
-1.56893
-1.50499
-1.25279
-1.33307
-1.59776
-2.11562
-3.09151
-3.12753
-3.17904
-3.18477
-3.12712
-3.09923
-2.9267
-2.79053
-2.55239
-2.35005
-1.98515
-1.77054
-1.72365
-1.76394
-0.907028
-0.91742
-1.05553
-1.23132
-1.42665
-1.61179
-1.77236
-1.87337
-1.96876
-2.04431
-2.09016
-2.1468
-2.15678
-2.18648
-2.20252
-2.3201
-2.29015
-1.83036
-1.64925
-1.55048
-1.45972
-1.37653
-1.3278
-1.45833
-1.62036
-1.86084
-2.58857
-3.12726
-3.10104
-3.24449
-3.24488
-3.17261
-3.04823
-2.85624
-2.65293
-2.39843
-2.14393
-1.87948
-1.79062
-1.83949
-1.05325
-1.04902
-1.16722
-1.31947
-1.50123
-1.66165
-1.7951
-1.8916
-1.96015
-2.00342
-2.01526
-2.06829
-2.10502
-2.15577
-2.17515
-1.93348
-1.72369
-1.51137
-1.42752
-1.3793
-1.32929
-1.35299
-1.29082
-1.53396
-1.69494
-1.8794
-2.10011
-3.03287
-3.12997
-3.2563
-3.28957
-3.23007
-3.09039
-2.93539
-2.70806
-2.49788
-2.2307
-2.03653
-1.89465
-1.9525
-0.957315
-0.982245
-1.09876
-1.24781
-1.42197
-1.57257
-1.72798
-1.80031
-1.87098
-1.926
-1.96715
-2.03895
-1.97776
-1.7453
-1.42794
-1.41944
-1.20999
-1.26643
-1.27465
-1.34182
-1.33622
-1.39149
-1.37941
-1.49453
-1.76559
-1.84551
-1.99037
-2.17675
-3.02852
-3.21818
-3.31664
-3.26827
-3.1346
-2.96007
-2.73743
-2.52297
-2.28077
-2.12768
-1.9825
-2.01317
-1.12893
-1.11579
-1.20544
-1.31865
-1.47576
-1.60655
-1.74447
-1.80008
-1.84242
-1.80187
-1.60014
-1.37799
-1.16602
-1.06099
-1.08034
-1.18169
-1.15963
-1.20844
-1.28067
-1.33587
-1.38374
-1.45621
-1.50103
-1.53998
-1.82844
-1.92158
-2.09551
-2.34318
-2.6143
-2.99763
-3.18781
-3.21191
-3.14243
-3.04677
-2.86654
-2.67785
-2.45924
-2.29874
-2.12193
-2.16826
-0.762162
-0.762326
-0.855206
-0.970358
-1.15617
-1.27245
-1.43795
-1.38399
-1.21549
-1.06669
-0.997229
-1.04348
-1.02481
-1.0266
-1.03151
-1.09775
-1.08466
-1.16024
-1.21117
-1.3024
-1.34404
-1.42452
-1.49434
-1.54157
-1.80382
-1.88882
-2.02345
-2.15804
-2.43003
-2.65317
-3.11506
-3.06543
-2.91754
-2.73704
-2.54907
-2.41853
-2.28422
-2.24138
-2.19857
-2.21203
-0.808969
-0.767154
-0.814656
-0.856432
-0.969566
-1.03
-1.15362
-1.04683
-1.09063
-1.0666
-1.06213
-1.03344
-1.01674
-0.999003
-0.998558
-1.02085
-1.08509
-1.10525
-1.19046
-1.27584
-1.32256
-1.40022
-1.48215
-1.52259
-1.79098
-1.89158
-2.0248
-2.17877
-2.32526
-2.47913
-2.39897
-2.78976
-3.26026
-3.31313
-3.18196
-3.01095
-2.76354
-2.53251
-2.30492
-2.3009
-0.707991
-0.660461
-0.692611
-0.755802
-0.878277
-0.941675
-1.0675
-0.977472
-1.01829
-1.01434
-1.04639
-1.04442
-1.02595
-0.991564
-0.981421
-0.978792
-1.00568
-1.06739
-1.14295
-1.22512
-1.31845
-1.38176
-1.46462
-1.51941
-1.74035
-1.8647
-1.98831
-2.13561
-2.33999
-2.44828
-2.51982
-2.47151
-2.41497
-2.51948
-2.65687
-2.67951
-2.68502
-2.57977
-2.61563
-2.57055
-0.789142
-0.753114
-0.760969
-0.789375
-0.874886
-0.931338
-1.02897
-1.001
-1.0561
-1.06937
-1.10408
-1.09511
-1.0756
-1.02392
-0.983823
-0.953631
-1.0033
-1.04855
-1.14569
-1.20647
-1.29985
-1.37178
-1.46267
-1.49934
-1.70113
-1.82308
-1.9721
-2.12814
-2.28181
-2.40967
-2.45732
-2.50186
-2.52599
-2.48746
-2.38078
-2.27209
-2.14315
-2.08348
-2.01279
-2.03509
-0.794872
-0.775807
-0.799766
-0.832953
-0.913085
-0.975658
-1.05649
-1.06192
-1.10542
-1.13044
-1.16962
-1.16736
-1.13158
-1.09559
-1.05957
-0.999249
-0.976933
-1.03056
-1.08482
-1.17633
-1.26727
-1.37188
-1.40162
-1.50775
-1.64843
-1.82294
-1.96536
-2.11245
-2.26501
-2.39525
-2.48575
-2.51608
-2.56466
-2.50804
-2.52314
-2.43156
-2.38549
-2.23713
-2.25166
-2.31871
-0.835495
-0.815252
-0.83226
-0.851587
-0.926193
-0.976883
-1.05324
-1.09454
-1.14255
-1.1907
-1.23562
-1.22914
-1.21393
-1.16154
-1.08662
-0.995716
-0.940983
-0.986026
-1.08361
-1.16531
-1.23965
-1.3703
-1.44331
-1.52629
-1.65633
-1.79435
-1.92502
-2.06048
-2.17679
-2.27068
-2.36098
-2.4026
-2.47727
-2.48119
-2.52888
-2.46562
-2.44328
-2.29023
-2.21099
-2.19024
-0.898909
-0.85756
-0.916936
-0.915205
-0.996868
-1.04041
-1.10954
-1.15964
-1.21035
-1.26578
-1.31484
-1.33039
-1.31871
-1.27646
-1.20811
-1.1341
-1.11111
-1.34854
-1.21898
-1.22574
-1.28712
-1.37562
-1.46395
-1.58566
-1.65414
-1.80333
-1.92954
-2.06224
-2.18031
-2.29178
-2.40287
-2.4598
-2.56447
-2.55037
-2.64715
-2.57333
-2.62617
-2.45524
-2.46119
-2.45118
-0.946815
-0.895894
-0.969969
-0.960083
-1.04528
-1.07867
-1.15217
-1.20453
-1.26393
-1.33004
-1.39226
-1.42464
-1.43724
-1.4325
-1.42046
-1.39677
-1.4238
-1.55451
-1.25232
-1.19873
-1.2707
-1.39162
-1.45629
-1.57492
-1.70154
-1.77304
-1.88682
-1.98457
-2.08491
-2.15099
-2.2381
-2.2612
-2.35621
-2.32347
-2.42322
-2.32315
-2.39756
-2.23542
-2.2794
-2.25771
-1.00647
-0.944229
-1.01717
-1.01609
-1.09614
-1.14476
-1.21096
-1.27797
-1.32163
-1.3975
-1.49999
-1.54761
-1.5798
-1.5879
-1.60593
-1.64632
-1.62828
-1.74488
-1.32179
-1.20865
-1.2862
-1.38796
-1.4729
-1.58875
-1.6774
-1.82359
-1.93477
-2.02747
-2.12598
-2.23361
-2.36985
-2.42115
-2.5608
-2.5147
-2.66283
-2.52553
-2.63986
-2.41408
-2.47012
-2.39437
-1.05948
-1.01769
-1.05594
-1.08354
-1.14817
-1.19861
-1.26763
-1.30307
-1.39791
-1.46998
-1.51612
-1.58598
-1.64767
-1.73577
-1.80253
-1.87459
-1.78511
-1.87331
-1.35767
-1.21944
-1.3108
-1.41233
-1.471
-1.58658
-1.6627
-1.7908
-1.92795
-1.96676
-2.09449
-2.14853
-2.23314
-2.20962
-2.30623
-2.21121
-2.36152
-2.19166
-2.3517
-2.11542
-2.2378
-2.20662
-1.10316
-1.08068
-1.05668
-1.13714
-1.18695
-1.25382
-1.31457
-1.39138
-1.48007
-1.56261
-1.64633
-1.71205
-1.77915
-1.81045
-1.845
-1.95018
-1.84999
-1.90707
-1.46245
-1.17236
-1.24235
-1.37267
-1.43892
-1.56932
-1.60888
-1.7909
-1.89906
-1.98624
-2.09323
-2.17405
-2.26601
-2.22178
-2.34457
-2.1707
-2.34766
-2.06581
-2.24357
-1.88681
-1.98567
-1.84707
-1.16204
-1.15747
-1.12167
-1.18035
-1.25261
-1.31544
-1.38199
-1.46944
-1.54932
-1.63518
-1.72025
-1.79823
-1.86355
-1.93744
-1.94698
-2.02686
-1.91955
-2.02424
-1.61129
-1.13943
-1.26324
-1.34436
-1.39143
-1.53527
-1.53069
-1.70646
-1.87071
-1.99362
-2.03406
-2.07452
-2.14853
-2.0805
-2.20446
-2.00598
-2.19141
-1.851
-2.04723
-1.61017
-1.68322
-1.54675
-1.18944
-1.18579
-1.14655
-1.16329
-1.27938
-1.31625
-1.41552
-1.4984
-1.58285
-1.66536
-1.75298
-1.82936
-1.90289
-1.95638
-1.98022
-2.06344
-1.9568
-2.0095
-1.75899
-1.05597
-1.21245
-1.28083
-1.3128
-1.47579
-1.36861
-1.71539
-1.86599
-1.99609
-2.02475
-2.09516
-2.18218
-2.0551
-2.23846
-1.93265
-2.22114
-1.73837
-2.02185
-1.44842
-1.53547
-1.29571
-1.26657
-1.26233
-1.25016
-1.20714
-1.35862
-1.39512
-1.50038
-1.57114
-1.67044
-1.74377
-1.82656
-1.91198
-1.9565
-2.05429
-2.02727
-2.11547
-2.03121
-2.08984
-1.96151
-0.994275
-1.20452
-1.22126
-1.24322
-1.42734
-1.24559
-1.7398
-1.85354
-1.95558
-2.00823
-2.0535
-2.15128
-2.02384
-2.18661
-1.87037
-2.13954
-1.61888
-1.94362
-1.28636
-1.36358
-0.989646
-1.25065
-1.22544
-1.2506
-1.14927
-1.27436
-1.35549
-1.44314
-1.52009
-1.61478
-1.70126
-1.80291
-1.87987
-1.98467
-2.02367
-2.0285
-2.11182
-2.06949
-2.06454
-2.09722
-0.902977
-1.14311
-1.11296
-1.12706
-1.33707
-1.10302
-1.68406
-1.87404
-1.93044
-2.00888
-2.02657
-2.16401
-1.94906
-2.23749
-1.75068
-2.17485
-1.42483
-1.89882
-1.04659
-1.14979
-0.573339
-1.36148
-1.35998
-1.35178
-1.32099
-1.33566
-1.47031
-1.53967
-1.61212
-1.69647
-1.7851
-1.87079
-1.99846
-2.00049
-2.12214
-2.09815
-2.18942
-2.1643
-2.0798
-2.24451
-0.843696
-1.09422
-1.01654
-1.02057
-1.23829
-0.993416
-1.57466
-1.95184
-1.95829
-2.10219
-2.02002
-2.20822
-1.923
-2.22081
-1.74362
-2.17753
-1.37964
-1.83333
-0.876446
-0.913027
-0.118557
-1.26357
-1.24068
-1.24724
-1.2197
-1.15553
-1.31716
-1.37608
-1.45267
-1.55047
-1.64627
-1.77085
-1.84424
-1.95237
-2.05827
-2.07894
-2.15659
-2.19039
-2.02985
-2.29528
-0.727686
-0.948061
-0.837152
-0.835813
-1.06017
-0.849636
-1.38357
-2.01561
-1.96295
-2.21856
-1.99632
-2.24681
-1.84437
-2.26057
-1.54847
-2.20042
-1.12393
-1.75541
-0.368146
-0.52125
0.695983
-1.42466
-1.46062
-1.40882
-1.43487
-1.39895
-1.39254
-1.52114
-1.55469
-1.65361
-1.73054
-1.82295
-1.95342
-2.03073
-2.17117
-2.19729
-2.28834
-2.33006
-2.12548
-2.42611
-0.680214
-0.883207
-0.700015
-0.693769
-0.889305
-0.728212
-1.21015
-2.10872
-2.07056
-2.25467
-2.10785
-2.34759
-1.83768
-2.36674
-1.50746
-2.26732
-1.12936
-1.76163
-0.152381
-0.0797552
1.60262
-1.30381
-1.22039
-1.27753
-1.16995
-1.19009
-1.15722
-1.24898
-1.29269
-1.39815
-1.5021
-1.64856
-1.78951
-1.92061
-2.08735
-2.14753
-2.2983
-2.35245
-2.09531
-2.40734
-0.501369
-0.663075
-0.420936
-0.426401
-0.597506
-0.544718
-1.0057
-2.13638
-2.09351
-2.40323
-2.08002
-2.37845
-1.71613
-2.36724
-1.32664
-2.13388
-0.756186
-1.52759
0.682761
0.873369
3.55952
-1.45666
-1.55767
-1.42473
-1.49774
-1.36883
-1.35767
-1.4021
-1.3921
-1.50067
-1.58605
-1.71905
-1.87093
-2.00224
-2.1939
-2.27448
-2.42649
-2.49211
-2.2582
-2.46664
-0.514777
-0.497684
-0.223897
-0.220502
-0.35837
-0.393157
-0.908309
-2.15586
-2.18418
-2.53424
-2.15725
-2.58447
-1.7331
-2.54025
-1.24437
-2.42895
-0.71289
-1.64664
1.09994
1.75136
5.41731
-1.78597
-1.31443
-1.4236
-1.05443
-1.14978
-0.972222
-1.0802
-1.09433
-1.21988
-1.32078
-1.49007
-1.65938
-1.83991
-2.05765
-2.19544
-2.3749
-2.50782
-2.31196
-2.31105
-0.403493
-0.140425
0.212561
0.182789
0.0400808
-0.199123
-0.848843
-2.12754
-2.25341
-2.65155
-2.16809
-2.59806
-1.65992
-2.42426
-1.05534
-2.1537
-0.116968
-0.957556
2.45658
4.19545
10.3409
-1.58979
-1.88692
-1.65294
-1.6456
-1.20479
-1.18694
-1.16342
-1.16389
-1.26018
-1.34919
-1.48985
-1.65838
-1.84
-2.07963
-2.25207
-2.48645
-2.66655
-2.52507
-2.26535
-0.471069
0.0772503
0.513461
0.556108
0.31431
-0.0679897
-0.838798
-2.07312
-2.32609
-2.79162
-2.20863
-2.69753
-1.65432
-2.54347
-1.15427
-2.33752
-0.460242
-1.12725
3.3016
5.32827
13.7827
-4.11778
-1.36536
-1.70377
-1.17891
-1.09964
-0.897393
-0.986743
-1.00153
-1.12296
-1.22266
-1.39117
-1.56447
-1.76377
-2.01248
-2.24772
-2.56495
-2.79705
-2.66143
-2.10014
-0.438985
0.372755
0.915243
0.946745
0.550876
-0.043421
-0.918488
-2.1285
-2.42154
-2.90497
-2.22254
-2.67514
-1.52002
-2.40795
-0.971502
-2.02142
0.121883
0.442414
6.83738
12.0345
25.4914
-0.10556
-0.201498
-0.278445
-0.316257
-0.294754
-0.324033
-0.361419
-0.387815
-0.421123
-0.445901
-0.462771
-0.512869
-0.541766
-0.584968
-0.620984
-0.636403
-0.661446
-0.648567
-0.716637
-0.802317
-0.586086
-1.14769
-1.28973
-1.23651
-1.3074
-1.15856
-1.18275
-1.0844
-1.09182
-1.03008
-1.07701
-1.07346
-1.1465
-1.14679
-1.20414
-1.20933
-1.26668
-1.25171
-1.26067
-1.24008
-0.218586
-0.261242
-0.31712
-0.324069
-0.305113
-0.311816
-0.336325
-0.366163
-0.371165
-0.434334
-0.438247
-0.51057
-0.462096
-0.465086
-0.461672
-0.516056
-0.581392
-0.579996
-0.583051
-0.633306
-0.617763
-1.08945
-1.29746
-1.25903
-1.33555
-1.21454
-1.2546
-1.18962
-1.19603
-1.1295
-1.12216
-1.11737
-1.1343
-1.10741
-1.17677
-1.16497
-1.22522
-1.21824
-1.23846
-1.23134
-0.28702
-0.315829
-0.344625
-0.354714
-0.322088
-0.315058
-0.359216
-0.373565
-0.446951
-0.423247
-0.406217
-0.414395
-0.446849
-0.542374
-0.65055
-0.735505
-0.750365
-0.73795
-0.745919
-0.808778
-0.880655
-1.3698
-1.69159
-1.69997
-1.82017
-1.72453
-1.78465
-1.7285
-1.73838
-1.64962
-1.56187
-1.41568
-1.36342
-1.31613
-1.25509
-1.19843
-1.24384
-1.22898
-1.24109
-1.23301
-0.36634
-0.358397
-0.388761
-0.351435
-0.35827
-0.304208
-0.354616
-0.337436
-0.339661
-0.372217
-0.45974
-0.625613
-0.724154
-0.765902
-0.828975
-0.87217
-0.888996
-0.891834
-0.910948
-0.990321
-1.12969
-1.65785
-2.04811
-2.07874
-2.2139
-2.13925
-2.18919
-2.1358
-2.12322
-2.0282
-1.94946
-1.75807
-1.55933
-1.36367
-1.3076
-1.18415
-1.22736
-1.21852
-1.23758
-1.24232
-0.39801
-0.405231
-0.392602
-0.395681
-0.394777
-0.307023
-0.300434
-0.397365
-0.611671
-0.823911
-0.967762
-1.01642
-1.03416
-1.07586
-1.15671
-1.17822
-1.18314
-1.18869
-1.21369
-1.26238
-1.37077
-1.91523
-2.33587
-2.36745
-2.5052
-2.45988
-2.49698
-2.47102
-2.43939
-2.35806
-2.28819
-2.16489
-2.02582
-1.7313
-1.41793
-1.22963
-1.2873
-1.27637
-1.26514
-1.27907
-0.47901
-0.498136
-0.508532
-0.517816
-0.593992
-0.494586
-0.75754
-1.01778
-1.16909
-1.23015
-1.27309
-1.31768
-1.31926
-1.33242
-1.40056
-1.42453
-1.3884
-1.36004
-1.34984
-1.3742
-1.46791
-2.0132
-2.47833
-2.52052
-2.67049
-2.61047
-2.65431
-2.61746
-2.63155
-2.51904
-2.46928
-2.37958
-2.25015
-2.08358
-1.70661
-1.32016
-1.38628
-1.33137
-1.31705
-1.32812
-0.535391
-0.552921
-0.548639
-0.656354
-0.736724
-0.755523
-1.1968
-1.28666
-1.42118
-1.49766
-1.55279
-1.60822
-1.62263
-1.70146
-1.7082
-1.70794
-1.66173
-1.58893
-1.58649
-1.59705
-1.66336
-1.76979
-2.36408
-2.54541
-2.6867
-2.6843
-2.73374
-2.72033
-2.69784
-2.66241
-2.58328
-2.48339
-2.37616
-2.19738
-1.88864
-1.41026
-1.40425
-1.3785
-1.35626
-1.36864
-0.579902
-0.620223
-0.631098
-0.784533
-0.823411
-1.13662
-1.36781
-1.50068
-1.59991
-1.69337
-1.75611
-1.83786
-1.87598
-1.94788
-1.9827
-1.9993
-1.98384
-1.92695
-1.94128
-1.86294
-1.80335
-1.58137
-1.92305
-2.3822
-2.64494
-2.71949
-2.8147
-2.80284
-2.82977
-2.7477
-2.70347
-2.6089
-2.49373
-2.31413
-2.09877
-1.55723
-1.46899
-1.45666
-1.41944
-1.43613
-0.633526
-0.659394
-0.753542
-0.83514
-1.01134
-1.34415
-1.46577
-1.61604
-1.7419
-1.84257
-1.93753
-1.99842
-2.08
-2.17868
-2.23783
-2.30919
-2.36449
-2.38245
-2.37978
-2.18522
-1.92781
-1.45428
-1.42955
-1.94321
-2.55742
-2.73936
-2.872
-2.89362
-2.86673
-2.85056
-2.7779
-2.69445
-2.58025
-2.37764
-2.17797
-1.72751
-1.48106
-1.4904
-1.46391
-1.48025
-0.679197
-0.705757
-0.756461
-0.995599
-1.23945
-1.45679
-1.57488
-1.77908
-1.81747
-1.97197
-2.0186
-2.12426
-2.19466
-2.31618
-2.3926
-2.49136
-2.58476
-2.65206
-2.68428
-2.44252
-1.91663
-1.29115
-1.06483
-1.5115
-2.44037
-2.80306
-2.98768
-3.00489
-3.01243
-2.93446
-2.91758
-2.85994
-2.74518
-2.59057
-2.33489
-1.9605
-1.58031
-1.5723
-1.54353
-1.55908
-0.731793
-0.745305
-0.888523
-1.16354
-1.36899
-1.51207
-1.67594
-1.79953
-1.89712
-2.02379
-2.09348
-2.18374
-2.25964
-2.39133
-2.46396
-2.57019
-2.63943
-2.72072
-2.65812
-2.30981
-1.77397
-1.15986
-0.903811
-1.16928
-1.98172
-2.82141
-2.98471
-3.10495
-3.03335
-3.05284
-2.99308
-2.87304
-2.76405
-2.59037
-2.39117
-2.11665
-1.65978
-1.60514
-1.59963
-1.60943
-0.804184
-0.843156
-1.01243
-1.25037
-1.42592
-1.60469
-1.70343
-1.87405
-1.93869
-2.05303
-2.13329
-2.21864
-2.26411
-2.40853
-2.48173
-2.56965
-2.60812
-2.65978
-2.24426
-1.8979
-1.62302
-1.21838
-0.951685
-1.1181
-1.62248
-2.63859
-3.0599
-3.06935
-3.22637
-3.21625
-3.12712
-3.02927
-2.89065
-2.75529
-2.57656
-2.26587
-1.82925
-1.6576
-1.68366
-1.69258
-0.922114
-0.961916
-1.12433
-1.31073
-1.4965
-1.65699
-1.79436
-1.89222
-1.9963
-2.08134
-2.14217
-2.20002
-2.32267
-2.42012
-2.46703
-2.53008
-2.56212
-2.24887
-1.82174
-1.53196
-1.38753
-1.2432
-1.09384
-1.2054
-1.53967
-2.07646
-3.0787
-3.24258
-3.3116
-3.28105
-3.28366
-3.18289
-3.01484
-2.81854
-2.54852
-2.43701
-2.00732
-1.72981
-1.73586
-1.76751
-0.984549
-1.01709
-1.15934
-1.33276
-1.51733
-1.67572
-1.80937
-1.90844
-1.98237
-2.06582
-2.1164
-2.23469
-2.24466
-2.30487
-2.4019
-2.48125
-2.2646
-1.78899
-1.49612
-1.30622
-1.25576
-1.20887
-1.22577
-1.34051
-1.52389
-1.8027
-2.453
-3.11369
-3.09964
-3.38661
-3.34152
-3.26228
-3.10587
-2.92109
-2.67211
-2.41369
-2.22014
-1.85419
-1.78156
-1.86653
-1.10146
-1.12478
-1.25322
-1.40728
-1.57793
-1.71875
-1.85284
-1.93971
-2.01099
-2.05584
-2.0721
-2.10861
-2.1292
-2.16879
-2.33168
-2.02961
-1.65195
-1.36581
-1.22849
-1.1528
-1.18134
-1.17731
-1.21551
-1.46905
-1.62561
-1.8771
-2.20932
-3.16221
-3.50025
-3.42428
-3.42748
-3.32465
-3.16317
-2.98162
-2.71641
-2.51649
-2.22988
-2.08777
-1.8211
-1.9753
-1.0626
-1.08572
-1.212
-1.36171
-1.54047
-1.65585
-1.80055
-1.87088
-1.93227
-1.97816
-1.97803
-2.02382
-1.92072
-1.64322
-1.54314
-1.40427
-1.22109
-1.20306
-1.18082
-1.20474
-1.24403
-1.27239
-1.26328
-1.49407
-1.67814
-1.80056
-1.98699
-2.30046
-3.17621
-3.45391
-3.44816
-3.38232
-3.22329
-3.03167
-2.78591
-2.54817
-2.32198
-2.15519
-1.96757
-2.00297
-1.16095
-1.16351
-1.2585
-1.38716
-1.54947
-1.66686
-1.7934
-1.83781
-1.8649
-1.79964
-1.60757
-1.38441
-1.14719
-1.04315
-1.13653
-1.10966
-1.11628
-1.14829
-1.194
-1.24474
-1.31903
-1.39064
-1.40288
-1.5379
-1.74945
-1.87957
-2.05601
-2.24909
-2.52958
-3.11114
-3.37182
-3.35633
-3.22826
-3.08004
-2.8591
-2.66142
-2.36652
-2.28244
-2.13497
-2.14392
-0.861736
-0.889309
-0.964892
-1.09996
-1.22433
-1.3494
-1.47112
-1.43527
-1.2904
-1.1242
-1.02387
-0.989659
-0.944096
-0.924742
-1.00043
-1.0197
-1.03921
-1.10499
-1.15265
-1.23028
-1.29986
-1.38564
-1.42607
-1.53661
-1.70734
-1.83673
-1.99208
-2.13278
-2.32631
-2.52893
-2.93917
-3.15346
-3.11716
-2.9552
-2.79435
-2.59243
-2.37397
-2.21915
-2.22853
-2.213
-0.798862
-0.811064
-0.86166
-0.942226
-1.02634
-1.11138
-1.21037
-1.08065
-1.09298
-1.01644
-0.988318
-0.933044
-0.906507
-0.90875
-0.912554
-0.980386
-1.01199
-1.04987
-1.12868
-1.18983
-1.27903
-1.35607
-1.41855
-1.5263
-1.70703
-1.85789
-1.99545
-2.13247
-2.25737
-2.38407
-2.44317
-2.66753
-2.98382
-3.04267
-2.94733
-2.76773
-2.58817
-2.40924
-2.32094
-2.31468
-0.746887
-0.699277
-0.732115
-0.796925
-0.876398
-0.953553
-1.05631
-0.944526
-0.952773
-0.938757
-0.971579
-0.954879
-0.937206
-0.89565
-0.890422
-0.898448
-0.953121
-1.02342
-1.06483
-1.15824
-1.23894
-1.33593
-1.39812
-1.5133
-1.68445
-1.8448
-1.97886
-2.12034
-2.25853
-2.3592
-2.42618
-2.43522
-2.47565
-2.50939
-2.58721
-2.5543
-2.48193
-2.415
-2.44335
-2.57264
-0.786584
-0.726131
-0.743214
-0.773953
-0.86466
-0.907852
-1.0075
-0.967281
-0.99971
-1.00528
-1.03236
-1.01344
-0.969439
-0.912279
-0.846715
-0.842931
-0.889123
-0.962134
-1.07057
-1.11501
-1.22755
-1.30884
-1.40022
-1.48511
-1.66683
-1.81737
-1.96043
-2.10894
-2.25357
-2.3514
-2.41368
-2.44044
-2.45716
-2.44157
-2.37719
-2.2902
-2.19457
-2.06229
-2.01543
-2.03626
-0.840881
-0.779208
-0.805753
-0.829173
-0.920619
-0.953712
-1.03844
-1.03957
-1.06705
-1.08226
-1.11174
-1.09257
-1.02182
-0.921293
-0.853902
-0.826955
-0.848837
-0.939016
-1.01905
-1.13721
-1.20226
-1.30557
-1.39334
-1.48767
-1.63096
-1.79648
-1.94324
-2.09373
-2.23992
-2.36238
-2.4484
-2.47461
-2.53239
-2.47779
-2.48362
-2.39983
-2.34652
-2.18767
-2.15112
-2.28268
-0.827161
-0.796038
-0.819886
-0.840407
-0.921039
-0.957595
-1.03769
-1.07708
-1.11898
-1.15855
-1.19533
-1.16759
-1.09552
-1.00669
-0.92629
-0.851251
-0.833263
-0.913232
-1.02632
-1.10347
-1.19223
-1.33228
-1.37504
-1.49977
-1.62504
-1.76759
-1.90499
-2.03873
-2.15643
-2.24981
-2.34232
-2.38173
-2.4547
-2.4592
-2.52777
-2.47218
-2.46522
-2.27874
-2.22087
-2.25358
-0.905255
-0.866859
-0.899439
-0.902756
-0.982358
-1.00903
-1.09098
-1.14049
-1.19158
-1.24042
-1.28364
-1.27597
-1.22455
-1.12927
-1.0578
-1.01538
-1.07499
-1.25057
-1.1625
-1.15955
-1.22044
-1.31983
-1.43426
-1.52707
-1.63848
-1.76662
-1.90438
-2.03139
-2.15362
-2.2569
-2.36836
-2.42039
-2.5302
-2.52335
-2.63938
-2.57519
-2.64441
-2.45431
-2.44511
-2.45944
-0.943909
-0.906097
-0.95038
-0.950986
-1.02392
-1.06878
-1.12995
-1.19523
-1.25443
-1.31769
-1.37713
-1.40242
-1.40241
-1.36012
-1.3553
-1.39962
-1.47035
-1.51032
-1.21258
-1.13641
-1.19035
-1.32417
-1.40974
-1.55461
-1.67585
-1.73157
-1.85309
-1.95674
-2.04705
-2.11229
-2.19869
-2.21888
-2.31853
-2.28222
-2.4024
-2.29746
-2.39326
-2.2083
-2.26193
-2.24608
-1.00651
-0.958335
-1.00472
-1.01485
-1.08809
-1.12709
-1.20219
-1.26552
-1.3293
-1.40286
-1.48057
-1.53895
-1.58953
-1.62392
-1.67259
-1.71511
-1.69964
-1.69876
-1.26212
-1.13539
-1.1743
-1.28243
-1.42974
-1.55487
-1.6644
-1.76941
-1.9137
-1.96784
-2.083
-2.17709
-2.3167
-2.34665
-2.49106
-2.43399
-2.59545
-2.44532
-2.57219
-2.3421
-2.40936
-2.34414
-1.06448
-1.02857
-1.04749
-1.08413
-1.145
-1.20217
-1.26799
-1.33857
-1.41821
-1.49815
-1.57532
-1.65084
-1.72755
-1.8014
-1.87182
-1.9193
-1.84669
-1.85477
-1.35051
-1.15306
-1.16788
-1.29889
-1.40627
-1.55694
-1.63396
-1.78332
-1.85432
-1.95899
-2.03328
-2.12542
-2.21643
-2.19873
-2.30605
-2.19932
-2.36234
-2.16967
-2.34142
-2.08539
-2.15791
-2.13759
-1.11416
-1.08836
-1.07004
-1.1326
-1.19309
-1.24893
-1.33204
-1.41313
-1.50269
-1.58877
-1.67605
-1.75239
-1.8265
-1.88227
-1.9258
-1.98875
-1.90513
-1.92196
-1.45774
-1.1597
-1.17456
-1.2606
-1.35118
-1.51493
-1.57813
-1.74325
-1.84477
-2.01643
-2.04775
-2.15079
-2.25626
-2.21601
-2.35027
-2.16762
-2.37088
-2.0716
-2.27872
-1.89552
-2.01452
-1.81993
-1.16961
-1.16445
-1.13238
-1.17981
-1.26193
-1.3249
-1.39372
-1.49144
-1.5853
-1.6791
-1.76545
-1.8426
-1.90841
-1.96826
-1.9905
-2.05
-1.96928
-2.01904
-1.60639
-1.16644
-1.19104
-1.28992
-1.30871
-1.4687
-1.4899
-1.66311
-1.86294
-2.00036
-2.04475
-2.09261
-2.15817
-2.07418
-2.23195
-2.01538
-2.23331
-1.88654
-2.12176
-1.65206
-1.70831
-1.4655
-1.1997
-1.18964
-1.16017
-1.16074
-1.28307
-1.33268
-1.42735
-1.51404
-1.60128
-1.70018
-1.79458
-1.87096
-1.94142
-1.99829
-2.02411
-2.09913
-2.01341
-2.07708
-1.66017
-1.10706
-1.09372
-1.22097
-1.23063
-1.40014
-1.36614
-1.67045
-1.86861
-2.0084
-2.06805
-2.05187
-2.19472
-2.0702
-2.2535
-1.9602
-2.29704
-1.80169
-2.17188
-1.55883
-1.62993
-1.26838
-1.27604
-1.27209
-1.25747
-1.22439
-1.35976
-1.41838
-1.51059
-1.59972
-1.6678
-1.76563
-1.85838
-1.9434
-2.00491
-2.07718
-2.08559
-2.17194
-2.09772
-2.16939
-1.90315
-1.0585
-1.12893
-1.15012
-1.16311
-1.34005
-1.27264
-1.67293
-1.88467
-1.98038
-2.06521
-2.02469
-2.15778
-2.01465
-2.25099
-1.88552
-2.22523
-1.73319
-2.14182
-1.47471
-1.55419
-1.07067
-1.26017
-1.23717
-1.24739
-1.166
-1.2769
-1.3643
-1.4579
-1.52879
-1.63312
-1.71306
-1.81866
-1.90213
-1.98903
-2.05793
-2.09807
-2.19478
-2.14256
-2.1721
-2.02525
-0.98529
-1.04511
-1.03134
-1.03976
-1.23805
-1.13115
-1.62978
-1.90382
-2.03652
-2.06406
-2.01704
-2.14051
-1.97715
-2.24433
-1.82744
-2.28561
-1.53068
-2.19435
-1.31046
-1.50593
-0.800267
-1.37085
-1.37079
-1.35413
-1.33331
-1.3368
-1.48597
-1.55784
-1.63055
-1.72491
-1.80624
-1.90689
-1.99182
-2.06119
-2.16189
-2.14662
-2.26576
-2.20059
-2.1912
-2.18532
-0.943022
-0.99226
-0.922786
-0.930733
-1.12437
-1.00969
-1.53299
-1.97683
-2.1007
-2.164
-2.01848
-2.21982
-1.89516
-2.30021
-1.74537
-2.31826
-1.55706
-2.14432
-1.28078
-1.48773
-0.510515
-1.27583
-1.2475
-1.27262
-1.19363
-1.18862
-1.29217
-1.39686
-1.46377
-1.56512
-1.66716
-1.78538
-1.89117
-1.98487
-2.07606
-2.13251
-2.23344
-2.26275
-2.15419
-2.25301
-0.832287
-0.850533
-0.733015
-0.737431
-0.92706
-0.808184
-1.35519
-1.98242
-2.10261
-2.2232
-2.05405
-2.25122
-1.84634
-2.28242
-1.58951
-2.29563
-1.29934
-2.21106
-0.834387
-1.29246
0.122129
-1.43213
-1.47078
-1.4212
-1.46927
-1.35038
-1.41828
-1.5374
-1.58413
-1.68042
-1.76809
-1.88784
-2.00036
-2.07946
-2.2233
-2.26534
-2.3522
-2.39875
-2.27577
-2.37247
-0.809456
-0.730703
-0.584529
-0.5853
-0.742384
-0.671785
-1.19603
-2.05199
-2.16291
-2.37503
-2.12826
-2.37159
-1.84053
-2.39998
-1.54854
-2.36336
-1.27706
-2.19871
-0.882837
-0.939296
0.893391
-1.2993
-1.24555
-1.3036
-1.17808
-1.26552
-1.06247
-1.29613
-1.309
-1.4424
-1.53848
-1.69034
-1.81966
-1.95744
-2.13748
-2.20438
-2.40817
-2.43362
-2.22715
-2.38038
-0.722575
-0.535529
-0.313415
-0.309795
-0.440315
-0.483531
-1.01963
-2.05227
-2.18674
-2.46863
-2.15175
-2.4629
-1.758
-2.39934
-1.34012
-2.29348
-0.876468
-1.91397
-0.0575438
-0.412826
2.74196
-1.44918
-1.57819
-1.45432
-1.535
-1.41273
-1.35279
-1.45342
-1.46169
-1.5692
-1.65816
-1.78108
-1.94019
-2.07168
-2.27846
-2.36476
-2.59229
-2.57408
-2.48438
-2.46286
-0.725782
-0.403665
-0.101945
-0.10277
-0.207044
-0.357144
-0.925105
-2.08117
-2.26292
-2.61714
-2.20908
-2.64272
-1.80123
-2.57694
-1.36286
-2.49618
-0.917898
-1.94923
0.269218
0.468296
4.64678
-1.71985
-1.2877
-1.43724
-1.09243
-1.19119
-0.989873
-1.14027
-1.1374
-1.28907
-1.38204
-1.57121
-1.73668
-1.93234
-2.15928
-2.32711
-2.54553
-2.70672
-2.54932
-2.43208
-0.618991
-0.164889
0.262957
0.264582
0.127152
-0.131447
-0.817435
-2.06466
-2.31179
-2.76277
-2.21406
-2.678
-1.68119
-2.50568
-1.14618
-2.33476
-0.474071
-1.26272
1.80665
3.30699
10.2211
-1.36823
-1.84862
-1.69354
-1.71641
-1.41276
-1.213
-1.27479
-1.2527
-1.35183
-1.43363
-1.5821
-1.76938
-1.96668
-2.23302
-2.40671
-2.71424
-2.89497
-2.7937
-2.43234
-0.694488
0.042432
0.550419
0.619511
0.391329
-0.0309411
-0.797568
-2.02829
-2.3588
-2.8599
-2.25311
-2.76244
-1.64732
-2.56721
-1.16247
-2.39592
-0.664599
-1.2805
2.64485
5.73795
16.1988
-3.97118
-1.25795
-1.5904
-1.10298
-1.07242
-0.906022
-1.00949
-1.02556
-1.16979
-1.27349
-1.44048
-1.61505
-1.8451
-2.13292
-2.43081
-2.74648
-3.05771
-2.90246
-2.3121
-0.613488
0.324829
0.954885
1.0224
0.665767
0.0440792
-0.847452
-2.12152
-2.48551
-3.05922
-2.28754
-2.74437
-1.49165
-2.4217
-0.949423
-2.04421
0.0446044
0.558231
6.90037
14.9116
31.9023
-0.225412
-0.260861
-0.301173
-0.322972
-0.299896
-0.319831
-0.357378
-0.387342
-0.41094
-0.450814
-0.467677
-0.513625
-0.54992
-0.61375
-0.620036
-0.646901
-0.708914
-0.690423
-0.690733
-0.748405
-0.566228