/*--------------------------------*- C++ -*----------------------------------*\
| =========                 |                                                 |
| \\      /  F ield         | OpenFOAM: The Open Source CFD Toolbox           |
|  \\    /   O peration     | Version:  v1806                                 |
|   \\  /    A nd           | Web:      www.OpenFOAM.com                      |
|    \\/     M anipulation  |                                                 |
\*---------------------------------------------------------------------------*/
FoamFile
{
    version     2.0;
    format      ascii;
    class       volVectorField;
    location    "0.139";
    object      U;
}
// * * * * * * * * * * * * * * * * * * * * * * * * * * * * * * * * * * * * * //

dimensions      [0 1 -1 0 0 0 0];


internalField   nonuniform List<vector> 
64000
(
(-0.0177249 -0.00166856 -0.0110108)
(-0.00107614 -0.00141723 -0.0104139)
(-0.00337172 0.00718573 -0.00193646)
(-0.00722373 0.00820415 -0.00113853)
(-0.0134615 0.00786748 -0.00134253)
(-0.0199374 0.00700651 -0.00138608)
(-0.0281118 0.00558137 -0.0016697)
(-0.0398682 0.00509346 -0.000448904)
(-0.0519927 0.00367071 -9.28393e-06)
(-0.0663185 0.00226849 0.000316955)
(-0.0791351 -0.000563314 0.000784599)
(-0.0968892 -0.00405973 0.000796632)
(-0.113443 -0.00865465 0.000375054)
(-0.137564 -0.0126633 -5.8726e-05)
(-0.157471 -0.0124793 -0.000274514)
(-0.192793 -0.00971772 -0.000632284)
(-0.208227 -0.00274766 -0.00144929)
(-0.242691 -0.0101364 -0.00480092)
(-0.227574 -0.0138207 0.00266108)
(-0.287609 -0.0336619 -0.0219803)
(-0.227331 -0.0157138 -0.0118305)
(-0.130213 -0.0207603 -0.0330558)
(-0.155164 -0.00398949 -0.0178802)
(-0.148877 -0.00488006 -0.0369382)
(-0.170936 0.00161422 -0.047061)
(-0.154742 0.00940107 -0.0580101)
(-0.138219 0.0203646 -0.061851)
(-0.091793 0.0319749 -0.0587422)
(-0.0529225 0.0383599 -0.0559224)
(-0.00267175 0.0523609 -0.0401116)
(0.0459518 0.0458021 -0.0361687)
(0.0890075 0.0393326 -0.0264555)
(0.107443 0.0282986 -0.0140864)
(0.109942 0.0143497 -0.00666627)
(0.0965958 0.00585017 0.00259776)
(0.0772683 -0.0012252 0.00328462)
(0.05846 -0.00534569 0.00590235)
(0.0370239 -0.00488879 0.00638676)
(0.0203588 -0.00321511 0.00579237)
(0.00394045 -0.00173642 0.00367468)
(-0.0152341 0.0392855 -0.00855134)
(-0.0105544 0.0198852 -0.0078423)
(-0.00491911 0.0240526 -0.0041419)
(-0.0037048 0.0256801 -0.00325973)
(-0.00538243 0.0279094 -0.00408427)
(-0.0108521 0.0294137 -0.00483208)
(-0.0194501 0.0322555 -0.00636056)
(-0.0352774 0.0336787 -0.00609897)
(-0.0550696 0.0356649 -0.00767737)
(-0.0820799 0.0371963 -0.00796647)
(-0.112019 0.042302 -0.00462545)
(-0.152426 0.0499681 -0.00363368)
(-0.19566 0.059345 -0.00720828)
(-0.246516 0.0655984 -0.0099274)
(-0.294467 0.0749559 -0.0168305)
(-0.360913 0.0787887 -0.0276254)
(-0.429183 0.0839848 -0.0479349)
(-0.51125 0.0809474 -0.0631906)
(-0.542095 0.0877961 -0.0803937)
(-0.617166 0.0865684 -0.0944635)
(-0.527101 0.125296 -0.0831417)
(-0.411216 0.144376 -0.122455)
(-0.420874 0.18841 -0.12479)
(-0.400478 0.205205 -0.141253)
(-0.394558 0.228099 -0.153198)
(-0.345029 0.24861 -0.161622)
(-0.29325 0.27004 -0.163235)
(-0.213273 0.285887 -0.152888)
(-0.134687 0.293049 -0.132662)
(-0.0597668 0.297683 -0.11113)
(0.00760506 0.284562 -0.0716701)
(0.0803456 0.253705 -0.0496299)
(0.116408 0.203327 -0.039173)
(0.13525 0.154311 -0.0261645)
(0.131348 0.105977 -0.0113012)
(0.110745 0.0677953 -0.00449826)
(0.0898018 0.0409833 8.86492e-05)
(0.0633385 0.0269762 0.00117404)
(0.0379985 0.0179746 0.00201965)
(0.00975191 0.0110027 0.00243799)
(-0.00647355 0.0599102 -0.00136033)
(-0.00475089 0.0417485 -0.00472368)
(-0.000982377 0.0437639 -0.00560845)
(0.00102161 0.0503054 -0.00625503)
(-0.00188013 0.0590098 -0.00741094)
(-0.00921433 0.0691816 -0.00866812)
(-0.0239685 0.0810371 -0.00970388)
(-0.0494517 0.0932579 -0.00648884)
(-0.0806119 0.108087 -0.00536439)
(-0.118936 0.126262 -0.00873688)
(-0.15943 0.148074 -0.0117561)
(-0.21486 0.169774 -0.0188881)
(-0.281028 0.195725 -0.0267071)
(-0.361297 0.216984 -0.0341457)
(-0.439283 0.228818 -0.040052)
(-0.532347 0.232078 -0.0477122)
(-0.601468 0.241809 -0.0658745)
(-0.674781 0.255607 -0.0859698)
(-0.70095 0.286415 -0.103856)
(-0.761077 0.321396 -0.114951)
(-0.649309 0.357761 -0.094747)
(-0.508803 0.403397 -0.124071)
(-0.499772 0.453209 -0.116388)
(-0.46619 0.480215 -0.120662)
(-0.451784 0.509608 -0.125606)
(-0.396036 0.528212 -0.126057)
(-0.344147 0.541759 -0.121256)
(-0.268203 0.54267 -0.105804)
(-0.200755 0.533669 -0.0833598)
(-0.128491 0.510681 -0.0600052)
(-0.0718368 0.484751 -0.0399625)
(-0.0256613 0.433984 -0.0284001)
(0.0127224 0.365073 -0.0127791)
(0.0452706 0.292664 -0.00985834)
(0.0576003 0.219294 -0.0106126)
(0.0619505 0.157739 -0.0100071)
(0.0612557 0.111232 -0.00539032)
(0.0490271 0.0797951 -0.00335292)
(0.0342752 0.0551799 -0.000219061)
(0.0106178 0.0315818 0.00194756)
(-0.00505068 0.0803213 -0.00171735)
(-0.00372638 0.0655446 -0.00629894)
(0.000609245 0.0727666 -0.00920964)
(0.00059043 0.0881714 -0.00966669)
(-0.00422219 0.107404 -0.0111381)
(-0.0162493 0.130984 -0.00995888)
(-0.0375596 0.159271 -0.00995287)
(-0.0712647 0.189407 -0.0105452)
(-0.112018 0.220516 -0.0141356)
(-0.163084 0.254097 -0.0187837)
(-0.222967 0.28704 -0.0240958)
(-0.293285 0.316745 -0.0279653)
(-0.369535 0.338235 -0.0315878)
(-0.458586 0.352486 -0.0327632)
(-0.535845 0.364491 -0.0363585)
(-0.609288 0.379081 -0.0427228)
(-0.664651 0.404054 -0.0599741)
(-0.725256 0.426909 -0.0711769)
(-0.73807 0.470791 -0.0820974)
(-0.786624 0.514208 -0.0776714)
(-0.65521 0.538749 -0.0338022)
(-0.494642 0.578041 -0.0466317)
(-0.476966 0.60885 -0.0313414)
(-0.441489 0.612209 -0.0286423)
(-0.427985 0.623427 -0.0276273)
(-0.380777 0.619933 -0.0245593)
(-0.339773 0.611167 -0.0206285)
(-0.280445 0.589087 -0.0125298)
(-0.229713 0.561415 -0.00121345)
(-0.177268 0.525327 0.00552956)
(-0.143549 0.483142 0.0102852)
(-0.110666 0.438283 0.00871829)
(-0.0852725 0.386769 0.00286217)
(-0.0536706 0.324817 -0.00415675)
(-0.0261631 0.258839 -0.00798428)
(-0.0032781 0.197102 -0.00814896)
(0.0180453 0.146755 -0.00904904)
(0.0250798 0.115672 -0.00664332)
(0.0251333 0.0813649 -0.00260357)
(0.00936664 0.0458192 0.0013168)
(-0.0048319 0.107972 -0.00506645)
(-0.00189502 0.100183 -0.0119232)
(0.00607973 0.114261 -0.0145253)
(0.00613007 0.141467 -0.014148)
(-0.00109678 0.17346 -0.015541)
(-0.0148109 0.211928 -0.0155261)
(-0.0426333 0.261842 -0.0147426)
(-0.0884056 0.308562 -0.0116369)
(-0.140275 0.351253 -0.0128317)
(-0.198518 0.393948 -0.0155948)
(-0.26154 0.428167 -0.0185911)
(-0.338793 0.44876 -0.0210238)
(-0.419231 0.461816 -0.0225022)
(-0.496021 0.474925 -0.0248064)
(-0.5563 0.496318 -0.0260644)
(-0.619329 0.519583 -0.0287658)
(-0.661561 0.543346 -0.0338242)
(-0.702817 0.564205 -0.033127)
(-0.694196 0.61244 -0.0272195)
(-0.728742 0.653299 -0.026526)
(-0.591646 0.670291 0.0207469)
(-0.422697 0.685546 0.0199251)
(-0.405643 0.684671 0.0380598)
(-0.378837 0.651311 0.0381549)
(-0.379147 0.635315 0.0375899)
(-0.350311 0.605921 0.0414001)
(-0.328788 0.575842 0.043425)
(-0.287789 0.536744 0.0475)
(-0.258284 0.496801 0.039775)
(-0.22476 0.453661 0.0301639)
(-0.200417 0.408209 0.0192513)
(-0.179774 0.372462 0.0112187)
(-0.166005 0.336443 0.00547574)
(-0.142991 0.306875 -0.00589512)
(-0.115688 0.26637 -0.0133398)
(-0.0776734 0.203486 -0.0141393)
(-0.028281 0.161087 -0.0127174)
(-0.00207135 0.135464 -0.0119289)
(0.0106478 0.10218 -0.00358919)
(0.00801316 0.0564418 0.00141557)
(-0.00589687 0.136151 -0.0101201)
(-0.00136793 0.143374 -0.017845)
(0.0124555 0.173293 -0.0178313)
(0.0135499 0.215628 -0.0195985)
(0.00466569 0.263041 -0.0202562)
(-0.00653699 0.319637 -0.0157812)
(-0.0371162 0.380172 -0.0143872)
(-0.0942708 0.434912 -0.00852358)
(-0.151788 0.47944 -0.0066649)
(-0.216583 0.5087 -0.0104457)
(-0.29536 0.526927 -0.0133782)
(-0.372058 0.538691 -0.0140584)
(-0.434367 0.55345 -0.0129638)
(-0.491554 0.571029 -0.0110536)
(-0.533075 0.588625 -0.00730283)
(-0.579521 0.603929 -0.0050718)
(-0.605375 0.624973 -0.00243948)
(-0.624818 0.648491 0.000740842)
(-0.604302 0.694658 0.0020687)
(-0.619788 0.717028 0.0119311)
(-0.484714 0.714495 0.0564127)
(-0.336002 0.681714 0.058951)
(-0.337761 0.648105 0.0782797)
(-0.330196 0.582254 0.0813962)
(-0.342685 0.546901 0.0812034)
(-0.331897 0.502912 0.0782151)
(-0.324629 0.466629 0.0745555)
(-0.303248 0.425168 0.0654889)
(-0.286378 0.382711 0.0584503)
(-0.26843 0.343989 0.0386167)
(-0.255074 0.303477 0.0248918)
(-0.234542 0.271338 0.0110137)
(-0.215346 0.246063 -0.000705888)
(-0.192326 0.234602 -0.00777059)
(-0.186511 0.219863 -0.0190887)
(-0.146049 0.185896 -0.0152401)
(-0.0649682 0.155576 -0.0136981)
(-0.0190976 0.137785 -0.0127943)
(0.00387396 0.110764 -0.00602065)
(0.00525279 0.0612165 0.00262879)
(-0.000912435 0.138481 -0.00947109)
(0.0144843 0.160722 -0.0198586)
(0.0349755 0.20666 -0.0239329)
(0.0366572 0.267781 -0.0263854)
(0.0295913 0.33401 -0.0269029)
(0.0148629 0.405316 -0.020956)
(-0.025814 0.460934 -0.0130403)
(-0.0932402 0.497305 -0.00302493)
(-0.169195 0.531493 -0.00729261)
(-0.24215 0.552191 -0.00932536)
(-0.303575 0.573217 -0.00948528)
(-0.360371 0.597347 -0.00765785)
(-0.408806 0.620438 -0.00397685)
(-0.453562 0.637216 0.00040681)
(-0.485955 0.651707 0.00558193)
(-0.513671 0.658379 0.00942928)
(-0.515084 0.672456 0.0169625)
(-0.519976 0.677599 0.0179575)
(-0.494938 0.693649 0.0187708)
(-0.509729 0.6921 0.0202922)
(-0.417235 0.668727 0.0553652)
(-0.287309 0.569829 0.0624972)
(-0.288894 0.526566 0.0769831)
(-0.29357 0.4569 0.0807491)
(-0.316887 0.425948 0.0794698)
(-0.321973 0.388113 0.0774506)
(-0.329702 0.362518 0.0721599)
(-0.32611 0.331312 0.0613435)
(-0.322524 0.301808 0.0442005)
(-0.316264 0.269538 0.0266843)
(-0.309051 0.240693 0.00991677)
(-0.292793 0.217213 -0.00272288)
(-0.27153 0.198794 -0.0107704)
(-0.242779 0.18884 -0.0152324)
(-0.227299 0.191017 -0.0206758)
(-0.185532 0.187554 -0.0213332)
(-0.0959326 0.166368 -0.0191879)
(-0.0297592 0.148467 -0.017031)
(0.000940891 0.12213 -0.0095952)
(0.00622241 0.069443 0.00163865)
(0.00173193 0.140504 -0.00959593)
(0.0275784 0.172395 -0.0203552)
(0.0634597 0.221493 -0.0222088)
(0.0728378 0.286995 -0.019252)
(0.0653245 0.349165 -0.0225633)
(0.0338589 0.425106 -0.0122439)
(-0.0308655 0.458499 -9.78337e-05)
(-0.101079 0.497068 -0.00148346)
(-0.161806 0.533469 -0.00324295)
(-0.220629 0.568978 -0.00306936)
(-0.274511 0.601902 -0.00217573)
(-0.323995 0.626072 0.00087783)
(-0.364119 0.643054 0.00746322)
(-0.397185 0.653014 0.0132668)
(-0.417344 0.65815 0.0173236)
(-0.435321 0.65214 0.0226591)
(-0.434025 0.644657 0.0258284)
(-0.434499 0.617563 0.0244493)
(-0.417115 0.599655 0.0188763)
(-0.431431 0.559497 0.0116282)
(-0.38732 0.541698 0.0317332)
(-0.27831 0.413322 0.043567)
(-0.262544 0.385017 0.0525113)
(-0.275972 0.330361 0.0608616)
(-0.304279 0.314029 0.0621733)
(-0.322513 0.288549 0.0642469)
(-0.33852 0.274766 0.061607)
(-0.347028 0.254741 0.0496035)
(-0.356309 0.235483 0.0330631)
(-0.35941 0.211495 0.0119919)
(-0.353355 0.188949 0.00206743)
(-0.335547 0.171431 -0.0106209)
(-0.314564 0.162412 -0.0171713)
(-0.278029 0.159845 -0.0214344)
(-0.260709 0.167689 -0.0253471)
(-0.222597 0.190576 -0.0229689)
(-0.128472 0.173283 -0.0212421)
(-0.0451094 0.158431 -0.0159525)
(-0.000684367 0.132287 -0.0103931)
(0.00588284 0.0761656 0.00235212)
(0.00314891 0.16156 -0.0107001)
(0.0360867 0.205299 -0.0236165)
(0.0842213 0.259048 -0.0238741)
(0.0959497 0.318394 -0.0166725)
(0.0964383 0.378363 -0.0174445)
(0.0519884 0.440331 -0.00757691)
(-0.0144744 0.466489 0.0038668)
(-0.0678331 0.515669 0.00189445)
(-0.132542 0.557641 0.00325885)
(-0.185958 0.592158 0.00479992)
(-0.235594 0.615336 0.00790162)
(-0.279579 0.627231 0.0112445)
(-0.310751 0.633048 0.0198424)
(-0.33756 0.626978 0.0227304)
(-0.357568 0.610704 0.0249215)
(-0.373317 0.579684 0.0256027)
(-0.376241 0.546943 0.0246548)
(-0.382548 0.497858 0.0188736)
(-0.381435 0.456115 0.0109515)
(-0.389822 0.399158 -0.00072844)
(-0.39056 0.385473 0.00297431)
(-0.300695 0.283542 0.0227419)
(-0.251195 0.267885 0.0266785)
(-0.270641 0.235816 0.0391931)
(-0.298198 0.231435 0.0439233)
(-0.325606 0.217214 0.0522668)
(-0.346731 0.210917 0.0517457)
(-0.36673 0.198388 0.0405978)
(-0.384038 0.183158 0.0239845)
(-0.391774 0.164957 0.00659598)
(-0.387906 0.149948 -0.00153286)
(-0.371075 0.13657 -0.0017717)
(-0.349225 0.128472 -0.0105777)
(-0.315191 0.134138 -0.0205328)
(-0.275712 0.143549 -0.0297231)
(-0.24166 0.180429 -0.0299428)
(-0.159304 0.18238 -0.0237298)
(-0.0549012 0.172001 -0.0215435)
(-0.00234503 0.143549 -0.0128993)
(0.00717665 0.0860833 0.000783421)
(0.00186049 0.186993 -0.0111763)
(0.0433524 0.246078 -0.0247817)
(0.104869 0.308503 -0.0248937)
(0.128619 0.364061 -0.0161185)
(0.12592 0.429141 -0.0166341)
(0.0697503 0.464331 -0.00612193)
(0.00641537 0.503111 0.0072878)
(-0.037058 0.534246 0.00749806)
(-0.0960466 0.573224 0.0108887)
(-0.147964 0.596267 0.0171624)
(-0.196419 0.610314 0.0172569)
(-0.236218 0.611263 0.0260065)
(-0.266861 0.599552 0.0310838)
(-0.295651 0.569364 0.0333602)
(-0.318497 0.530893 0.0315721)
(-0.338988 0.47864 0.0281987)
(-0.350693 0.426766 0.0223988)
(-0.36353 0.363507 0.0138546)
(-0.371612 0.313498 0.00575154)
(-0.377347 0.260252 -0.00540372)
(-0.393452 0.242848 -0.00974539)
(-0.313327 0.195971 0.0074126)
(-0.245411 0.186251 0.0105172)
(-0.264426 0.170792 0.0239299)
(-0.287947 0.169019 0.0327145)
(-0.320904 0.160657 0.0448048)
(-0.344224 0.157935 0.0463611)
(-0.371437 0.148247 0.0373277)
(-0.392208 0.138264 0.023634)
(-0.400366 0.122777 0.0203079)
(-0.403849 0.106042 0.0159411)
(-0.393875 0.0930478 0.013704)
(-0.372163 0.0826864 0.0104844)
(-0.337189 0.0903474 0.00185532)
(-0.297772 0.106607 -0.0124184)
(-0.257945 0.147907 -0.0283617)
(-0.178497 0.178626 -0.0252117)
(-0.0753498 0.176022 -0.0187789)
(-0.00602535 0.154352 -0.012185)
(0.0086636 0.0954006 0.00153251)
(0.000709811 0.214981 -0.0107652)
(0.0522193 0.29747 -0.0268644)
(0.126543 0.363037 -0.0263664)
(0.159002 0.416548 -0.0173509)
(0.149255 0.468477 -0.0149341)
(0.0918657 0.491815 -0.00573355)
(0.0355137 0.532534 0.00877019)
(-0.003965 0.553775 0.0181994)
(-0.0549798 0.581109 0.0192739)
(-0.11189 0.596559 0.0214993)
(-0.159299 0.597194 0.0305509)
(-0.200248 0.585554 0.0368338)
(-0.2368 0.557762 0.0398381)
(-0.270125 0.511445 0.0394246)
(-0.300286 0.456237 0.0347042)
(-0.32677 0.391726 0.027347)
(-0.348006 0.329059 0.0179573)
(-0.366762 0.265062 0.00928206)
(-0.377223 0.218064 0.00193691)
(-0.380109 0.175632 -0.0084671)
(-0.390259 0.156926 -0.0136649)
(-0.308678 0.141365 -0.00106586)
(-0.237271 0.133082 0.00218238)
(-0.252476 0.122579 0.0151862)
(-0.27151 0.118963 0.0273458)
(-0.303702 0.113123 0.0394672)
(-0.328768 0.111007 0.0418807)
(-0.355958 0.10354 0.0364029)
(-0.379635 0.0934913 0.0419615)
(-0.401901 0.0761409 0.0389455)
(-0.410865 0.0588475 0.0375666)
(-0.409737 0.0462775 0.0275487)
(-0.391458 0.0422522 0.022557)
(-0.358075 0.046854 0.0144387)
(-0.305641 0.065007 -0.00115727)
(-0.260825 0.106438 -0.018616)
(-0.191463 0.156785 -0.0262609)
(-0.0832169 0.176004 -0.0199688)
(-0.00583039 0.15893 -0.0124303)
(0.00927151 0.103514 0.00100059)
(0.0025853 0.241221 -0.0104773)
(0.0604622 0.346082 -0.0299642)
(0.145234 0.413699 -0.029107)
(0.18369 0.463068 -0.0164579)
(0.168329 0.497037 -0.00886717)
(0.115449 0.520324 -0.00321659)
(0.0653186 0.551007 0.0111772)
(0.025299 0.569104 0.0234534)
(-0.0210128 0.576128 0.0306693)
(-0.0765121 0.584085 0.03389)
(-0.12755 0.5781 0.0375809)
(-0.174893 0.552336 0.0413484)
(-0.219241 0.512457 0.0428133)
(-0.259607 0.456237 0.0398078)
(-0.297391 0.389861 0.0312733)
(-0.332586 0.318847 0.0222013)
(-0.358515 0.254993 0.0134323)
(-0.374096 0.198624 0.00586322)
(-0.381805 0.158776 -0.00109898)
(-0.382302 0.127132 -0.0102172)
(-0.381447 0.107557 -0.0142163)
(-0.294998 0.103462 -0.00468888)
(-0.223469 0.08816 -0.00306049)
(-0.229403 0.0760751 0.00925399)
(-0.241086 0.0655793 0.0203002)
(-0.271322 0.0619591 0.031964)
(-0.292833 0.05994 0.0370905)
(-0.323108 0.0548891 0.049493)
(-0.353144 0.0465602 0.0525598)
(-0.375477 0.0346998 0.0617186)
(-0.391589 0.0180007 0.0608523)
(-0.398377 -6.52103e-06 0.0515693)
(-0.397843 -0.0114122 0.0309647)
(-0.37673 -0.00570628 0.0217167)
(-0.33366 0.0147542 0.0230808)
(-0.276237 0.0584755 0.00999352)
(-0.196848 0.122784 -0.0231795)
(-0.0984719 0.167975 -0.0221908)
(-0.0112706 0.164881 -0.0117485)
(0.012791 0.114066 0.000386152)
(0.00334395 0.26561 -0.0077512)
(0.0675566 0.390282 -0.0296135)
(0.161046 0.460853 -0.0285289)
(0.20106 0.499345 -0.012375)
(0.18743 0.52046 -0.00210611)
(0.141326 0.542353 0.00137005)
(0.0943118 0.562151 0.0173296)
(0.0491304 0.574057 0.0265518)
(0.0076784 0.573882 0.0379018)
(-0.0411785 0.569936 0.0452507)
(-0.10141 0.55574 0.0451693)
(-0.156582 0.520891 0.0421243)
(-0.208264 0.468753 0.0384349)
(-0.262132 0.40092 0.0321208)
(-0.310064 0.330222 0.02644)
(-0.345243 0.263136 0.0183946)
(-0.369569 0.205135 0.00999836)
(-0.381628 0.155373 0.00286573)
(-0.384107 0.118372 -0.00315042)
(-0.380699 0.0911687 -0.0107708)
(-0.364542 0.0706074 -0.0118969)
(-0.273619 0.0704876 -0.00561891)
(-0.205398 0.0432968 -0.00516014)
(-0.202299 0.0322799 0.00492556)
(-0.204262 0.0200403 0.0145456)
(-0.223206 0.0170359 0.0246958)
(-0.242107 0.015627 0.0415401)
(-0.268975 0.00995683 0.0488994)
(-0.297987 0.000494828 0.06151)
(-0.337229 -0.0149282 0.0563508)
(-0.374518 -0.0366996 0.0491871)
(-0.403526 -0.0599348 0.0413057)
(-0.405803 -0.0809901 0.0287491)
(-0.389002 -0.0855945 0.00867088)
(-0.344069 -0.0637176 -0.00300376)
(-0.287176 -0.0127772 0.00224299)
(-0.207285 0.0688534 0.00485742)
(-0.10007 0.137342 -0.0267216)
(-0.0109214 0.157876 -0.00956153)
(0.013112 0.117035 0.000393358)
(0.00426306 0.280831 -0.00459997)
(0.0711247 0.423714 -0.0285848)
(0.167112 0.495649 -0.0277968)
(0.20981 0.523285 -0.00954037)
(0.204158 0.537963 0.00496689)
(0.165069 0.554655 0.0137969)
(0.118069 0.565511 0.0200453)
(0.0744326 0.571646 0.0335645)
(0.031459 0.570643 0.0441636)
(-0.0172165 0.551067 0.0537006)
(-0.0788425 0.527287 0.0476467)
(-0.148329 0.477096 0.0382294)
(-0.216145 0.411091 0.0301435)
(-0.274631 0.340615 0.0274393)
(-0.320383 0.280038 0.0236007)
(-0.356142 0.224228 0.0158661)
(-0.380076 0.172353 0.00744062)
(-0.388262 0.125845 0.00114098)
(-0.383336 0.0908843 -0.00354621)
(-0.372019 0.0615851 -0.00905714)
(-0.338319 0.0343621 -0.0087569)
(-0.24964 0.0187975 -0.00757454)
(-0.181729 -0.0129952 -0.00878433)
(-0.159028 -0.0247808 -0.00619201)
(-0.154364 -0.0357543 0.000945402)
(-0.16559 -0.0389377 0.019285)
(-0.180592 -0.0466532 0.030626)
(-0.211008 -0.0526438 0.0428833)
(-0.248721 -0.0641316 0.0439599)
(-0.291845 -0.0816267 0.0446653)
(-0.338842 -0.0999599 0.0407983)
(-0.376765 -0.121089 0.0301359)
(-0.398616 -0.139743 0.0159532)
(-0.391823 -0.151915 0.00492572)
(-0.357695 -0.14012 -0.0115025)
(-0.295802 -0.0940525 -0.0115886)
(-0.215844 -0.000272718 -0.0039703)
(-0.116145 0.101968 -0.0122014)
(-0.0148693 0.151404 -0.0177918)
(0.0164005 0.126819 0.00174866)
(0.00559176 0.286857 0.00084467)
(0.0731414 0.444338 -0.0247753)
(0.167334 0.518214 -0.0255911)
(0.215669 0.54056 -0.00618188)
(0.222073 0.547987 0.0122192)
(0.186852 0.556679 0.0255091)
(0.141346 0.565739 0.0334106)
(0.0988246 0.569421 0.0385282)
(0.0492124 0.561301 0.0464949)
(-0.00228281 0.533304 0.0567302)
(-0.0744367 0.491979 0.0467012)
(-0.15861 0.425966 0.0348595)
(-0.225612 0.358694 0.0304213)
(-0.277141 0.297795 0.0251182)
(-0.321436 0.244146 0.020507)
(-0.361595 0.198952 0.0137655)
(-0.387708 0.156055 0.00618018)
(-0.391276 0.113697 0.00182139)
(-0.380475 0.060378 -0.00227881)
(-0.367355 0.02248 -0.00492101)
(-0.328237 -0.00979362 -0.00329021)
(-0.234245 -0.0460013 -0.00301167)
(-0.154952 -0.0790667 -0.010194)
(-0.12019 -0.0984802 -0.00790909)
(-0.105711 -0.11263 -0.000525352)
(-0.111959 -0.116047 0.00723636)
(-0.122941 -0.118479 0.0198471)
(-0.143725 -0.123984 0.0278006)
(-0.178672 -0.128206 0.0335727)
(-0.227634 -0.135561 0.035601)
(-0.280582 -0.149509 0.0324323)
(-0.3332 -0.170859 0.0255468)
(-0.370646 -0.19568 0.0142135)
(-0.384221 -0.214998 -0.0015663)
(-0.359045 -0.217604 -0.0157794)
(-0.300664 -0.176816 -0.0230803)
(-0.217999 -0.0915987 -0.0177922)
(-0.115583 0.0477065 0.00742612)
(-0.016347 0.12697 -0.0171713)
(0.01577 0.12845 0.000301964)
(0.00507135 0.281285 0.00410567)
(0.0694102 0.448925 -0.0229921)
(0.161601 0.527351 -0.0247117)
(0.214804 0.551122 -0.00499629)
(0.232624 0.554887 0.0172261)
(0.211894 0.558361 0.0325567)
(0.170631 0.566765 0.042094)
(0.12058 0.562306 0.0463085)
(0.0611484 0.544384 0.046419)
(-0.00224039 0.5051 0.050694)
(-0.0857942 0.443366 0.0439163)
(-0.170278 0.381215 0.0353431)
(-0.230114 0.320429 0.0296673)
(-0.280241 0.259247 0.0232217)
(-0.320371 0.203917 0.0161655)
(-0.357373 0.160825 0.00963319)
(-0.386751 0.135371 0.00386636)
(-0.40904 0.0760245 -0.000247454)
(-0.399657 0.0145284 0.00617808)
(-0.361999 -0.0315673 0.00315316)
(-0.318999 -0.0631515 -0.000780651)
(-0.226678 -0.0959639 -0.0110845)
(-0.135522 -0.134165 -0.0150169)
(-0.0873827 -0.160127 -0.0152163)
(-0.0600628 -0.175559 -0.012141)
(-0.0503303 -0.180863 -0.00504536)
(-0.0562259 -0.173037 0.00200328)
(-0.0760734 -0.169717 0.0137216)
(-0.105016 -0.169803 0.0217479)
(-0.150091 -0.177075 0.0265523)
(-0.207829 -0.186302 0.0280447)
(-0.269304 -0.207149 0.0250378)
(-0.322136 -0.234358 0.0153843)
(-0.355236 -0.26617 0.00152834)
(-0.350698 -0.2817 -0.0161313)
(-0.308393 -0.265024 -0.0286783)
(-0.221386 -0.181359 -0.0326553)
(-0.129886 -0.0354442 -0.0164902)
(-0.0275384 0.0954878 -0.0146326)
(0.0201626 0.126248 -0.00270052)
(0.00684083 0.252516 0.0111383)
(0.0688084 0.429139 -0.0153541)
(0.158555 0.514353 -0.0182003)
(0.219576 0.537953 0.00266877)
(0.250648 0.54094 0.0225693)
(0.240518 0.544076 0.037056)
(0.197572 0.546646 0.0472164)
(0.137647 0.538487 0.05105)
(0.0638034 0.517419 0.0504073)
(-0.0173875 0.474605 0.0478111)
(-0.0990764 0.413876 0.0431492)
(-0.173593 0.359492 0.0354049)
(-0.238173 0.298949 0.0288893)
(-0.28989 0.233187 0.0211246)
(-0.32544 0.170605 0.0120056)
(-0.34456 0.124895 0.00536358)
(-0.393164 0.0834736 -0.00262452)
(-0.434129 0.021366 0.00990205)
(-0.40731 -0.0362792 0.00995132)
(-0.359839 -0.0830579 -0.00389863)
(-0.304165 -0.106131 -0.013288)
(-0.214007 -0.127886 -0.0147325)
(-0.124269 -0.163925 -0.0191932)
(-0.063607 -0.19147 -0.0229399)
(-0.0235156 -0.216478 -0.0212491)
(0.00190856 -0.22738 -0.0153263)
(0.00998157 -0.223617 -0.0107201)
(-0.0056592 -0.209469 -0.00238934)
(-0.0360041 -0.194831 0.00804871)
(-0.0761904 -0.194724 0.018572)
(-0.129441 -0.204595 0.0232694)
(-0.195182 -0.231025 0.023442)
(-0.25907 -0.26464 0.0175623)
(-0.310074 -0.306428 0.00553345)
(-0.326828 -0.338211 -0.0100797)
(-0.298005 -0.33963 -0.024515)
(-0.2228 -0.277456 -0.0362583)
(-0.128604 -0.136249 -0.0290543)
(-0.026009 0.0510913 0.00281291)
(0.0146838 0.120048 -0.00372129)
(0.00290342 0.236934 0.0101986)
(0.0581897 0.41653 -0.0133714)
(0.146076 0.507874 -0.0184618)
(0.217929 0.537264 0.00605621)
(0.26971 0.538483 0.0187791)
(0.274479 0.535887 0.0381537)
(0.233789 0.533995 0.0457859)
(0.164981 0.522779 0.0484322)
(0.0768926 0.500959 0.0468543)
(-0.0168521 0.449981 0.0441944)
(-0.103048 0.398131 0.0387171)
(-0.181807 0.340743 0.0301632)
(-0.252727 0.278993 0.023613)
(-0.309671 0.21487 0.0147113)
(-0.336935 0.155803 0.00660021)
(-0.359648 0.0949158 -0.00379514)
(-0.40916 0.0251257 -0.00142586)
(-0.44777 -0.0202241 0.00804746)
(-0.421536 -0.0754915 -0.00848219)
(-0.347578 -0.117927 -0.0189098)
(-0.278382 -0.130636 -0.0211418)
(-0.197984 -0.144701 -0.0230402)
(-0.112317 -0.168621 -0.0264165)
(-0.0516194 -0.187321 -0.0299646)
(-0.00400352 -0.208341 -0.026626)
(0.0409268 -0.222162 -0.0207337)
(0.0697435 -0.23118 -0.0158962)
(0.0735458 -0.231052 -0.0118285)
(0.0483474 -0.222081 -0.00846661)
(8.93217e-05 -0.215032 0.000447677)
(-0.0601962 -0.217631 0.0104727)
(-0.126686 -0.238346 0.0187438)
(-0.192392 -0.270283 0.0185784)
(-0.253597 -0.322559 0.00990354)
(-0.287344 -0.373283 -0.00635308)
(-0.285064 -0.403832 -0.0238849)
(-0.229478 -0.366736 -0.0389997)
(-0.135956 -0.233764 -0.0365069)
(-0.0292443 -0.0227453 -0.0133951)
(0.0138956 0.107732 0.00178158)
(-0.00289357 0.199031 0.0130685)
(0.0412476 0.394892 -0.00548583)
(0.129893 0.494243 -0.00826016)
(0.209974 0.527051 0.00245984)
(0.275142 0.526977 0.0163827)
(0.29626 0.525147 0.035988)
(0.25991 0.536798 0.044592)
(0.184364 0.539736 0.0486745)
(0.0737748 0.529645 0.0452731)
(-0.0312456 0.487151 0.055751)
(-0.113563 0.444779 0.045282)
(-0.194831 0.388508 0.0327747)
(-0.266121 0.323605 0.0251535)
(-0.318816 0.250185 0.0128514)
(-0.356581 0.171966 -0.00245105)
(-0.391328 0.0759592 -0.010756)
(-0.427289 -0.000976946 -0.00942401)
(-0.454659 -0.0549471 -0.0165651)
(-0.424075 -0.0999815 -0.0276306)
(-0.333586 -0.136902 -0.0305013)
(-0.250134 -0.150654 -0.0303718)
(-0.17229 -0.157686 -0.0308146)
(-0.0879195 -0.165536 -0.0322377)
(-0.0237424 -0.172966 -0.0336965)
(0.0240167 -0.174986 -0.0296186)
(0.0664411 -0.178148 -0.0243394)
(0.0967737 -0.182501 -0.0172893)
(0.111377 -0.188729 -0.0101098)
(0.105057 -0.194265 -0.00526604)
(0.0762354 -0.203983 -0.000743758)
(0.0241871 -0.223331 0.00342273)
(-0.0415959 -0.260895 0.00643917)
(-0.119235 -0.301112 0.00414705)
(-0.200246 -0.362865 -0.00196522)
(-0.257004 -0.433771 -0.0137605)
(-0.270496 -0.494877 -0.0292412)
(-0.224506 -0.487067 -0.0454477)
(-0.144844 -0.358516 -0.0472336)
(-0.0382458 -0.128026 -0.0171927)
(0.0114955 0.0796697 0.0159029)
(-0.00746703 0.296691 0.0106362)
(0.0282771 0.510713 -0.0098647)
(0.110815 0.62084 -0.0086817)
(0.196711 0.656209 -0.00172376)
(0.283744 0.657973 0.0172695)
(0.341056 0.652765 0.0360432)
(0.32453 0.656046 0.0422367)
(0.240678 0.647864 0.0449288)
(0.108738 0.626527 0.0404111)
(-0.0155849 0.58772 0.0539532)
(-0.112851 0.540618 0.0423926)
(-0.211897 0.471319 0.0240016)
(-0.299129 0.387659 0.0161884)
(-0.371281 0.289642 0.00198975)
(-0.425056 0.174401 -0.0140018)
(-0.449857 0.0701284 -0.0257675)
(-0.459057 -0.0159176 -0.0274099)
(-0.466877 -0.0779039 -0.0372742)
(-0.424848 -0.119188 -0.0478379)
(-0.320622 -0.154216 -0.0462195)
(-0.223372 -0.164759 -0.039496)
(-0.138987 -0.169994 -0.0387847)
(-0.0545919 -0.169318 -0.039953)
(0.0121683 -0.166293 -0.0334278)
(0.0660758 -0.15744 -0.0257207)
(0.112796 -0.149667 -0.0207485)
(0.145468 -0.138976 -0.0167677)
(0.159205 -0.131496 -0.0115097)
(0.146733 -0.129512 -0.00826617)
(0.107196 -0.143146 -0.000587754)
(0.0480776 -0.168004 0.0103511)
(-0.00481141 -0.225608 0.019334)
(-0.0637903 -0.305304 0.016373)
(-0.14746 -0.399984 0.00698525)
(-0.222382 -0.495002 -0.00591987)
(-0.260877 -0.587728 -0.0226252)
(-0.222466 -0.609948 -0.0379267)
(-0.152826 -0.521758 -0.0509019)
(-0.0449933 -0.2321 -0.0208012)
(0.017827 0.0497593 0.018179)
(-0.0238511 0.332285 -0.00123941)
(0.00369545 0.565783 -0.0229521)
(0.0957031 0.690474 -0.0250967)
(0.190041 0.746155 -0.0242242)
(0.291481 0.75948 -0.00479921)
(0.361275 0.746614 0.0126472)
(0.341686 0.715622 0.0229375)
(0.241921 0.67491 0.0334221)
(0.0997085 0.634357 0.0352038)
(-0.0304302 0.589099 0.0514556)
(-0.143012 0.539503 0.0445245)
(-0.25984 0.468247 0.0285377)
(-0.359334 0.384624 0.0218822)
(-0.444839 0.283944 0.00588315)
(-0.490496 0.175763 -0.012826)
(-0.498341 0.074103 -0.0389829)
(-0.494318 -0.0168706 -0.0549624)
(-0.478835 -0.0887647 -0.0629687)
(-0.42377 -0.134008 -0.065007)
(-0.305153 -0.175846 -0.0589136)
(-0.194161 -0.187425 -0.0448613)
(-0.10695 -0.192074 -0.0436212)
(-0.0154646 -0.189896 -0.0437427)
(0.0571884 -0.176314 -0.0287495)
(0.111569 -0.159698 -0.0218221)
(0.159259 -0.148776 -0.0185519)
(0.195133 -0.136163 -0.01254)
(0.210605 -0.127109 -0.00393446)
(0.198149 -0.119062 -0.000394704)
(0.164973 -0.121036 0.00288352)
(0.0994556 -0.123627 0.0130094)
(0.0163168 -0.161938 0.0221547)
(-0.0582968 -0.234018 0.030702)
(-0.125406 -0.346266 0.0271516)
(-0.194613 -0.5014 0.0185606)
(-0.238241 -0.662462 0.00186045)
(-0.225186 -0.735448 -0.0194512)
(-0.141787 -0.692219 -0.0301298)
(-0.0350298 -0.414792 -0.0364312)
(0.00900062 -0.016345 0.0306578)
(-0.00486916 0.254509 0.0206456)
(0.0250618 0.492063 -0.0116789)
(0.0968962 0.625574 -0.0183206)
(0.187318 0.692461 -0.0186426)
(0.284171 0.71188 -0.00321165)
(0.348385 0.693532 0.0138337)
(0.332256 0.648429 0.0289134)
(0.244405 0.605401 0.0429674)
(0.105479 0.568943 0.0488494)
(-0.029959 0.539282 0.0649078)
(-0.155037 0.498097 0.0629157)
(-0.286678 0.445112 0.0469501)
(-0.401316 0.381775 0.0373354)
(-0.496978 0.300673 0.0173876)
(-0.551863 0.215364 -0.0155721)
(-0.560214 0.112126 -0.0500464)
(-0.541165 0.0136312 -0.0863133)
(-0.505502 -0.0659862 -0.093392)
(-0.436513 -0.126661 -0.0870664)
(-0.301777 -0.179881 -0.0795848)
(-0.17008 -0.202108 -0.0543952)
(-0.0738146 -0.205949 -0.0500273)
(0.0279187 -0.204418 -0.047763)
(0.109316 -0.184258 -0.0265379)
(0.161873 -0.165412 -0.0145543)
(0.207263 -0.156745 -0.013106)
(0.242834 -0.146661 -0.00855824)
(0.260017 -0.142471 -0.00105679)
(0.249127 -0.137532 0.0055409)
(0.219098 -0.141515 0.011383)
(0.153793 -0.144689 0.0162635)
(0.0720982 -0.16665 0.0304994)
(-0.0124208 -0.206659 0.0406134)
(-0.133121 -0.279781 0.0377613)
(-0.241407 -0.408094 0.043205)
(-0.271044 -0.602983 0.0369703)
(-0.240308 -0.738363 0.017759)
(-0.169299 -0.759914 -0.00674655)
(-0.0331458 -0.544091 -0.0173979)
(0.031941 -0.0846519 0.00103492)
(-0.0027074 0.21686 0.0274931)
(0.0318111 0.428284 -0.000846192)
(0.103142 0.559052 -0.00858219)
(0.189632 0.630194 -0.00695533)
(0.280333 0.655039 0.00615344)
(0.334166 0.633442 0.0242024)
(0.318983 0.586364 0.0410467)
(0.237842 0.539152 0.0565762)
(0.109664 0.497983 0.0661184)
(-0.0249146 0.476537 0.0793306)
(-0.161469 0.444044 0.080666)
(-0.299146 0.409822 0.0679894)
(-0.424656 0.368824 0.0583597)
(-0.530308 0.317922 0.0373871)
(-0.597443 0.255395 -0.00150702)
(-0.617884 0.17489 -0.045157)
(-0.591102 0.0798329 -0.0897259)
(-0.539946 -0.00992233 -0.117087)
(-0.461798 -0.0855096 -0.111212)
(-0.308552 -0.14968 -0.106355)
(-0.151143 -0.188376 -0.0737796)
(-0.0420298 -0.208613 -0.0591095)
(0.0724299 -0.213002 -0.0486303)
(0.16245 -0.198589 -0.0150459)
(0.206542 -0.182803 0.000476107)
(0.247403 -0.174701 -0.00117838)