/*--------------------------------*- C++ -*----------------------------------*\
| =========                 |                                                 |
| \\      /  F ield         | OpenFOAM: The Open Source CFD Toolbox           |
|  \\    /   O peration     | Version:  v1806                                 |
|   \\  /    A nd           | Web:      www.OpenFOAM.com                      |
|    \\/     M anipulation  |                                                 |
\*---------------------------------------------------------------------------*/
FoamFile
{
    version     2.0;
    format      ascii;
    class       volScalarField;
    location    "0.081";
    object      p;
}
// * * * * * * * * * * * * * * * * * * * * * * * * * * * * * * * * * * * * * //

dimensions      [0 2 -2 0 0 0 0];


internalField   nonuniform List<scalar> 
64000
(
1.25972e-05
-0.108693
-0.257036
-0.352663
-0.425766
-0.484712
-0.541728
-0.59197
-0.638423
-0.689825
-0.726686
-0.77487
-0.815623
-0.876234
-0.884253
-0.948229
-0.899701
-0.993012
-0.860463
-1.0765
-0.803926
-0.966445
-0.88049
-0.939105
-0.805462
-0.773464
-0.641307
-0.58891
-0.522403
-0.517264
-0.508314
-0.533154
-0.588957
-0.622963
-0.669168
-0.673741
-0.698353
-0.692989
-0.704129
-0.698076
-0.10318
-0.214803
-0.302088
-0.37139
-0.43436
-0.48557
-0.533159
-0.582513
-0.62495
-0.671898
-0.709613
-0.755287
-0.775373
-0.814606
-0.81529
-0.859981
-0.863563
-0.946624
-0.819381
-0.998629
-0.742632
-0.883059
-0.827198
-0.871878
-0.732206
-0.703182
-0.585736
-0.546419
-0.493204
-0.485937
-0.507365
-0.496186
-0.56301
-0.587436
-0.636816
-0.644418
-0.670835
-0.67403
-0.692293
-0.690258
-0.249201
-0.293308
-0.346145
-0.39779
-0.452918
-0.492046
-0.544347
-0.582952
-0.621704
-0.671884
-0.712189
-0.769025
-0.804023
-0.875694
-0.90187
-0.974465
-0.943456
-1.03793
-0.929106
-1.14489
-0.952119
-1.12437
-1.13687
-1.2284
-1.13127
-1.13127
-1.03597
-0.995783
-0.916253
-0.856456
-0.814568
-0.7648
-0.764444
-0.716068
-0.721083
-0.701185
-0.709532
-0.702647
-0.71292
-0.711538
-0.324903
-0.343424
-0.377357
-0.419974
-0.449846
-0.491461
-0.532651
-0.57721
-0.639649
-0.700169
-0.751086
-0.836196
-0.895057
-0.977515
-1.01237
-1.08331
-1.09648
-1.21181
-1.14418
-1.38362
-1.23387
-1.41083
-1.48397
-1.59558
-1.52788
-1.53447
-1.44075
-1.38464
-1.28181
-1.18385
-1.0901
-0.978478
-0.910152
-0.833732
-0.794994
-0.753789
-0.758223
-0.736025
-0.740175
-0.740219
-0.378305
-0.381515
-0.41421
-0.431246
-0.485214
-0.514019
-0.584486
-0.630329
-0.706226
-0.783111
-0.877155
-1.00229
-1.08896
-1.18366
-1.24622
-1.34343
-1.37223
-1.49233
-1.42767
-1.67691
-1.56708
-1.7306
-1.82568
-1.9466
-1.8933
-1.89844
-1.80269
-1.73119
-1.61703
-1.49726
-1.36706
-1.23378
-1.10241
-0.990419
-0.89386
-0.830401
-0.800879
-0.780814
-0.780794
-0.780313
-0.409755
-0.418312
-0.429325
-0.47291
-0.490207
-0.546581
-0.600179
-0.715388
-0.845208
-0.99051
-1.11874
-1.21833
-1.31055
-1.40502
-1.46725
-1.5755
-1.59248
-1.7178
-1.67889
-1.88726
-1.81263
-1.95366
-2.06876
-2.16587
-2.11774
-2.11405
-2.01459
-1.94355
-1.81503
-1.70031
-1.55117
-1.40215
-1.25132
-1.13735
-1.01526
-0.896202
-0.861376
-0.830514
-0.830035
-0.832322
-0.462222
-0.446177
-0.486048
-0.538089
-0.626649
-0.677192
-0.824277
-0.964683
-1.10176
-1.21068
-1.32825
-1.44904
-1.55406
-1.66522
-1.73498
-1.82745
-1.86172
-1.96208
-1.93691
-2.11979
-2.11839
-2.13124
-2.24407
-2.32081
-2.27657
-2.2656
-2.1747
-2.10188
-1.98776
-1.87109
-1.71831
-1.56184
-1.37733
-1.23445
-1.10098
-0.961257
-0.902667
-0.876496
-0.87552
-0.881681
-0.486281
-0.484143
-0.524283
-0.602528
-0.695099
-0.79353
-1.00239
-1.07363
-1.25105
-1.38557
-1.53574
-1.66008
-1.78136
-1.87952
-1.96384
-2.05708
-2.08799
-2.17903
-2.17418
-2.27538
-2.33011
-2.29474
-2.35459
-2.43362
-2.39064
-2.37705
-2.29149
-2.22792
-2.11922
-2.01717
-1.87329
-1.71168
-1.53561
-1.35796
-1.23967
-1.05493
-0.979266
-0.942785
-0.93916
-0.950461
-0.523444
-0.507139
-0.575093
-0.663986
-0.798402
-0.956492
-1.13133
-1.27402
-1.41183
-1.57999
-1.72436
-1.86006
-1.98193
-2.09388
-2.18686
-2.27675
-2.32514
-2.39113
-2.40056
-2.42726
-2.49617
-2.46922
-2.43227
-2.52148
-2.48542
-2.47024
-2.3967
-2.33037
-2.24679
-2.14695
-2.00678
-1.84339
-1.66692
-1.4641
-1.31953
-1.15717
-1.03453
-1.00317
-0.994071
-1.01049
-0.590256
-0.579884
-0.653171
-0.769106
-0.922382
-1.11168
-1.27679
-1.42593
-1.59031
-1.73051
-1.88838
-2.02481
-2.14851
-2.25829
-2.35023
-2.44295
-2.49815
-2.56045
-2.57951
-2.59221
-2.62973
-2.64976
-2.51086
-2.60017
-2.57281
-2.56013
-2.49043
-2.44018
-2.35972
-2.26319
-2.14327
-1.98331
-1.80363
-1.60779
-1.44609
-1.28064
-1.14247
-1.09299
-1.07863
-1.09785
-0.628629
-0.616893
-0.713463
-0.83958
-1.04862
-1.21416
-1.40189
-1.56785
-1.73831
-1.89361
-2.03641
-2.16356
-2.28914
-2.40006
-2.49755
-2.57743
-2.63986
-2.69344
-2.71418
-2.72727
-2.73269
-2.7634
-2.58847
-2.66815
-2.63818
-2.64508
-2.57574
-2.54189
-2.46466
-2.3824
-2.25581
-2.11118
-1.92383
-1.71246
-1.51827
-1.37722
-1.22172
-1.15662
-1.14255
-1.16157
-0.743311
-0.736933
-0.833407
-0.99403
-1.18365
-1.36594
-1.5483
-1.71753
-1.89119
-2.03527
-2.1851
-2.30984
-2.41441
-2.51215
-2.6095
-2.69015
-2.75566
-2.81569
-2.83336
-2.85764
-2.84522
-2.86516
-2.67036
-2.7366
-2.71892
-2.71677
-2.67366
-2.63272
-2.57189
-2.4905
-2.38176
-2.22365
-2.05058
-1.85747
-1.648
-1.49404
-1.33991
-1.27359
-1.24366
-1.26838
-0.779351
-0.773128
-0.893425
-1.05277
-1.258
-1.43933
-1.63869
-1.80426
-1.97955
-2.1291
-2.28387
-2.4065
-2.53934
-2.62716
-2.71864
-2.80203
-2.87987
-2.93019
-2.96616
-2.97314
-2.94466
-2.95344
-2.65396
-2.75089
-2.74756
-2.77897
-2.74609
-2.72338
-2.66384
-2.593
-2.46705
-2.35285
-2.18758
-2.00299
-1.77861
-1.59742
-1.42501
-1.34403
-1.31124
-1.33289
-0.931744
-0.933521
-1.04465
-1.20605
-1.39815
-1.58621
-1.77528
-1.94075
-2.1062
-2.25036
-2.39541
-2.52421
-2.63777
-2.74329
-2.80951
-2.90456
-2.98498
-3.04374
-3.09315
-3.07093
-3.08395
-2.98107
-2.66789
-2.74487
-2.80901
-2.83917
-2.82898
-2.80576
-2.75505
-2.67271
-2.61335
-2.49012
-2.34056
-2.15312
-1.9551
-1.75386
-1.57937
-1.48442
-1.44366
-1.47119
-0.94402
-0.945724
-1.06697
-1.22721
-1.42979
-1.61788
-1.80681
-1.96477
-2.13346
-2.27422
-2.42815
-2.56567
-2.7091
-2.82714
-2.93912
-3.01117
-3.11219
-3.16396
-3.19674
-3.20842
-3.17986
-2.86638
-2.79793
-2.82554
-2.83928
-2.909
-2.90276
-2.88947
-2.82936
-2.79883
-2.71236
-2.60496
-2.46001
-2.28448
-2.08606
-1.87314
-1.69571
-1.54809
-1.50967
-1.53094
-1.10506
-1.1045
-1.21245
-1.36664
-1.55412
-1.7358
-1.91383
-2.07338
-2.23658
-2.38747
-2.55019
-2.69312
-2.836
-2.94787
-3.04433
-3.11039
-3.19449
-3.238
-3.31874
-3.27939
-3.05866
-2.98379
-2.93406
-2.92139
-2.91571
-2.95678
-2.9557
-2.93705
-2.92959
-2.88608
-2.8308
-2.74685
-2.63598
-2.48212
-2.29423
-2.09407
-1.90004
-1.79212
-1.68667
-1.71391
-1.03789
-1.05741
-1.17431
-1.33588
-1.53333
-1.72966
-1.90764
-2.05699
-2.20591
-2.34535
-2.49371
-2.65316
-2.81552
-2.97465
-3.10897
-3.23517
-3.29902
-3.36413
-3.32149
-3.20851
-3.15125
-3.10139
-3.06841
-3.03663
-3.01838
-3.01607
-3.04308
-3.03817
-3.01342
-2.95747
-2.88654
-2.79366
-2.67982
-2.53291
-2.35955
-2.16805
-1.97991
-1.83744
-1.73558
-1.77745
-1.15556
-1.15044
-1.23929
-1.37357
-1.54773
-1.71657
-1.90722
-2.07333
-2.25736
-2.43421
-2.63105
-2.80645
-2.97863
-3.10666
-3.1954
-3.22726
-3.27641
-3.23396
-3.22737
-3.20421
-3.23679
-3.20205
-3.1926
-3.14567
-3.11285
-3.04915
-3.05911
-3.05759
-3.05394
-3.03819
-3.02874
-3.0005
-2.96111
-2.84931
-2.69292
-2.48375
-2.28988
-2.0969
-1.96269
-1.9619
-0.941792
-0.949766
-1.04545
-1.18693
-1.38952
-1.58348
-1.7795
-1.92632
-2.05099
-2.19163
-2.34015
-2.50073
-2.64756
-2.81396
-2.9495
-3.11352
-3.26646
-3.33353
-3.39704
-3.40378
-3.36748
-3.35339
-3.31403
-3.27765
-3.24962
-3.2113
-3.14684
-3.1201
-3.09035
-3.00178
-2.90908
-2.79983
-2.73187
-2.6078
-2.50745
-2.3639
-2.27006
-2.06013
-2.09096
-2.10267
-1.03939
-0.992487
-1.03062
-1.09702
-1.22377
-1.33962
-1.49575
-1.70269
-1.9751
-2.23027
-2.48786
-2.7138
-2.90661
-3.0692
-3.21553
-3.32959
-3.45328
-3.53308
-3.57228
-3.57087
-3.56714
-3.46935
-3.46264
-3.4126
-3.35291
-3.28304
-3.2126
-3.09655
-3.06418
-3.10899
-3.2257
-3.27985
-3.25124
-3.19539
-3.06254
-2.83496
-2.56792
-2.42127
-1.98808
-2.06379
-0.96479
-0.971293
-1.01222
-1.10466
-1.25041
-1.39335
-1.55118
-1.73411
-1.97421
-2.21703
-2.46359
-2.70484
-2.91427
-3.11418
-3.28398
-3.44442
-3.5916
-3.68571
-3.77381
-3.74302
-3.72828
-3.6311
-3.61554
-3.52041
-3.44602
-3.36323
-3.29532
-3.20153
-3.11672
-2.98859
-2.87
-2.74964
-2.75121
-2.81422
-2.92455
-2.87554
-2.83257
-2.68351
-2.73479
-2.53505
-1.01905
-1.01177
-1.04261
-1.10639
-1.22304
-1.35011
-1.50545
-1.69933
-1.96646
-2.24708
-2.53471
-2.79423
-3.02599
-3.2353
-3.42666
-3.58624
-3.7304
-3.82927
-3.91777
-3.92934
-3.88392
-3.80116
-3.70134
-3.62981
-3.57484
-3.44419
-3.38334
-3.28047
-3.22886
-3.12689
-3.07579
-2.95003
-2.8341
-2.55817
-2.25626
-2.03708
-1.93798
-1.85879
-1.79753
-1.85569
-1.0076
-1.01549
-1.05171
-1.12079
-1.2433
-1.37179
-1.52772
-1.72243
-1.9776
-2.27157
-2.56159
-2.82901
-3.07283
-3.2948
-3.50489
-3.67694
-3.83784
-3.91651
-4.01641
-4.03112
-4.02034
-3.90265
-3.80367
-3.68209
-3.62074
-3.52017
-3.44264
-3.33923
-3.27548
-3.16011
-3.09473
-2.93407
-2.85077
-2.63172
-2.50406
-2.31345
-2.20009
-2.03095
-2.02498
-2.14436
-1.04564
-1.02381
-1.09595
-1.14491
-1.26887
-1.38799
-1.53649
-1.73183
-1.99072
-2.28288
-2.57842
-2.84629
-3.09831
-3.32586
-3.55004
-3.72567
-3.88548
-3.96123
-4.04291
-4.1168
-4.1221
-4.03923
-3.87333
-3.78996
-3.6967
-3.53501
-3.51365
-3.37429
-3.32673
-3.18861
-3.13735
-2.97737
-2.89608
-2.68392
-2.57216
-2.38461
-2.26837
-2.07454
-1.91655
-1.99146
-1.06579
-1.05032
-1.12206
-1.16993
-1.28884
-1.40675
-1.55247
-1.73617
-1.98433
-2.2756
-2.58667
-2.84212
-3.09419
-3.31747
-3.5577
-3.72666
-3.90163
-3.96351
-4.13807
-4.15303
-4.19213
-4.11597
-3.9374
-3.83024
-3.73614
-3.60825
-3.52615
-3.43034
-3.38032
-3.24993
-3.20971
-3.04332
-2.98076
-2.78356
-2.71962
-2.54257
-2.47895
-2.30763
-2.2492
-2.34596
-1.0861
-1.05301
-1.13263
-1.17976
-1.29591
-1.41811
-1.54983
-1.7504
-1.99582
-2.25751
-2.51199
-2.7652
-3.01821
-3.27395
-3.51239
-3.69067
-3.87661
-3.98179
-4.15033
-4.13007
-4.17685
-4.09848
-3.97046
-3.86065
-3.79002
-3.63706
-3.60083
-3.38536
-3.39182
-3.20629
-3.15356
-2.93908
-2.88386
-2.67511
-2.63572
-2.45695
-2.40301
-2.22702
-2.11461
-2.11117
-1.12168
-1.09782
-1.16229
-1.2216
-1.32388
-1.44796
-1.58353
-1.78858
-2.01556
-2.26028
-2.51426
-2.74385
-2.99156
-3.17757
-3.44989
-3.65348
-3.89378
-3.99569
-4.12197
-4.09556
-4.1593
-4.09136
-4.02222
-3.88635
-3.82603
-3.68355
-3.66531
-3.52144
-3.58175
-3.52316
-3.67364
-3.64664
-3.75645
-3.63074
-3.65127
-3.45265
-3.39108
-3.1653
-3.0165
-2.88579
-1.11232
-1.09371
-1.11773
-1.20425
-1.30368
-1.41332
-1.58127
-1.76077
-1.99296
-2.21941
-2.46767
-2.69066
-2.93237
-3.13095
-3.36294
-3.52003
-3.76899
-3.85372
-4.00754
-4.01431
-4.06633
-4.05687
-3.9977
-3.8986
-3.89177
-3.75319
-3.77367
-3.62423
-3.72931
-3.57644
-3.65183
-3.47117
-3.51848
-3.34354
-3.43109
-3.28123
-3.36355
-3.20653
-3.25666
-3.22687
-1.16675
-1.15396
-1.18093
-1.23478
-1.34271
-1.42032
-1.60121
-1.78404
-2.00541
-2.21874
-2.45552
-2.65949
-2.89341
-3.06435
-3.28879
-3.41406
-3.65046
-3.76013
-3.93458
-3.91541
-3.96997
-3.98569
-3.96903
-3.81224
-3.87199
-3.74147
-3.78592
-3.67174
-3.74491
-3.62265
-3.74405
-3.54705
-3.61157
-3.40431
-3.48108
-3.29659
-3.34933
-3.12288
-3.09533
-2.93535
-1.12926
-1.11562
-1.14273
-1.17796
-1.29142
-1.37218
-1.54612
-1.71037
-1.93421
-2.12602
-2.35941
-2.55138
-2.77781
-2.93982
-3.14069
-3.2549
-3.48068
-3.62956
-3.76254
-3.7843
-3.79867
-3.85062
-3.86044
-3.7651
-3.82571
-3.67929
-3.72124
-3.5717
-3.80466
-3.53662
-3.67808
-3.43478
-3.54291
-3.28469
-3.42076
-3.14055
-3.2405
-2.93255
-2.90418
-2.76166
-1.20174
-1.19665
-1.20884
-1.21363
-1.32523
-1.42114
-1.57528
-1.72667
-1.93055
-2.11198
-2.33436
-2.51167
-2.73056
-2.88454
-3.07337
-3.21733
-3.4345
-3.53157
-3.70945
-3.68846
-3.657
-3.71202
-3.73848
-3.63171
-3.71314
-3.52718
-3.52985
-3.8056
-3.75084
-3.59846
-3.79672
-3.4659
-3.59829
-3.27921
-3.43364
-3.12509
-3.19711
-2.82043
-2.71273
-2.46543
-1.1308
-1.11843
-1.1417
-1.13356
-1.19316
-1.31156
-1.4708
-1.59581
-1.80562
-1.9708
-2.20084
-2.36615
-2.59824
-2.72858
-2.96292
-3.10568
-3.29129
-3.40357
-3.49161
-3.5545
-3.47264
-3.55051
-3.5807
-3.469
-3.58417
-3.38923
-3.44934
-3.8146
-3.75292
-3.5874
-3.74655
-3.48145
-3.61474
-3.23199
-3.40371
-2.95003
-3.11342
-2.58624
-2.47454
-2.04405
-1.23466
-1.23404
-1.24343
-1.24105
-1.27125
-1.3538
-1.5081
-1.60805
-1.79795
-1.94497
-2.16703
-2.33383
-2.53139
-2.70672
-2.91574
-3.05477
-3.23332
-3.35299
-3.41756
-3.49807
-3.32258
-3.43553
-3.45541
-3.32421
-3.46974
-3.24777
-3.32338
-3.83307
-3.78139
-3.5939
-3.80856
-3.45518
-3.70884
-3.25725
-3.45715
-2.93252
-3.04158
-2.44546
-2.22829
-1.57719
-1.11976
-1.10146
-1.14072
-1.09145
-1.14714
-1.15576
-1.36193
-1.42383
-1.62281
-1.76367
-1.9787
-2.1306
-2.40015
-2.55478
-2.78417
-2.93412
-3.10537
-3.24424
-3.27321
-3.38984
-3.12082
-3.26116
-3.26665
-3.13127
-3.2957
-3.09603
-3.14211
-3.84462
-3.74298
-3.67928
-3.80145
-3.43291
-3.69288
-3.2025
-3.46632
-2.79761
-2.95442
-2.02428
-1.89669
-0.809019
-1.25689
-1.27332
-1.26719
-1.2509
-1.26616
-1.21427
-1.40081
-1.43951
-1.62104
-1.71757
-1.95818
-2.12103
-2.36594
-2.53658
-2.76456
-2.91336
-3.08564
-3.2371
-3.24337
-3.36953
-3.02431
-3.17374
-3.14458
-2.98261
-3.13744
-2.94024
-2.99293
-3.80846
-3.80962
-3.63923
-3.89697
-3.46181
-3.79553
-3.20914
-3.56872
-2.857
-3.0459
-1.8556
-1.609
0.0289442
-1.1252
-1.05911
-1.12986
-1.01935
-1.10037
-0.980574
-1.18374
-1.19834
-1.38559
-1.52325
-1.76415
-1.93291
-2.20776
-2.38888
-2.64141
-2.81433
-2.9895
-3.16073
-3.15617
-3.2747
-2.86097
-2.9935
-2.93431
-2.76774
-2.91239
-2.73873
-2.88903
-3.72096
-3.82192
-3.67185
-3.94835
-3.37736
-3.82008
-3.12569
-3.47731
-2.65065
-2.91217
-1.28092
-1.01059
1.71739
-1.2845
-1.36372
-1.27193
-1.27436
-1.20318
-1.14554
-1.18726
-1.21799
-1.3826
-1.48794
-1.71639
-1.88405
-2.14833
-2.33831
-2.59918
-2.79136
-2.99153
-3.16727
-3.20348
-3.25323
-2.80417
-2.87903
-2.8067
-2.58872
-2.71788
-2.53586
-2.83371
-3.58036
-3.86682
-3.68537
-4.03488
-3.50014
-3.89445
-3.16672
-3.67844
-2.63654
-3.16117
-1.08504
-0.610522
3.42677
-1.54487
-1.10875
-1.22555
-0.897484
-0.991213
-0.803659
-0.914569
-0.966151
-1.13615
-1.2545
-1.50544
-1.67573
-1.96414
-2.16568
-2.44592
-2.65916
-2.88104
-3.10911
-3.14167
-3.13052
-2.69846
-2.63807
-2.53092
-2.30427
-2.45769
-2.29968
-2.82089
-3.44398
-3.90511
-3.70428
-4.07334
-3.48489
-3.84851
-2.99491
-3.47693
-2.12179
-2.54901
0.0107714
1.00145
7.94905
-1.39187
-1.66285
-1.46413
-1.43029
-1.0278
-0.975589
-0.9185
-0.935633
-1.09567
-1.19294
-1.41779
-1.58647
-1.8639
-2.06596
-2.34867
-2.57598
-2.83896
-3.10258
-3.26513
-3.08139
-2.73587
-2.54154
-2.38497
-2.07216
-2.266
-2.09716
-2.80882
-3.29315
-3.9261
-3.69828
-4.11547
-3.54092
-3.96236
-3.10747
-3.64193
-2.29772
-2.79943
0.739609
2.4159
11.8302
-3.89745
-1.15152
-1.4519
-1.00313
-0.915241
-0.686689
-0.76666
-0.781331
-0.962181
-1.08539
-1.3387
-1.50199
-1.78785
-1.99027
-2.278
-2.52148
-2.84858
-3.12117
-3.25281
-2.99119
-2.6393
-2.29142
-2.09584
-1.79562
-2.10609
-2.08905
-2.94915
-3.39264
-4.06481
-3.78165
-4.13697
-3.44225
-3.8018
-2.9277
-3.26411
-1.51737
-1.13689
4.79675
9.7599
24.6708
-0.109043
-0.215939
-0.302765
-0.37303
-0.433885
-0.48907
-0.54344
-0.597232
-0.648468
-0.696716
-0.733118
-0.795016
-0.825707
-0.883302
-0.897621
-0.9577
-0.918848
-1.01383
-0.927515
-1.13635
-0.883253
-0.995359
-0.976528
-1.01649
-0.884837
-0.855208
-0.733898
-0.694678
-0.633006
-0.610917
-0.612321
-0.594717
-0.645154
-0.656287
-0.689957
-0.684524
-0.698009
-0.692536
-0.706261
-0.695247
-0.212505
-0.274714
-0.332715
-0.391377
-0.440657
-0.492148
-0.534862
-0.588664
-0.614238
-0.676814
-0.69782
-0.783791
-0.78509
-0.83155
-0.827517
-0.885547
-0.866777
-0.963115
-0.846718
-1.04764
-0.884487
-0.987606
-0.960106
-1.01717
-0.894912
-0.889404
-0.783451
-0.753988
-0.697797
-0.66538
-0.656489
-0.650998
-0.634377
-0.640536
-0.672513
-0.668705
-0.687077
-0.681842
-0.695044
-0.684196
-0.304201
-0.327592
-0.365998
-0.40342
-0.454364
-0.49306
-0.542873
-0.577595
-0.651186
-0.686919
-0.729354
-0.777926
-0.808935
-0.866683
-0.9019
-1.00208
-0.982892
-1.07777
-0.993033
-1.22102
-1.12141
-1.26994
-1.32148
-1.42602
-1.33692
-1.34728
-1.25459
-1.2167
-1.13493
-1.05489
-0.96916
-0.877655
-0.831632
-0.780777
-0.762907
-0.72275
-0.725371
-0.71201
-0.717524
-0.70969
-0.348268
-0.371185
-0.390319
-0.427291
-0.453532
-0.49764
-0.540599
-0.593457
-0.647123
-0.707477
-0.754285
-0.826385
-0.891372
-0.993168
-1.03361
-1.14074
-1.14547
-1.27022
-1.21814
-1.46856
-1.43623
-1.61166
-1.6996
-1.8133
-1.73544
-1.73946
-1.63557
-1.56651
-1.45189
-1.33024
-1.20884
-1.06873
-0.961294
-0.861989
-0.825761
-0.7737
-0.772116
-0.746883
-0.746756
-0.74053
-0.396428
-0.406601
-0.422829
-0.443276
-0.496272
-0.508697
-0.576429
-0.640795
-0.719829
-0.795108
-0.88798
-1.01493
-1.10864
-1.20412
-1.26953
-1.39447
-1.42057
-1.55023
-1.54154
-1.75722
-1.7228
-1.88999
-1.99642
-2.09691
-2.0167
-2.01845
-1.91408
-1.84527
-1.70368
-1.55803
-1.40087
-1.26031
-1.12469
-0.99821
-0.898414
-0.84078
-0.812341
-0.790131
-0.783374
-0.782345
-0.432631
-0.427911
-0.45337
-0.489659
-0.493255
-0.542302
-0.60371
-0.712625
-0.859456
-1.00033
-1.12693
-1.2296
-1.32452
-1.43012
-1.49674
-1.6311
-1.6645
-1.77903
-1.74503
-1.93959
-1.93526
-2.08372
-2.19409
-2.28755
-2.22172
-2.1951
-2.08989
-1.9909
-1.88685
-1.72847
-1.57171
-1.40174
-1.25492
-1.1375
-1.01254
-0.914797
-0.879035
-0.847766
-0.837338
-0.838786
-0.46652
-0.470176
-0.510376
-0.548282
-0.604854
-0.644942
-0.781621
-0.979013
-1.10301
-1.21538
-1.33473
-1.45979
-1.5695
-1.67992
-1.76897
-1.86001
-1.90306
-2.0011
-1.98889
-2.13022
-2.15821
-2.2135
-2.30614
-2.38819
-2.32533
-2.30059
-2.20491
-2.12296
-1.98721
-1.8594
-1.69605
-1.5247
-1.35746
-1.21136
-1.09903
-0.970876
-0.914504
-0.888477
-0.878719
-0.884934
-0.503034
-0.511114
-0.558822
-0.624545
-0.701947
-0.774556
-0.990885
-1.0903
-1.25477
-1.39332
-1.53251
-1.6711
-1.78552
-1.90224
-1.98081
-2.07339
-2.10254
-2.18693
-2.18741
-2.2699
-2.31921
-2.32837
-2.3693
-2.45968
-2.41278
-2.39348
-2.31433
-2.23344
-2.1269
-1.9862
-1.83659
-1.67687
-1.51267
-1.34237
-1.21821
-1.07961
-1.0014
-0.967827
-0.95174
-0.96021
-0.540165
-0.548268
-0.613224
-0.690716
-0.810721
-0.928825
-1.12425
-1.27583
-1.42845
-1.58045
-1.72695
-1.85749
-1.98597
-2.10255
-2.1929
-2.27526
-2.31655
-2.37296
-2.37981
-2.4098
-2.45129
-2.4527
-2.43641
-2.5204
-2.49547
-2.4789
-2.41224
-2.33979
-2.21947
-2.10056
-1.95885
-1.80077
-1.64218
-1.41713
-1.29144
-1.13698
-1.05433
-1.00994
-1.00395
-1.01348
-0.61349
-0.621451
-0.701268
-0.813052
-0.925752
-1.10051
-1.25948
-1.41659
-1.58196
-1.74496
-1.87925
-2.02813
-2.14876
-2.26241
-2.35926
-2.445
-2.49056
-2.54149
-2.54902
-2.56464
-2.58144
-2.60663
-2.52113
-2.58728
-2.58127
-2.56583
-2.51596
-2.42821
-2.34046
-2.21154
-2.10576
-1.99486
-1.82665
-1.66625
-1.44374
-1.27246
-1.15157
-1.11623
-1.08988
-1.10532
-0.650716
-0.65983
-0.757958
-0.865833
-1.08105
-1.19509
-1.39361
-1.5496
-1.72075
-1.8929
-2.04142
-2.17662
-2.30052
-2.40082
-2.50652
-2.5906
-2.64506
-2.68663
-2.69937
-2.70439
-2.69802
-2.71929
-2.58836
-2.65943
-2.64352
-2.6468
-2.58475
-2.53907
-2.41887
-2.35679
-2.26172
-2.08485
-1.91994
-1.69368
-1.53427
-1.34742
-1.20734
-1.17034
-1.15019
-1.16354
-0.767029
-0.780569
-0.881859
-1.0383
-1.21028
-1.37236
-1.52362
-1.70376
-1.87308
-2.00985
-2.17564
-2.31204
-2.42381
-2.52048
-2.61291
-2.70969
-2.76855
-2.81742
-2.83489
-2.84196
-2.8272
-2.82177
-2.67431
-2.71896
-2.71791
-2.71266
-2.68355
-2.58913
-2.56084
-2.49702
-2.34391
-2.24624
-2.08477
-1.94474
-1.73422
-1.54243
-1.31545
-1.26711
-1.25116
-1.27093
-0.812434
-0.824531
-0.948536
-1.10627
-1.30082
-1.45768
-1.64437
-1.78025
-1.9571
-2.11493
-2.27207
-2.38704
-2.5474
-2.63104
-2.73192
-2.82439
-2.89338
-2.93978
-2.96926
-2.97512
-2.9394
-2.90198
-2.63689
-2.69828
-2.73903
-2.77264
-2.73121
-2.73442
-2.69017
-2.57269
-2.53841
-2.38954
-2.21646
-1.9864
-1.78641
-1.62683
-1.46332
-1.30305
-1.32366
-1.33124
-0.966827
-0.983402
-1.10587
-1.26207
-1.44554
-1.61245
-1.79023
-1.94303
-2.09601
-2.23116
-2.37157
-2.52298
-2.61692
-2.75039
-2.83332
-2.92797
-3.00167
-3.06084
-3.10388
-3.09587
-3.07402
-2.90032
-2.65706
-2.69852
-2.78247
-2.82757
-2.814
-2.82205
-2.75551
-2.75518
-2.63848
-2.51736
-2.34645
-2.16817
-1.92369
-1.7579
-1.60864
-1.47585
-1.42353
-1.48054
-0.990285
-1.00459
-1.13234
-1.29116
-1.48282
-1.65674
-1.84503
-1.98838
-2.14923
-2.28891
-2.43712
-2.56851
-2.70134
-2.83808
-2.96941
-3.05174
-3.13118
-3.188
-3.22709
-3.23262
-3.12947
-2.86252
-2.75206
-2.77348
-2.80847
-2.88941
-2.91593
-2.89502
-2.88867
-2.82182
-2.74284
-2.62464
-2.47621
-2.28105
-2.04689
-1.84336
-1.67714
-1.60251
-1.45993
-1.53604
-1.13024
-1.14456
-1.26914
-1.42327
-1.61368
-1.78137
-1.94918
-2.10653
-2.26861
-2.41772
-2.57628
-2.71828
-2.84626
-2.94206
-3.05932
-3.13775
-3.22583
-3.28078
-3.3372
-3.25332
-3.06019
-2.95822
-2.89168
-2.87442
-2.87047
-2.91982
-2.92724
-2.97313
-2.95575
-2.91926
-2.85386
-2.77015
-2.64835
-2.48739
-2.2744
-2.06543
-1.87287
-1.79271
-1.66555
-1.71485
-1.10217
-1.12563
-1.24881
-1.41672
-1.61521
-1.77122
-1.96091
-2.10312
-2.25262
-2.39097
-2.53567
-2.68875
-2.84343
-3.00091
-3.12333
-3.2575
-3.32954
-3.35968
-3.31197
-3.18767
-3.12992
-3.07908
-3.03875
-2.99985
-3.0021
-3.00788
-3.10119
-3.07219
-3.05277
-2.99081
-2.92866
-2.83929
-2.73032
-2.57384
-2.37994
-2.16736
-1.96399
-1.82701
-1.75247
-1.7326
-1.16356
-1.17629
-1.2754
-1.42944
-1.60767
-1.77625
-1.95131
-2.10577
-2.27771
-2.44502
-2.63147
-2.80083
-2.95907
-3.07767
-3.15379
-3.23933
-3.28139
-3.25213
-3.24124
-3.22342
-3.23559
-3.20776
-3.1785
-3.12986
-3.0832
-3.04796
-3.04689
-3.09217
-3.09616
-3.07909
-3.05566
-3.01716
-2.96498
-2.85408
-2.68851
-2.47903
-2.21646
-2.09266
-2.00729
-2.00438
-1.00207
-1.04047
-1.12605
-1.28359
-1.43269
-1.63095
-1.80857
-1.96066
-2.08599
-2.23626
-2.37596
-2.53645
-2.67976
-2.83774
-2.97071
-3.15784
-3.26437
-3.32816
-3.38858
-3.38711
-3.39028
-3.3572
-3.31903
-3.2765
-3.21808
-3.15103
-3.0915
-3.05104
-3.06772
-3.03499
-3.00338
-2.94716
-2.88933
-2.77785
-2.64597
-2.51756
-2.29844
-2.13693
-2.12668
-2.12226
-1.00941
-1.006
-1.05746
-1.15074
-1.25887
-1.39488
-1.53215
-1.72628
-1.96862
-2.20613
-2.45369
-2.67395
-2.86265
-3.02594
-3.17703
-3.31363
-3.46034
-3.52825
-3.57003
-3.57452
-3.56897
-3.49936
-3.46117
-3.38435
-3.31078
-3.24081
-3.16527
-3.07304
-3.0158
-3.01247
-3.08263
-3.12965
-3.17023
-3.14126
-3.04596
-2.84719
-2.57343
-2.3307
-2.13038
-2.12008
-1.00662
-0.965208
-1.00644
-1.09337
-1.20937
-1.35398
-1.48906
-1.69939
-1.9239
-2.17173
-2.41564
-2.6641
-2.88285
-3.09415
-3.27357
-3.44725
-3.61048
-3.71742
-3.80113
-3.75235
-3.7477
-3.66013
-3.5897
-3.51012
-3.42612
-3.34585
-3.2671
-3.15172
-3.06885
-2.96217
-2.87755
-2.75703
-2.74036
-2.74141
-2.81007
-2.76187
-2.64678
-2.55168
-2.5305
-2.65278
-1.02852
-0.987851
-1.02243
-1.08325
-1.21133
-1.31308
-1.46545
-1.66633
-1.92521
-2.20789
-2.49578
-2.76451
-3.0066
-3.22998
-3.4342
-3.60787
-3.76206
-3.87142
-3.96229
-3.95968
-3.90289
-3.81848
-3.77037
-3.65047
-3.55452
-3.44032
-3.3695
-3.25969
-3.18453
-3.06849
-3.01078
-2.88576
-2.79319
-2.57134
-2.3094
-2.09012
-1.9576
-1.84797
-1.77823
-1.8145
-0.999894
-0.994207
-1.03442
-1.10317
-1.22675
-1.34661
-1.49897
-1.70095
-1.94566
-2.23535
-2.52673
-2.80645
-3.06327
-3.29774
-3.51606
-3.69721
-3.86506
-3.96449
-4.08147
-4.09165
-4.06796
-3.94301
-3.82315
-3.72039
-3.62878
-3.5183
-3.43723
-3.32496
-3.25226
-3.12526
-3.03809
-2.8736
-2.78816
-2.55869
-2.39653
-2.20596
-2.08668
-1.96017
-1.8756
-2.02886
-1.03931
-1.02683
-1.0706
-1.12673
-1.24565
-1.36451
-1.52816
-1.71455
-1.96216
-2.25406
-2.55589
-2.83869
-3.10231
-3.33502
-3.55726
-3.7334
-3.91272
-4.02231
-4.14042
-4.20097
-4.19187
-4.06531
-3.93846
-3.79268
-3.68535
-3.5648
-3.51039
-3.36398
-3.30844
-3.15992
-3.10039
-2.92645
-2.83482
-2.61167
-2.48944
-2.29309
-2.17571
-1.98148
-1.85636
-1.91625
-1.06906
-1.05418
-1.10352
-1.16016
-1.27316
-1.40574
-1.55031
-1.74062
-1.98066
-2.2688
-2.56936
-2.8462
-3.10771
-3.33052
-3.55479
-3.7379
-3.94174
-4.04818
-4.23153
-4.26522
-4.25454
-4.15476
-4.02673
-3.8489
-3.74952
-3.58773
-3.54949
-3.41544
-3.35547
-3.2067
-3.15158
-2.96529
-2.89653
-2.68802
-2.62613
-2.45707
-2.39891
-2.23005
-2.14411
-2.27848
-1.07536
-1.05768
-1.115
-1.1706
-1.2817
-1.39914
-1.55247
-1.73938
-1.98206
-2.25431
-2.53671
-2.79723
-3.04841
-3.26773
-3.51585
-3.70983
-3.92794
-4.07344
-4.25814
-4.25411
-4.21544
-4.13157
-4.05906
-3.89571
-3.79153
-3.62671
-3.60855
-3.36556
-3.37986
-3.17433
-3.13725
-2.9157
-2.87747
-2.66376
-2.63499
-2.44831
-2.40071
-2.20684
-2.09604
-2.05189
-1.12247
-1.10588
-1.14718
-1.2131
-1.3135
-1.43381
-1.58043
-1.77608
-2.0086
-2.25759
-2.51164
-2.74008
-2.99349
-3.22345
-3.50294
-3.70967
-3.96761
-4.10843
-4.25202
-4.19145
-4.14749
-4.12226
-4.07361
-3.928
-3.86251
-3.67337
-3.66303
-3.52004
-3.55882
-3.46994
-3.60616
-3.53895
-3.65337
-3.52175
-3.56766
-3.38161
-3.34338
-3.18034
-2.96578
-2.89148
-1.1076
-1.09917
-1.12728
-1.19143
-1.2948
-1.39936
-1.55778
-1.7336
-1.9556
-2.17672
-2.41855
-2.64417
-2.90722
-3.14865
-3.44422
-3.66913
-3.93281
-4.0251
-4.11788
-4.04025
-4.06849
-4.05274
-4.03191
-3.91471
-3.92318
-3.7629
-3.837
-3.54633
-3.71294
-3.53539
-3.67048
-3.47699
-3.56662
-3.38382
-3.48555
-3.3206
-3.41113
-3.25503
-3.15721
-3.15789
-1.16603
-1.16043
-1.18493
-1.22688
-1.3375
-1.43097
-1.59653
-1.76832
-1.97937
-2.17917
-2.40923
-2.61486
-2.86542
-3.08097
-3.36424
-3.55723
-3.78319
-3.83396
-3.93924
-3.94406
-3.96426
-3.94629
-3.95976
-3.83181
-3.87899
-3.73809
-3.786
-3.63829
-3.78559
-3.56051
-3.74166
-3.5641
-3.66512
-3.45549
-3.56068
-3.36356
-3.43682
-3.18025
-3.11711
-2.99001
-1.12975
-1.12061
-1.14781
-1.16504
-1.28009
-1.36747
-1.5355
-1.69602
-1.90249
-2.09887
-2.32107
-2.51274
-2.74766
-2.93915
-3.19178
-3.35277
-3.54895
-3.65378
-3.7579
-3.81017
-3.79239
-3.82733
-3.83683
-3.72459
-3.79451
-3.63918
-3.67846
-3.63618
-3.81084
-3.604
-3.73257
-3.44535
-3.57135
-3.33812
-3.49312
-3.20294
-3.35358
-2.99039
-2.97462
-2.73493
-1.20498
-1.20146
-1.21852
-1.22736
-1.3162
-1.41924
-1.57173
-1.71749
-1.9307
-2.09003
-2.3119
-2.48554
-2.71007
-2.87877
-3.10547
-3.25855
-3.44721
-3.5532
-3.72519
-3.70603
-3.65919
-3.66253
-3.70903
-3.59155
-3.67372
-3.50035
-3.582
-3.7747
-3.8073
-3.63893
-3.75182
-3.53234
-3.63265
-3.31074
-3.51831
-3.21062
-3.35922
-2.94261
-2.8677
-2.5165
-1.1344
-1.11801
-1.14976
-1.13615
-1.20815
-1.30611
-1.46573
-1.58997
-1.79448
-1.9749
-2.17957
-2.35652
-2.58227
-2.74316
-2.97926
-3.1297
-3.29937
-3.41544
-3.52258
-3.5661
-3.49099
-3.49991
-3.54354
-3.42781
-3.52862
-3.33843
-3.50066
-3.79454
-3.83014
-3.6276
-3.72826
-3.48853
-3.63884
-3.33335
-3.47871
-3.05318
-3.33722
-2.7804
-2.77186
-2.22538
-1.23715
-1.22909
-1.24601
-1.24766
-1.27681
-1.35204
-1.50192
-1.6049
-1.77956
-1.93952
-2.16044
-2.32816
-2.54918
-2.73039
-2.90603
-3.04226
-3.21641
-3.37755
-3.46943
-3.50409
-3.33181
-3.3744
-3.41369
-3.29003
-3.40767
-3.20319
-3.38374
-3.78148
-3.8939
-3.63852
-3.80592
-3.44912
-3.73948
-3.28383
-3.61761
-3.05943
-3.31828
-2.76214
-2.75661
-1.9515
-1.11901
-1.08973
-1.14878
-1.08052
-1.16196
-1.15172
-1.3579
-1.42214
-1.6251
-1.75393
-1.99381
-2.15294
-2.38007
-2.49782
-2.77279
-2.92619
-3.0976
-3.25891
-3.30461
-3.38527
-3.13542
-3.1994
-3.22207
-3.10409
-3.22594
-3.05236
-3.22852
-3.75517
-3.86863
-3.6619
-3.81372
-3.43237
-3.69756
-3.24551
-3.55284
-3.03195
-3.31614
-2.44361
-2.69495
-1.42152
-1.25982
-1.27641
-1.27149
-1.2693
-1.24533
-1.23602
-1.39023
-1.44886
-1.62694
-1.73844
-1.96669
-2.12058
-2.36234
-2.54135
-2.76642
-2.91913
-3.12061
-3.27122
-3.28891
-3.37449
-3.06318
-3.08939
-3.10288
-2.96088
-3.06835
-2.90241
-3.08734
-3.68928
-3.90952
-3.70366
-3.96645
-3.45946
-3.82533
-3.24128
-3.66439
-3.0027
-3.48718
-2.54651
-2.56243
-0.874676
-1.1109
-1.06487
-1.13586
-1.02837
-1.11901
-0.973781
-1.18895
-1.22232
-1.42785
-1.54897
-1.78447
-1.94089
-2.22256
-2.39375
-2.6617
-2.83822
-3.06219
-3.20345
-3.24499
-3.28597
-2.91242
-2.90412
-2.89699
-2.7361
-2.8481
-2.68058
-2.97099
-3.57851
-3.90684
-3.69026
-4.01029
-3.44057
-3.83732
-3.14497
-3.6334
-2.75972
-3.3556
-2.04552
-2.46545
0.611921
-1.27508
-1.38026
-1.30078
-1.30422
-1.23466
-1.15567
-1.21557
-1.26761
-1.42597
-1.53561
-1.74956
-1.92709
-2.18853
-2.37699
-2.64047
-2.83291
-3.06025
-3.22646
-3.27555
-3.29679
-2.92398
-2.82829
-2.77955
-2.58019
-2.64853
-2.48144
-2.88604
-3.45246
-3.92749
-3.71022
-4.10153
-3.55061
-3.9647
-3.23552
-3.80757
-2.80583
-3.52027
-1.83906
-2.37605
2.35845
-1.46573
-1.07809
-1.22807
-0.933059
-1.01209
-0.849905
-0.949842
-0.995154
-1.18778
-1.301
-1.56898
-1.73535
-2.03099
-2.23778
-2.52927
-2.76081
-2.98056
-3.23252
-3.32417
-3.20953
-2.83038
-2.64817
-2.56815
-2.28911
-2.44249
-2.26139
-2.84019
-3.34619
-3.94863
-3.74398
-4.18331
-3.52577
-3.95625
-3.11706
-3.63941
-2.36077
-2.90646
-0.597525
-0.1526
7.48556
-1.14811
-1.60688
-1.48943
-1.49246
-1.21743
-1.0022
-1.01124
-1.01047
-1.15243
-1.25249
-1.48944
-1.68002
-1.96475
-2.16976
-2.46631
-2.71919
-3.01365
-3.27923
-3.45742
-3.27514
-2.92688
-2.67528
-2.43168
-2.08183
-2.24956
-2.05611
-2.78531
-3.18969
-3.94061
-3.72232
-4.14946
-3.57343
-4.01078
-3.11694
-3.69263
-2.35444
-2.82418
0.57869
2.74086
14.2582
-3.72682
-1.01031
-1.30563
-0.918212
-0.876639
-0.703803
-0.775514
-0.794836
-0.986868
-1.11179
-1.36673
-1.52847
-1.83074
-2.06377
-2.39407
-2.68181
-3.02375
-3.34806
-3.50974
-3.12785
-2.78609
-2.49685
-2.12316
-1.77844
-2.07091
-2.02778
-2.91753
-3.3196
-4.08996
-3.83282
-4.21682
-3.48207
-3.82326
-2.8897
-3.24701
-1.42199
-0.818327
5.23849
12.7848
31.1399
-0.235777
-0.28047
-0.331513
-0.381418
-0.43929
-0.489227
-0.545349
-0.591434
-0.6402
-0.692812
-0.74097
-0.801411
-0.833066
-0.900844
-0.904488
-0.981938
-0.96012
-1.04015
-0.912602
-1.1204
-0.826315
-1.04253
-0.998332
-1.04561
-0.902362
-0.842914