/*--------------------------------*- C++ -*----------------------------------*\
| =========                 |                                                 |
| \\      /  F ield         | OpenFOAM: The Open Source CFD Toolbox           |
|  \\    /   O peration     | Version:  v1806                                 |
|   \\  /    A nd           | Web:      www.OpenFOAM.com                      |
|    \\/     M anipulation  |                                                 |
\*---------------------------------------------------------------------------*/
FoamFile
{
    version     2.0;
    format      ascii;
    class       volVectorField;
    location    "0.081";
    object      U_0;
}
// * * * * * * * * * * * * * * * * * * * * * * * * * * * * * * * * * * * * * //

dimensions      [0 1 -1 0 0 0 0];


internalField   nonuniform List<vector> 
64000
(
(-0.00967823 -0.0109152 -0.00747867)
(0.0141001 -0.010848 -0.00495699)
(0.0200488 -0.00364985 0.000617869)
(0.0243657 -0.003347 0.00123188)
(0.0253754 -0.00244323 0.0015741)
(0.0255998 -0.00271866 0.00231257)
(0.0251551 -0.00358816 0.00255171)
(0.0217806 -0.00396785 0.00289904)
(0.0205356 -0.0049164 0.00434188)
(0.0133725 -0.00447263 0.00373258)
(0.00799842 -0.00519981 0.00612359)
(-0.00493257 -0.00870017 0.00628127)
(-0.0242491 -0.012548 0.00624165)
(-0.0480704 -0.0177194 0.00389958)
(-0.0773493 -0.0181235 0.00495416)
(-0.113348 -0.0166891 0.00254171)
(-0.142647 0.000324855 0.00179376)
(-0.187301 -0.00443684 -0.00265783)
(-0.187075 -0.00968068 0.00541067)
(-0.247536 -0.0278321 -0.0149166)
(-0.216152 -0.0222954 -0.022657)
(-0.107286 -0.023757 -0.038756)
(-0.107599 -0.00901158 -0.025981)
(-0.104171 -0.00363425 -0.0372352)
(-0.120816 0.00276713 -0.0480954)
(-0.114991 0.011024 -0.0575367)
(-0.103148 0.0210241 -0.0622344)
(-0.0673963 0.0321279 -0.0580742)
(-0.034063 0.0386174 -0.0537323)
(0.00957875 0.051751 -0.0376545)
(0.0559445 0.0466962 -0.0320561)
(0.090866 0.0379723 -0.0240032)
(0.107016 0.0272256 -0.0121895)
(0.103253 0.0137029 -0.00473726)
(0.0895501 0.00527696 0.0013848)
(0.0706749 -0.00277202 0.00399642)
(0.0509599 -0.0066018 0.00531592)
(0.030419 -0.00582769 0.00617125)
(0.016242 -0.00429388 0.00666265)
(0.00215544 -0.00273236 0.0044668)
(-0.00703415 0.00149139 -0.00377407)
(0.00859927 -0.0164524 -0.00358459)
(0.0236945 -0.0109182 -0.001465)
(0.0336087 -0.00763011 -0.000780778)
(0.0391281 -0.00283468 -0.00103974)
(0.0391511 -0.000632055 -0.00157414)
(0.0377531 0.00340868 -0.00305524)
(0.0304301 0.00499511 -0.00284865)
(0.0234515 0.0106952 -0.007057)
(0.0057409 0.0162361 -0.00432644)
(-0.0184168 0.0250235 -0.00813123)
(-0.0553967 0.0315993 0.000549632)
(-0.103075 0.0425947 -0.003991)
(-0.155222 0.0626525 -0.0068238)
(-0.214097 0.0758887 -0.0111983)
(-0.272036 0.0848528 -0.0181591)
(-0.351911 0.0929939 -0.0435821)
(-0.457294 0.0951791 -0.0585354)
(-0.505398 0.1012 -0.076007)
(-0.590645 0.0996336 -0.0986178)
(-0.544089 0.126755 -0.0973138)
(-0.407841 0.141785 -0.126297)
(-0.38966 0.186984 -0.136595)
(-0.372764 0.211626 -0.146188)
(-0.362286 0.236675 -0.157711)
(-0.323608 0.258213 -0.163868)
(-0.274248 0.279109 -0.165228)
(-0.202986 0.29477 -0.15363)
(-0.126796 0.300759 -0.13369)
(-0.0551659 0.306254 -0.109909)
(0.00991283 0.289482 -0.0760834)
(0.0738187 0.259227 -0.0469685)
(0.110711 0.210148 -0.038882)
(0.12294 0.159386 -0.0264907)
(0.117695 0.108568 -0.012776)
(0.0987487 0.0689167 -0.00528737)
(0.0791166 0.0403504 -0.000912861)
(0.0542494 0.0257195 7.95901e-05)
(0.0324199 0.0159299 0.00163584)
(0.0079237 0.00752275 0.00188723)
(-0.000634486 -0.00588437 0.00150854)
(0.0147896 -0.0225578 -0.00165121)
(0.0315155 -0.0174249 -0.00266475)
(0.042069 -0.0052889 -0.0036462)
(0.0444496 0.0048531 -0.00543699)
(0.0420622 0.0161507 -0.00687483)
(0.0346255 0.0314428 -0.00807869)
(0.0204831 0.0456228 -0.00965176)
(0.00453147 0.0696087 -0.00196889)
(-0.0259313 0.0900432 -0.00487555)
(-0.064002 0.117129 -0.00813415)
(-0.11713 0.149543 -0.0133132)
(-0.172097 0.183276 -0.0175637)
(-0.250415 0.211333 -0.0322593)
(-0.347923 0.230862 -0.035318)
(-0.444283 0.244525 -0.0422703)
(-0.530054 0.249336 -0.0588555)
(-0.61784 0.269671 -0.0772369)
(-0.660604 0.299376 -0.0949562)
(-0.730506 0.333459 -0.116187)
(-0.670075 0.371679 -0.107018)
(-0.507464 0.400765 -0.123812)
(-0.465732 0.457605 -0.125846)
(-0.437769 0.488994 -0.123464)
(-0.418197 0.521179 -0.126045)
(-0.375418 0.543037 -0.12445)
(-0.325557 0.557272 -0.119902)
(-0.259929 0.560814 -0.104908)
(-0.193154 0.550792 -0.0829795)
(-0.127971 0.530982 -0.0593683)
(-0.0719982 0.500192 -0.0399984)
(-0.0286099 0.452213 -0.0278029)
(0.00538469 0.37952 -0.0165816)
(0.0277074 0.306958 -0.00827392)
(0.040336 0.227254 -0.0109975)
(0.0466048 0.162416 -0.0108982)
(0.0467723 0.114599 -0.0071833)
(0.0378823 0.0774358 -0.00494228)
(0.0269186 0.0513622 -0.00119454)
(0.00785917 0.0247906 0.00160189)
(0.000418281 -0.0102566 0.00221219)
(0.0170609 -0.0240337 -0.00112356)
(0.0379422 -0.0111441 -0.00334666)
(0.0456967 0.00639564 -0.00650741)
(0.0437223 0.0302666 -0.00722699)
(0.0393671 0.055092 -0.00904242)
(0.0264459 0.0903367 -0.00885004)
(0.00743451 0.122957 -0.0057128)
(-0.019806 0.167675 -0.0105722)
(-0.0655224 0.2078 -0.0129623)
(-0.111542 0.251968 -0.0172543)
(-0.176514 0.288044 -0.0247009)
(-0.261688 0.316409 -0.0271236)
(-0.352809 0.33279 -0.0289379)
(-0.439127 0.353846 -0.0313951)
(-0.518337 0.377863 -0.036541)
(-0.588185 0.407886 -0.0512537)
(-0.662747 0.436847 -0.0608546)
(-0.691407 0.477641 -0.0701513)
(-0.746862 0.521762 -0.0775571)
(-0.675396 0.555314 -0.0488488)
(-0.492025 0.575188 -0.046033)
(-0.436018 0.617719 -0.0407425)
(-0.408467 0.625342 -0.0294882)
(-0.390158 0.638513 -0.0268129)
(-0.356641 0.639208 -0.0217173)
(-0.318468 0.631737 -0.0182544)
(-0.269658 0.613295 -0.0108118)
(-0.220464 0.587781 0.0011145)
(-0.175216 0.555499 0.00833436)
(-0.143681 0.515254 0.0134527)
(-0.118904 0.471086 0.0120545)
(-0.0954399 0.413298 0.00640978)
(-0.0733627 0.349809 -0.00174269)
(-0.0504489 0.270019 -0.00543698)
(-0.0209251 0.201827 -0.0104247)
(-0.000467129 0.146735 -0.0105481)
(0.00852486 0.110456 -0.00788196)
(0.0167097 0.077148 -0.00338244)
(0.00624839 0.0368985 0.0012841)
(0.000961402 -0.0105479 0.000790434)
(0.0233267 -0.0134093 -0.00429765)
(0.0458414 0.00381381 -0.00741806)
(0.0542425 0.0387071 -0.0083973)
(0.0517067 0.0764856 -0.00779459)
(0.0457271 0.122466 -0.0152227)
(0.0268737 0.177646 -0.0127097)
(-0.000815696 0.236938 -0.00618296)
(-0.0337311 0.292595 -0.00787606)
(-0.0873691 0.338394 -0.00996549)
(-0.148954 0.37416 -0.0126715)
(-0.228316 0.393696 -0.0153409)
(-0.302501 0.416162 -0.0161664)
(-0.377146 0.441615 -0.0213596)
(-0.450227 0.471878 -0.0202254)
(-0.517685 0.504509 -0.0213018)
(-0.574536 0.532229 -0.0249487)
(-0.629824 0.568374 -0.0221095)
(-0.638964 0.612922 -0.017505)
(-0.680235 0.658794 -0.0261419)
(-0.609892 0.686912 0.00297979)
(-0.42014 0.692102 0.0156708)
(-0.359826 0.705516 0.0267197)
(-0.341466 0.680335 0.0365185)
(-0.335114 0.663157 0.0372066)
(-0.320913 0.63727 0.0430509)
(-0.302926 0.605219 0.0443283)
(-0.272507 0.568793 0.0484315)
(-0.24393 0.527906 0.0417273)
(-0.218851 0.488616 0.033755)
(-0.198495 0.444007 0.0237312)
(-0.188889 0.411064 0.0163934)
(-0.181048 0.374248 0.00867609)
(-0.175707 0.34347 -0.00334361)
(-0.153233 0.278374 -0.0133308)
(-0.104061 0.208607 -0.0143082)
(-0.0525602 0.160657 -0.0136429)
(-0.0170341 0.130157 -0.0116241)
(0.00276409 0.095753 -0.00602469)
(0.0033878 0.0463993 0.00125865)
(0.00564474 -0.00557699 -0.00021206)
(0.0284475 0.00158761 -0.00631874)
(0.0602681 0.0280487 -0.00605407)
(0.072568 0.0803632 -0.00979566)
(0.0666862 0.138358 -0.0146991)
(0.0628134 0.202365 -0.0184557)
(0.0455937 0.277941 -0.0137735)
(0.0100252 0.32963 -0.00449912)
(-0.0441589 0.373847 -0.00541706)
(-0.115331 0.407316 -0.00741482)
(-0.183864 0.436896 -0.00950848)
(-0.24826 0.46503 -0.00969203)
(-0.307831 0.498983 -0.00789565)
(-0.366152 0.52667 -0.00495462)
(-0.416719 0.556542 0.00102502)
(-0.468796 0.584825 0.00626933)
(-0.501921 0.61492 0.0084977)
(-0.536527 0.646432 0.00854493)
(-0.540375 0.693298 0.0106808)
(-0.568473 0.727558 0.00915184)
(-0.50149 0.752329 0.03671)
(-0.32859 0.703394 0.0514361)
(-0.28445 0.685786 0.0617041)
(-0.287778 0.629824 0.074263)
(-0.296401 0.588773 0.076878)
(-0.300904 0.546429 0.0767684)
(-0.299041 0.503505 0.0741122)
(-0.288848 0.462136 0.0679646)
(-0.273958 0.415067 0.0656879)
(-0.262901 0.377028 0.0449188)
(-0.253113 0.333813 0.0337932)
(-0.242365 0.303264 0.019344)
(-0.22867 0.277925 0.0079326)
(-0.236911 0.265829 -0.00385763)
(-0.241102 0.241643 -0.016)
(-0.175104 0.192711 -0.0142902)
(-0.0931163 0.161656 -0.015238)
(-0.0406533 0.135447 -0.0119285)
(-0.00478823 0.103799 -0.00684202)
(0.00241517 0.0498319 0.00178622)
(0.00721466 -0.000147866 -0.000151382)
(0.0382333 0.0142031 -0.0100841)
(0.0809374 0.0547621 -0.0100289)
(0.105384 0.109797 -0.0119827)
(0.1005 0.17459 -0.0163284)
(0.0976885 0.248789 -0.0189874)
(0.0556877 0.312577 -0.0114614)
(-0.00924016 0.342782 0.00194319)
(-0.0586778 0.386309 -0.00303921)
(-0.115902 0.425633 -0.00363682)
(-0.16497 0.471019 -0.00368655)
(-0.216185 0.513105 -0.00185305)
(-0.262987 0.552195 0.00145146)
(-0.310029 0.585586 0.00669523)
(-0.35016 0.618268 0.0144198)
(-0.384913 0.643088 0.0198701)
(-0.408532 0.670273 0.0258604)
(-0.426204 0.682501 0.0292523)
(-0.417194 0.707799 0.0267831)
(-0.438186 0.721326 0.0174575)
(-0.430728 0.740915 0.0331625)
(-0.292057 0.635223 0.054624)
(-0.234169 0.585908 0.0588534)
(-0.25432 0.524225 0.0711731)
(-0.273102 0.481713 0.0716766)
(-0.294163 0.443493 0.0712126)
(-0.308107 0.408222 0.0673849)
(-0.314418 0.374041 0.0603552)
(-0.312828 0.337382 0.0473808)
(-0.313614 0.303268 0.0318075)
(-0.310577 0.270446 0.0186498)
(-0.302541 0.24263 0.00628572)
(-0.289009 0.222984 -0.00256602)
(-0.285568 0.20747 -0.00963119)
(-0.289063 0.218209 -0.0186611)
(-0.227137 0.193163 -0.0209069)
(-0.127729 0.167067 -0.021983)
(-0.0561068 0.146451 -0.0169442)
(-0.00999353 0.112678 -0.0108033)
(0.00235689 0.0546014 2.78408e-05)
(0.00719507 0.00665849 -0.00351902)
(0.0453746 0.0331893 -0.0136383)
(0.0994935 0.0823919 -0.0137858)
(0.125029 0.138277 -0.0112904)
(0.128511 0.19716 -0.0122194)
(0.115038 0.2699 -0.0127741)
(0.0538558 0.30029 -0.00210574)
(0.00420879 0.350188 0.00490329)
(-0.029083 0.396763 0.000914882)
(-0.0793895 0.450273 0.00239113)
(-0.122014 0.494505 0.00321387)
(-0.165124 0.531878 0.00953728)
(-0.201448 0.565306 0.0154787)
(-0.2329 0.592226 0.0233972)
(-0.26061 0.617802 0.0278527)
(-0.289406 0.633016 0.0320122)
(-0.308218 0.644468 0.0347766)
(-0.326555 0.643744 0.0340009)
(-0.324739 0.638733 0.0312017)
(-0.339126 0.616159 0.015061)
(-0.38091 0.620885 0.0162546)
(-0.295104 0.541283 0.0353226)
(-0.222654 0.45873 0.0380735)
(-0.242928 0.417797 0.0494036)
(-0.269005 0.381921 0.0530855)
(-0.300008 0.357082 0.0544572)
(-0.324091 0.331165 0.0554419)
(-0.341582 0.305539 0.0482255)
(-0.351233 0.277716 0.0389759)
(-0.358945 0.247819 0.0169635)
(-0.360271 0.216353 0.00852904)
(-0.350704 0.191853 -0.000736234)
(-0.336243 0.17902 -0.00851109)
(-0.319623 0.170212 -0.0124134)
(-0.32726 0.191975 -0.0218811)
(-0.277129 0.196478 -0.0209194)
(-0.161776 0.172479 -0.0226434)
(-0.0745722 0.155702 -0.0176736)
(-0.0151133 0.119985 -0.0104452)
(0.00342122 0.0584016 0.000826127)
(0.00604233 0.0186902 -0.00609918)
(0.0536743 0.0640572 -0.0178675)
(0.119685 0.120513 -0.0194018)
(0.15151 0.176152 -0.0134218)
(0.159443 0.237547 -0.0142118)
(0.128583 0.288644 -0.0123728)
(0.0719017 0.324157 -0.00298064)
(0.0331671 0.381601 0.00464691)
(0.00510831 0.419334 0.0107366)
(-0.0298889 0.459939 0.010579)
(-0.0697213 0.498021 0.0148025)
(-0.101538 0.525038 0.020307)
(-0.127869 0.547918 0.0275524)
(-0.153148 0.561003 0.0339193)
(-0.176783 0.565567 0.0361585)
(-0.202487 0.56225 0.0366699)
(-0.224885 0.555911 0.0353708)
(-0.251737 0.540091 0.0306457)
(-0.272635 0.526093 0.0246195)
(-0.289296 0.493044 0.010144)
(-0.341362 0.482689 -0.000382941)
(-0.318302 0.45349 0.0103585)
(-0.243308 0.35468 0.0196401)
(-0.241899 0.336868 0.0256758)
(-0.27308 0.311461 0.0335137)
(-0.308062 0.296976 0.0377741)
(-0.341494 0.279121 0.0430226)
(-0.366384 0.257505 0.039)
(-0.386219 0.234083 0.0239306)
(-0.403421 0.201282 0.00854229)
(-0.405805 0.176742 -0.00130374)
(-0.392975 0.153771 -0.00669831)
(-0.377762 0.140453 -0.012304)
(-0.350385 0.141535 -0.0206307)
(-0.340506 0.154778 -0.0245646)
(-0.306795 0.191306 -0.0291222)
(-0.197356 0.17499 -0.02658)
(-0.089835 0.165041 -0.024732)
(-0.0201039 0.129934 -0.0137653)
(0.00432598 0.0645212 -0.00135933)
(0.00765903 0.0349124 -0.00890948)
(0.062712 0.102524 -0.0255418)
(0.138123 0.163126 -0.0246085)
(0.176745 0.216928 -0.0148814)
(0.178783 0.27067 -0.0153964)
(0.147077 0.303553 -0.0140852)
(0.104199 0.350552 -0.00386811)
(0.0714995 0.39727 0.00802121)
(0.0407691 0.434931 0.0149854)
(0.0164192 0.461587 0.0256745)
(-0.0106553 0.484408 0.022487)
(-0.0419539 0.497481 0.0329917)
(-0.0650538 0.506287 0.0380641)
(-0.0885497 0.496981 0.0437564)
(-0.112018 0.481983 0.0439001)
(-0.138998 0.458878 0.0407562)
(-0.16669 0.43577 0.0354307)
(-0.197799 0.410198 0.027731)
(-0.229117 0.393375 0.0190836)
(-0.260245 0.37467 0.0046446)
(-0.313776 0.359246 -0.00829486)
(-0.34228 0.358687 -0.00725999)
(-0.275027 0.29159 0.00858793)
(-0.23971 0.281868 0.0111277)
(-0.274181 0.264176 0.0217846)
(-0.309323 0.256537 0.0290459)
(-0.348848 0.237743 0.0383158)
(-0.381041 0.221428 0.0323783)
(-0.409547 0.191895 0.0246399)
(-0.424875 0.165645 0.00940279)
(-0.430374 0.137836 0.0106485)
(-0.425475 0.116239 0.0170978)
(-0.405737 0.0969307 0.0137927)
(-0.380849 0.0987595 0.00872321)
(-0.361117 0.112373 -0.0137146)
(-0.329743 0.160898 -0.0248422)
(-0.227774 0.172281 -0.0252588)
(-0.107511 0.165056 -0.0215664)
(-0.0259639 0.137693 -0.0128184)
(0.00535831 0.0688283 -0.000158173)
(0.00879048 0.0574295 -0.0114729)
(0.0713 0.145565 -0.0318171)
(0.155886 0.209822 -0.0310618)
(0.199909 0.258795 -0.0184315)
(0.197838 0.296868 -0.0117491)
(0.172148 0.330456 -0.0141078)
(0.143402 0.371033 -0.00348824)
(0.112361 0.408188 0.00426587)
(0.0868716 0.436648 0.0125389)
(0.0587667 0.457703 0.0283529)
(0.0301632 0.462759 0.0367888)
(0.013103 0.463583 0.0469523)
(-0.0107723 0.451031 0.0469016)
(-0.041074 0.429788 0.0499894)
(-0.0677336 0.401282 0.0483703)
(-0.0993331 0.36924 0.0420597)
(-0.131915 0.339656 0.0337107)
(-0.167579 0.312688 0.0245554)
(-0.202486 0.296687 0.0157904)
(-0.240915 0.282591 0.00271953)
(-0.292314 0.273188 -0.007554)
(-0.336052 0.276986 -0.0117763)
(-0.279661 0.258711 0.00144419)
(-0.233498 0.245092 0.00228392)
(-0.262569 0.232897 0.0146678)
(-0.30084 0.221305 0.0232549)
(-0.34566 0.206385 0.0324927)
(-0.382365 0.184152 0.0304161)
(-0.414686 0.158667 0.0199329)
(-0.437901 0.129261 0.0299522)
(-0.452021 0.0948874 0.031366)
(-0.453628 0.0667522 0.0179096)
(-0.439701 0.0523864 0.0128322)
(-0.40593 0.0493179 0.00462236)
(-0.36842 0.0642717 -0.00088234)
(-0.33757 0.111448 -0.0229014)
(-0.251867 0.151709 -0.0286155)
(-0.124771 0.161443 -0.0236809)
(-0.02893 0.141768 -0.0150545)
(0.00469668 0.0734913 -0.00181119)
(0.00965153 0.0762785 -0.0121725)
(0.0772733 0.185821 -0.0357628)
(0.169203 0.252898 -0.034238)
(0.213189 0.290524 -0.0178278)
(0.216888 0.318858 -0.0100702)
(0.201447 0.351028 -0.00737665)
(0.178096 0.382592 -0.00596114)
(0.151337 0.407018 0.00732046)
(0.124576 0.427127 0.01258)
(0.100275 0.435731 0.0245107)
(0.0771469 0.438866 0.0363063)
(0.0484741 0.427875 0.0514829)
(0.0232445 0.401669 0.0554836)
(-0.00172079 0.367508 0.054795)
(-0.0341489 0.33598 0.048696)
(-0.0689671 0.302598 0.039575)
(-0.10608 0.276077 0.0286171)
(-0.142189 0.253702 0.0192858)
(-0.180783 0.244934 0.0100658)
(-0.223989 0.233444 0.000362324)
(-0.271224 0.230227 -0.00760099)
(-0.312304 0.231337 -0.0118332)
(-0.263702 0.236399 -0.00148131)
(-0.216293 0.219806 -0.00239099)
(-0.242912 0.204385 0.00973236)
(-0.278571 0.188656 0.0190859)
(-0.32635 0.171773 0.026904)
(-0.366658 0.149186 0.0217352)
(-0.403354 0.122132 0.0381013)
(-0.436143 0.0875941 0.0451831)
(-0.45796 0.0544683 0.0393451)
(-0.459407 0.0288286 0.0503137)
(-0.452156 0.00586088 0.0391959)
(-0.434729 0.00229791 0.0343167)
(-0.397364 0.0117347 0.0247313)
(-0.35361 0.0585164 0.00368377)
(-0.264803 0.113313 -0.0252849)
(-0.138826 0.149371 -0.0251984)
(-0.0349934 0.140236 -0.0145027)
(0.00582803 0.0765324 -0.00178972)
(0.0103318 0.0976636 -0.0113915)
(0.0818201 0.226709 -0.0382634)
(0.174442 0.294458 -0.0372383)
(0.224178 0.323344 -0.0187525)
(0.238881 0.345657 -0.00592177)
(0.230958 0.369178 -5.89863e-05)
(0.209881 0.391025 0.00433757)
(0.185314 0.405398 0.00525046)
(0.1639 0.414799 0.0158542)
(0.140367 0.416557 0.026119)
(0.113284 0.407039 0.0355462)
(0.0863314 0.387834 0.0425313)
(0.0528388 0.35945 0.0554027)
(0.0217666 0.322425 0.0553433)
(-0.00741422 0.282878 0.0474113)
(-0.0449085 0.256163 0.0346289)
(-0.0836297 0.231915 0.0226561)
(-0.118749 0.216012 0.0142108)
(-0.157892 0.209601 0.00524826)
(-0.201078 0.202322 -0.000531615)
(-0.242852 0.202906 -0.0070859)
(-0.273637 0.201669 -0.00958024)
(-0.230048 0.227321 -0.00235861)
(-0.193848 0.202771 -0.00403109)
(-0.214119 0.178188 0.00602435)
(-0.248831 0.156421 0.0143877)
(-0.294554 0.132731 0.019246)
(-0.33737 0.11081 0.0323699)
(-0.381913 0.0784177 0.0445663)
(-0.419601 0.0471002 0.0467094)
(-0.442603 0.0148127 0.0662437)
(-0.468291 -0.0225179 0.0468738)
(-0.475212 -0.06303 0.0348399)
(-0.45788 -0.0835477 0.0131228)
(-0.417055 -0.0709702 0.00423526)
(-0.371782 -0.0226869 0.00821441)
(-0.285941 0.0623436 -0.00241884)
(-0.153294 0.118963 -0.0311732)
(-0.0399465 0.133438 -0.0144789)
(0.0060077 0.0788707 -0.00334667)
(0.0096165 0.103445 -0.0105324)
(0.0802306 0.249438 -0.0405375)
(0.174801 0.320508 -0.0412052)
(0.230254 0.346718 -0.0218603)
(0.255728 0.360676 -0.00349768)
(0.255137 0.37207 0.00617634)
(0.236174 0.383809 0.0124299)
(0.213374 0.392329 0.0158861)
(0.192888 0.397557 0.0190289)
(0.170047 0.391931 0.0230854)
(0.145837 0.377132 0.0295245)
(0.113762 0.352876 0.0401114)
(0.0797829 0.320069 0.0419974)
(0.042818 0.287189 0.0500984)
(0.0119684 0.249488 0.0455212)
(-0.0198693 0.220452 0.0279069)
(-0.0613113 0.201616 0.0171375)
(-0.0929626 0.188215 0.0098091)
(-0.130982 0.18228 0.0021195)
(-0.169269 0.17846 -0.000775004)
(-0.206452 0.175341 -0.00577166)
(-0.214232 0.188779 -0.002989)
(-0.181915 0.21391 -0.00204338)
(-0.173605 0.183879 -0.00198474)
(-0.189112 0.151389 0.00284209)
(-0.216011 0.11967 0.0102492)
(-0.256202 0.0964054 0.0153792)
(-0.298554 0.0674656 0.0331787)
(-0.343273 0.0406955 0.0406135)
(-0.381276 0.0107733 0.061664)
(-0.429729 -0.030926 0.0457796)
(-0.47131 -0.0840353 0.0383126)
(-0.488762 -0.127672 0.0241501)
(-0.476119 -0.159754 0.0133316)
(-0.43536 -0.162222 -0.00689997)
(-0.374547 -0.121449 -0.00701028)
(-0.291897 -0.019411 -0.00100123)
(-0.171688 0.0774458 -0.0170337)
(-0.0440818 0.118718 -0.0202307)
(0.00716909 0.0786749 -0.00223172)
(0.00847677 0.114448 -0.00861331)
(0.0789664 0.274869 -0.0399991)
(0.174337 0.350672 -0.0426506)
(0.236257 0.374231 -0.0228313)
(0.268648 0.380425 -0.00240753)
(0.273759 0.379016 0.0116664)
(0.26203 0.381711 0.0212711)
(0.244769 0.384176 0.0239911)
(0.225562 0.382461 0.0267539)
(0.201254 0.371113 0.0286947)
(0.173786 0.351762 0.0305605)
(0.141835 0.32184 0.0287602)
(0.104517 0.290248 0.0308517)
(0.0653929 0.253386 0.0327787)
(0.0288163 0.226102 0.0341819)
(-0.00258366 0.192646 0.0215492)
(-0.0362014 0.176593 0.0112027)
(-0.0670601 0.16719 0.00618983)
(-0.0987226 0.157217 0.000145021)
(-0.135354 0.15207 -0.00145168)
(-0.152539 0.156948 -0.000836253)
(-0.148154 0.181528 0.00244226)
(-0.140656 0.18233 0.000493019)
(-0.153305 0.154928 -0.000263381)
(-0.166926 0.123937 0.00226837)
(-0.183489 0.0876859 0.00621263)
(-0.216563 0.0608115 0.019106)
(-0.253792 0.0318119 0.0283392)
(-0.292429 0.00485305 0.0471688)
(-0.346365 -0.0343193 0.0405417)
(-0.402937 -0.0865822 0.0383657)
(-0.451439 -0.137952 0.0285087)
(-0.481632 -0.1897 0.0180608)
(-0.485245 -0.230119 0.00268188)
(-0.451401 -0.248818 -0.0122805)
(-0.385701 -0.217689 -0.0209772)
(-0.295431 -0.128121 -0.0185194)
(-0.179772 0.0176306 0.00095993)
(-0.0539516 0.0967881 -0.0268173)
(0.00622889 0.0808708 -0.0035311)
(0.00612463 0.0938759 -0.00843599)
(0.0728256 0.268068 -0.0397881)
(0.168402 0.349838 -0.0417107)
(0.234895 0.373676 -0.0222424)
(0.274403 0.374361 0.00109746)
(0.288286 0.368676 0.0151505)
(0.283752 0.367215 0.0210862)
(0.266788 0.361913 0.0246714)
(0.246256 0.353873 0.0270982)
(0.222578 0.340699 0.0280074)
(0.195383 0.319948 0.0277429)
(0.161875 0.293972 0.0243731)
(0.123902 0.261243 0.0202039)
(0.0862327 0.229957 0.0142538)
(0.0488243 0.202745 0.0188793)
(0.016909 0.179559 0.0119791)
(-0.00861579 0.159925 0.00601911)
(-0.0377676 0.14743 0.00066097)
(-0.0698039 0.137791 -0.00157969)
(-0.0877564 0.139747 0.00067243)
(-0.0892668 0.153159 0.00358293)
(-0.0961492 0.157612 0.00453206)
(-0.109689 0.146083 0.0032892)
(-0.127822 0.122762 0.00247223)
(-0.145175 0.100475 0.00309766)
(-0.158948 0.0628854 0.00545533)
(-0.181253 0.0325765 0.0164159)
(-0.21188 0.00406693 0.0310718)
(-0.255452 -0.0305307 0.0305799)
(-0.310036 -0.0754783 0.0336712)
(-0.365832 -0.123363 0.0301495)
(-0.4186 -0.179757 0.0259433)
(-0.456844 -0.238349 0.0160863)
(-0.473088 -0.293119 0.00269112)
(-0.451724 -0.325533 -0.0145067)
(-0.393154 -0.314941 -0.0275664)
(-0.28951 -0.23531 -0.0312825)
(-0.178735 -0.0824542 -0.0195124)
(-0.05861 0.0516753 -0.0194713)
(0.00814207 0.0690876 -0.00847236)
(0.00613396 0.10523 -0.00439042)
(0.0708589 0.285744 -0.0348906)
(0.165267 0.371383 -0.0398193)
(0.238119 0.393075 -0.0189787)
(0.287139 0.388376 0.00557306)
(0.310974 0.374271 0.0149304)
(0.309984 0.364026 0.0222784)
(0.294209 0.352415 0.0239531)
(0.276194 0.341426 0.0227884)
(0.251821 0.322944 0.0201286)
(0.224458 0.298163 0.0172296)
(0.189572 0.267832 0.0125353)
(0.148862 0.236714 0.00846765)
(0.109737 0.206002 0.00508436)
(0.0719256 0.182636 0.00386718)
(0.0393056 0.164968 0.00168342)
(0.0107842 0.15327 -0.00102689)
(-0.0106752 0.141796 -0.00136753)
(-0.0251223 0.141165 -0.00112052)
(-0.0348991 0.144145 0.00154369)
(-0.0457512 0.141221 0.00404073)
(-0.0630207 0.127868 0.00621534)
(-0.0806559 0.112859 0.00558703)
(-0.100614 0.0939755 0.00472561)
(-0.123542 0.0744929 0.00703396)
(-0.140172 0.0478324 0.00543348)
(-0.153637 0.011895 0.0115755)
(-0.1822 -0.0213418 0.0140542)
(-0.222434 -0.0629383 0.0191897)
(-0.271597 -0.105223 0.0207669)
(-0.326399 -0.15401 0.0222507)
(-0.38003 -0.211086 0.0200395)
(-0.42306 -0.273433 0.0144756)
(-0.448521 -0.338912 0.00274678)
(-0.439894 -0.387883 -0.0135535)
(-0.391743 -0.399624 -0.0305925)
(-0.299328 -0.335363 -0.0446623)
(-0.184294 -0.18385 -0.0334401)
(-0.0582035 0.00945155 -0.00877079)
(0.00659469 0.0704284 -0.0116976)
(-0.00407991 0.0773126 -0.0153529)
(0.0498602 0.266727 -0.040543)
(0.145806 0.362584 -0.0463817)
(0.22602 0.386175 -0.0267985)
(0.28461 0.383054 -0.00569407)
(0.319004 0.361979 0.00722193)
(0.328288 0.344594 0.0134997)
(0.315087 0.325958 0.0141872)
(0.293638 0.312918 0.0132893)
(0.265572 0.301224 0.00991296)
(0.236109 0.286957 0.00730872)
(0.202696 0.266925 0.00410114)
(0.165015 0.245025 0.00188822)
(0.130049 0.222893 0.000299421)
(0.0981506 0.202929 0.00210428)
(0.0713771 0.192181 -0.000774309)
(0.0486209 0.182986 -0.00608108)
(0.0306946 0.170259 -0.00324929)
(0.0149972 0.16102 -0.00297563)
(-0.00302467 0.146608 0.00113016)
(-0.0193255 0.125451 0.0044377)
(-0.0374566 0.106102 0.00659587)
(-0.0559957 0.0874177 0.00607008)
(-0.0767651 0.0700044 0.00625206)
(-0.0983451 0.0515297 0.00270913)
(-0.122224 0.0329467 0.00226355)
(-0.141228 0.00253036 0.00163643)
(-0.164613 -0.0330398 0.00336158)
(-0.19987 -0.0695579 0.00681612)
(-0.24122 -0.113417 0.0112801)
(-0.288591 -0.16448 0.0140519)
(-0.337332 -0.229349 0.0141762)
(-0.381201 -0.303374 0.0100568)
(-0.412312 -0.382538 0.000659012)
(-0.413959 -0.446819 -0.013793)
(-0.375188 -0.477369 -0.0315237)
(-0.284365 -0.436689 -0.0541129)
(-0.171495 -0.306148 -0.05323)
(-0.0489803 -0.0820557 -0.0190755)
(0.00815362 0.0420106 -0.0060408)
(-0.00481304 0.159544 -0.00643972)
(0.0459657 0.366547 -0.0213767)
(0.135322 0.466056 -0.0321329)
(0.218157 0.488357 -0.0123895)
(0.284544 0.476896 -0.00492605)
(0.325892 0.445922 0.0121504)
(0.34235 0.410684 0.0157025)
(0.337453 0.395631 0.0177934)
(0.330969 0.3975 0.0137109)
(0.310869 0.394982 0.00880693)
(0.281116 0.383072 0.00313797)
(0.243569 0.359383 -0.000807831)
(0.202426 0.327801 -0.00385992)
(0.161872 0.296015 -0.00433384)
(0.129341 0.264366 -0.00375487)
(0.102759 0.237282 -0.00056808)
(0.0699763 0.21203 -0.00698201)
(0.0478659 0.190097 -0.00826533)
(0.0327273 0.160733 -0.00607278)
(0.0113892 0.137317 -0.00347201)
(-0.00500903 0.11456 0.00236228)
(-0.0205813 0.0892564 0.0050753)
(-0.0365716 0.0704089 0.00588731)
(-0.0555723 0.0498853 0.00758577)
(-0.0769952 0.031381 0.000605805)
(-0.100245 0.0126382 0.00340698)
(-0.122168 -0.00479979 0.00232795)
(-0.144283 -0.0347833 -0.00272909)
(-0.175775 -0.0741067 -0.00646549)
(-0.217559 -0.120234 -0.0064517)
(-0.266034 -0.167154 -0.00317198)
(-0.315687 -0.223378 0.00102558)
(-0.357882 -0.288472 0.00490432)
(-0.385917 -0.372632 -1.54565e-05)
(-0.389902 -0.455286 -0.0147766)
(-0.365489 -0.522046 -0.0412317)
(-0.3021 -0.517428 -0.0698121)
(-0.19128 -0.39241 -0.0646443)
(-0.0517119 -0.16286 -0.0393776)
(0.0100171 0.0302503 -0.00541442)
(-0.0184585 0.24394 -0.0233121)
(0.018063 0.484917 -0.0437671)
(0.107578 0.59499 -0.0522633)
(0.192478 0.63528 -0.0383324)
(0.263997 0.627116 -0.027401)
(0.311782 0.598724 -0.0113641)
(0.351265 0.555597 -0.000889079)
(0.378657 0.528881 -0.000526091)
(0.372588 0.512385 -0.00583546)
(0.335071 0.487063 -0.009374)
(0.289192 0.453835 -0.0106132)
(0.23984 0.412695 -0.0113829)
(0.195582 0.366026 -0.0107687)
(0.158945 0.32044 -0.00939951)
(0.127612 0.277335 -0.0073234)
(0.102612 0.237755 -0.00404657)
(0.0828165 0.202095 -0.000319663)
(0.0596706 0.175734 -0.00524047)
(0.0411178 0.1488 -0.00534123)
(0.0286686 0.121481 -0.00368981)
(0.00882742 0.0992452 -0.00111377)
(-0.00684632 0.0777877 0.00351401)
(-0.0213203 0.0531844 0.00492342)
(-0.0413823 0.0339932 0.00508501)
(-0.0588999 0.0149654 0.00418229)
(-0.0771848 -0.00217586 0.00822832)
(-0.100132 -0.0174888 0.00693576)
(-0.133977 -0.0379895 0.00423619)
(-0.168735 -0.0668857 0.00350422)
(-0.19475 -0.108857 0.000951208)
(-0.223496 -0.159688 -0.00393019)
(-0.255423 -0.232903 -0.0112317)
(-0.295812 -0.319687 -0.0192883)
(-0.336112 -0.436057 -0.0260611)
(-0.361236 -0.545825 -0.0337398)
(-0.355963 -0.647845 -0.0523799)
(-0.286774 -0.675864 -0.0758131)
(-0.198991 -0.566919 -0.0873149)
(-0.0730273 -0.283651 -0.0551593)
(0.0117888 -0.00166766 -0.00749314)
(0.000132579 0.211261 0.00174728)
(0.0379542 0.454253 -0.0350766)
(0.111337 0.579275 -0.0473812)
(0.195237 0.635324 -0.0430448)
(0.265267 0.639587 -0.0346175)
(0.315159 0.619627 -0.0235017)
(0.35225 0.583551 -0.0163086)
(0.375729 0.542857 -0.007639)
(0.371164 0.501028 -0.00892432)
(0.335525 0.463068 -0.00807827)
(0.291779 0.424782 -0.00755223)
(0.243508 0.385368 -0.00605571)
(0.199502 0.343577 -0.00494296)
(0.162168 0.303644 -0.00355618)
(0.133651 0.263122 -0.00341019)
(0.111636 0.226603 -0.00135551)
(0.0891034 0.189847 -0.000856913)
(0.0736828 0.15863 0.00143234)
(0.0555169 0.136185 0.000334529)
(0.0363493 0.110319 -0.00287144)
(0.0236948 0.0888138 -0.000378182)
(0.00408099 0.0663704 0.000694195)
(-0.0105085 0.0458916 0.00779821)
(-0.0236605 0.0243582 0.00614356)
(-0.0410652 0.00782729 0.00565592)
(-0.05701 -0.00961941 0.0087111)
(-0.0758782 -0.0264365 0.00952733)
(-0.101861 -0.0429529 0.00718271)
(-0.140185 -0.0540434 0.00381263)
(-0.18214 -0.0768333 0.00357233)
(-0.231998 -0.114368 0.00534205)
(-0.281535 -0.178072 0.00832958)
(-0.326738 -0.263838 0.00909971)
(-0.345019 -0.387917 0.00383208)
(-0.342833 -0.523942 -0.00658604)
(-0.330276 -0.667021 -0.0204758)
(-0.272018 -0.750633 -0.0411536)
(-0.163653 -0.728882 -0.0605505)
(-0.038601 -0.455551 -0.0620563)
(0.0137316 -0.0895859 0.00502538)
(0.000177305 0.228007 -0.000604918)
(0.0367643 0.446294 -0.0304266)
(0.104385 0.569315 -0.0410736)
(0.181574 0.625761 -0.0388155)
(0.250155 0.631481 -0.0244746)
(0.302049 0.609736 -0.0179661)
(0.344729 0.571336 -0.00862139)
(0.371799 0.531825 -0.00243379)
(0.369114 0.486917 -0.00217883)
(0.336304 0.44934 -0.00138472)
(0.290713 0.410082 -0.000944745)
(0.24113 0.370048 -0.000181353)
(0.199207 0.33009 5.9088e-05)
(0.164975 0.291474 0.000149644)
(0.136416 0.253789 0.000336471)
(0.113554 0.215303 0.0013042)
(0.0966083 0.178729 0.00229619)
(0.0848997 0.144732 0.00353861)
(0.0685777 0.11818 0.00329994)
(0.0541303 0.0964218 0.00511291)
(0.0351194 0.0771087 0.00156816)
(0.0186131 0.0565632 0.000903095)
(0.00422066 0.0376954 0.00577463)
(-0.0116295 0.0200401 0.00644658)
(-0.0235152 -0.000994256 0.00660643)
(-0.0390362 -0.0176481 0.00818277)
(-0.0557758 -0.0371078 0.0094109)
(-0.0754684 -0.0575948 0.00993452)
(-0.103554 -0.0744187 0.00918343)
(-0.136467 -0.092433 0.00722296)
(-0.17733 -0.11055 0.0072781)
(-0.219297 -0.144535 0.00719125)
(-0.278077 -0.191111 0.00843422)
(-0.329883 -0.273609 0.0105876)
(-0.360549 -0.386498 0.00909432)
(-0.368803 -0.539259 0.00519696)
(-0.330637 -0.656114 -0.00789113)
(-0.229662 -0.688355 -0.0303571)
(-0.0594496 -0.478707 -0.0449257)
(0.0263771 -0.0641728 -0.0231259)
(0.00681391 0.200911 -0.000707226)
(0.0448313 0.398923 -0.0248573)
(0.105656 0.530009 -0.0339965)
(0.179898 0.591575 -0.0331641)
(0.246039 0.60782 -0.0207803)
(0.297151 0.589911 -0.0132193)
(0.341709 0.55404 -0.00392949)
(0.366625 0.510836 0.00162628)
(0.364741 0.461674 0.00237232)
(0.33546 0.419636 0.00266002)
(0.290244 0.378865 0.00338029)
(0.243735 0.341849 0.00425956)
(0.203998 0.306446 0.00427993)
(0.170789 0.2713 0.00431623)
(0.142808 0.236356 0.00372315)
(0.121106 0.201339 0.00394657)
(0.101136 0.168683 0.00450916)
(0.0928213 0.133854 0.00692324)
(0.0833986 0.106778 0.00692069)
(0.0678655 0.0828057 0.00622306)
(0.0534585 0.0677582 0.00637156)
(0.0324176 0.0484927 0.0058165)
(0.0197632 0.0317586 0.00431117)
(0.00467885 0.0144048 0.0038115)
(-0.0104449 -0.0027796 0.00737392)