/*--------------------------------*- C++ -*----------------------------------*\
| =========                 |                                                 |
| \\      /  F ield         | OpenFOAM: The Open Source CFD Toolbox           |
|  \\    /   O peration     | Version:  v1806                                 |
|   \\  /    A nd           | Web:      www.OpenFOAM.com                      |
|    \\/     M anipulation  |                                                 |
\*---------------------------------------------------------------------------*/
FoamFile
{
    version     2.0;
    format      ascii;
    class       vectorField;
    location    "0.1465";
    object      currentcloudofpoints;
}
// * * * * * * * * * * * * * * * * * * * * * * * * * * * * * * * * * * * * * //


2409
(
(1.70273 1.81088 1.43715)
(1.10169 1.351 1.57321)
(0.881638 1.60493 1.61949)
(1.44254 1.91277 0.776608)
(1.22755 1.7268 1.13956)
(1.42371 1.07854 0.458871)
(1.48624 1.15089 1.30306)
(0.76943 1.89445 0.551821)
(0.975458 1.83916 0.552568)
(0.706126 1.37361 1.19012)
(0.984562 1.62901 1.56226)
(1.44026 0.947169 1.41579)
(0.813293 1.29735 0.973413)
(0.945773 1.1145 0.881242)
(1.19373 0.781645 1.12251)
(1.02368 1.26193 1.91232)
(1.3729 1.14824 1.22838)
(1.18197 1.41377 0.997911)
(1.37092 0.915106 1.00551)
(1.56706 1.27255 1.10339)
(0.554913 0.904535 1.29351)
(0.812188 1.74789 1.11302)
(1.53383 1.53594 1.09546)
(0.730552 1.15968 0.919764)
(0.672062 1.53453 1.57517)
(1.02645 1.1026 1.68497)
(0.585187 0.737492 1.36992)
(0.774188 1.61172 1.3781)
(1.54686 1.64605 1.29364)
(1.37286 1.58628 1.01451)
(0.940257 1.59123 1.43694)
(1.44637 1.20533 0.92106)
(1.41241 0.882627 0.624214)
(0.501871 1.71902 0.736929)
(1.47662 0.795778 0.69676)
(0.612002 1.46614 0.95938)
(1.23674 1.34763 1.09165)
(0.820048 1.18405 1.01504)
(1.30577 1.41953 0.176175)
(0.740351 1.34153 1.14227)
(0.484536 1.69909 0.572931)
(0.447574 1.23996 1.03584)
(0.903129 1.11744 0.323622)
(1.27357 1.58441 0.873788)
(0.660535 1.7448 0.74598)
(1.05452 1.35147 0.383847)
(1.41656 1.1667 0.701005)
(1.85944 1.28617 0.87387)
(1.1695 0.999907 1.58784)
(1.23406 1.50044 1.31344)
(0.525693 1.54827 0.934433)
(1.02138 1.31091 1.20321)
(1.6336 1.44988 1.31756)
(1.82335 1.43122 1.15999)
(1.77185 1.13252 1.12117)
(1.35399 1.34546 1.36243)
(1.44455 1.47948 1.69117)
(1.64122 1.7205 0.515688)
(1.52445 1.88934 1.05115)
(1.16077 1.6318 0.473187)
(1.5896 1.71396 1.38077)
(1.17775 0.835437 0.552997)
(1.2595 0.932645 0.936533)
(0.913482 1.76475 1.11199)
(1.04414 1.188 1.01848)
(1.4459 0.981902 1.36047)
(1.69224 1.55041 1.21902)
(1.85029 0.935396 1.29033)
(0.708197 1.26563 1.04115)
(1.57412 1.60966 1.32233)
(0.647806 0.991139 1.33657)
(1.67747 1.52008 1.15198)
(0.747442 1.27225 0.99594)
(1.18472 1.85057 1.09107)
(1.26568 1.16333 0.757485)
(1.56225 0.964549 1.17047)
(1.30483 1.2127 1.09574)
(1.29376 0.990161 1.20909)
(0.650055 1.67593 0.525536)
(1.64707 1.02384 1.41297)
(1.28229 0.958967 1.14754)
(1.6246 0.898925 1.16118)
(1.41729 1.02251 1.49076)
(0.693772 1.00536 0.868984)
(0.889536 1.48328 1.49896)
(0.972637 0.979305 1.55898)
(1.3698 1.43356 1.41584)
(1.19418 1.1251 1.49562)
(1.08509 0.996863 1.70116)
(0.652664 1.12283 1.30962)
(0.49323 0.864598 1.22655)
(0.478667 0.987141 1.174)
(0.575045 1.58221 1.06908)
(1.37755 1.41619 1.71575)
(0.919428 1.20741 1.62925)
(0.766355 0.748192 1.4378)
(1.04864 1.60719 0.918035)
(1.1969 1.36081 1.64199)
(0.960221 1.50815 1.75407)
(1.15691 1.09249 1.11767)
(0.977 0.721637 1.4246)
(1.18243 0.768203 1.23565)
(1.17391 1.4199 1.68032)
(1.54253 1.40222 0.446281)
(0.645692 1.71192 0.573652)
(1.39938 0.990156 1.53319)
(0.951902 1.43693 1.69331)
(1.03621 1.41894 1.74632)
(1.14055 1.29481 1.87133)
(0.697348 0.744591 1.14475)
(1.86019 1.30062 1.12873)
(0.68095 1.62347 0.856365)
(0.803136 1.35417 1.39299)
(0.712855 1.15293 1.07289)
(0.732465 1.74969 1.12576)
(0.739667 1.08314 0.434877)
(1.12334 1.98544 0.999916)
(1.36211 1.25649 0.690917)
(1.02143 0.935063 0.289212)
(1.11451 1.24325 0.170981)
(1.21623 1.27559 1.67708)
(1.2283 1.34319 0.257795)
(1.33655 1.66756 0.409796)
(1.15671 1.77958 1.09655)
(0.911845 0.874063 0.350493)
(0.74185 1.09117 0.359385)
(1.05987 0.756325 0.49985)
(1.2036 1.05943 0.263968)
(0.741506 1.85376 0.511033)
(0.498955 1.4659 0.932247)
(1.05011 1.59258 1.12431)
(1.05087 0.938184 0.922052)
(1.18294 1.93131 0.715953)
(1.14375 1.39592 0.776937)
(1.36073 0.941171 0.701792)
(1.05854 0.996197 0.725484)
(0.978305 0.859695 0.862886)
(0.364476 1.03576 1.02935)
(1.209 0.810248 0.55004)
(1.49721 1.31498 0.421998)
(1.53844 1.32712 0.490977)
(1.10855 1.47197 0.765799)
(1.35636 0.890149 0.390255)
(1.91499 1.22949 1.31651)
(1.2087 1.72964 1.29893)
(1.74229 1.39437 1.14512)
(1.17678 1.59273 0.926466)
(0.88974 1.25698 1.01865)
(0.44808 1.11783 0.740027)
(0.686805 1.03637 0.413135)
(1.31435 1.69278 1.23559)
(1.1982 1.31346 0.917174)
(1.12952 1.88611 0.943454)
(1.49063 0.948383 1.1797)
(1.27649 1.48442 1.38015)
(1.34401 1.24706 1.43585)
(1.00748 0.787838 1.34559)
(1.67275 1.04403 1.29599)
(1.45351 1.87125 0.87304)
(1.51824 1.85511 0.987296)
(1.213 1.60846 1.13281)
(0.812377 1.44179 0.510954)
(1.4235 1.5689 0.395659)
(1.02148 0.951465 0.899427)
(0.995927 1.34449 0.470494)
(1.25367 0.800264 1.279)
(1.2867 1.64229 0.510637)
(1.34775 1.96267 0.970201)
(0.921696 1.54662 1.39933)
(1.40078 1.85709 0.678558)
(1.36978 1.52068 0.27536)
(1.35007 0.862335 0.404822)
(1.41015 0.957332 0.399071)
(0.413647 1.07407 0.775373)
(1.24899 1.7076 0.910817)
(1.20031 1.60125 1.07334)
(0.809132 1.8271 0.726569)
(1.86521 1.36729 1.23906)
(0.646271 0.936183 1.21391)
(0.922989 1.58394 1.55473)
(0.936269 1.96173 0.848498)
(0.945058 1.57953 1.32262)
(1.0013 1.65682 0.940479)
(0.963332 1.32092 0.385823)
(1.4642 1.13718 1.02687)
(1.84446 1.18246 1.13894)
(0.567407 1.55554 1.19555)
(0.512544 0.882704 1.14436)
(0.705457 1.2855 1.04115)
(1.54585 0.943089 1.306)
(0.774526 1.45836 0.8953)
(0.669828 0.976589 1.27019)
(0.993595 1.10409 0.902232)
(1.73811 1.12325 1.25461)
(1.11462 1.2089 1.21624)
(1.62535 1.25571 1.10328)
(1.3135 1.50859 1.61042)
(1.47901 0.916483 1.0825)
(1.04255 1.79092 0.639884)
(1.64972 1.48153 0.920533)
(1.77425 1.15433 1.00958)
(1.65297 1.14702 1.16548)
(0.888508 1.78042 0.564356)
(1.37839 1.44235 0.489694)
(1.34798 0.94545 0.382265)
(1.02859 1.53689 1.6196)
(1.46524 1.51387 1.70741)
(1.635 1.54361 1.38556)
(1.07834 1.71632 1.36706)
(1.05335 1.3711 0.679547)
(1.31267 1.29436 0.689866)
(0.712881 1.87567 0.948248)
(1.19529 1.57125 0.995764)
(1.51896 1.3632 0.821838)
(1.2841 1.48011 0.424524)
(1.38668 1.5622 1.63971)
(0.860542 1.22822 0.264371)
(1.80247 1.48715 1.23137)
(1.34769 1.15784 0.97886)
(1.63631 1.43693 1.44546)
(0.923029 0.914061 1.26197)
(1.06771 1.19765 1.34575)
(1.71998 1.05692 1.12881)
(0.789233 1.21967 1.17433)
(1.78389 1.46909 0.954591)
(1.66532 1.31821 1.02896)
(1.24852 1.1491 0.843225)
(1.49464 0.813004 1.13122)
(1.61409 0.932643 1.01093)
(0.664116 1.88775 0.609663)
(1.85295 1.15528 1.14721)
(1.55916 0.894832 1.02598)
(1.59622 0.845242 1.08056)
(1.23255 0.980131 1.25352)
(0.997486 1.44559 1.68887)
(1.58119 1.23632 1.43439)
(1.28349 1.22829 0.861551)
(1.26062 1.6891 0.511788)
(1.32626 1.26475 1.15182)
(1.38716 1.10601 0.855118)
(1.70573 1.69599 1.05929)
(1.76955 1.13589 1.32768)
(1.8545 1.42945 0.934436)
(1.09405 1.75149 1.06366)
(0.588653 0.782014 1.14448)
(0.675541 1.63113 0.503404)
(1.55934 1.53084 1.20447)
(1.28298 1.77218 0.662084)
(1.80638 1.13209 1.20479)
(1.63297 1.4519 0.97342)
(1.62757 1.02465 1.14814)
(0.952609 0.737592 1.48765)
(1.31637 1.11565 1.24767)
(1.02799 1.46937 1.66795)
(0.791094 0.688737 1.43299)
(0.906566 1.45667 1.72355)
(1.58172 1.57219 1.13687)
(0.873094 1.55491 0.571923)
(1.17363 1.24137 1.56655)
(0.832007 1.89451 0.587911)
(1.09615 1.75617 1.60072)
(1.57383 1.18741 0.913138)
(0.731634 1.78491 0.618373)
(1.57862 1.89832 0.910134)
(1.43301 1.02929 1.24655)
(1.34082 0.985019 1.27862)
(1.56002 1.35809 0.979928)
(0.587877 1.32484 1.17222)
(0.705679 1.07291 0.457474)
(0.666588 1.18453 0.433635)
(0.551383 1.67008 0.555502)
(0.949065 0.852827 0.543396)
(0.975568 1.21434 0.395541)
(1.4068 0.78076 1.10527)
(1.25613 0.812147 1.27334)
(1.01791 1.6353 1.31086)
(0.953893 1.00189 0.719758)
(1.00412 1.63557 0.920596)
(1.35008 0.948191 0.547773)
(1.45168 1.31693 0.796814)
(1.18068 1.56781 1.30486)
(1.22706 1.55611 1.29847)
(1.7749 1.42398 0.880755)
(1.66151 1.19472 0.946638)
(1.64176 1.30687 1.05898)
(1.22131 1.54501 0.985759)
(1.54763 0.903229 1.0775)
(1.84381 1.06353 1.21931)
(1.57647 1.28388 1.19301)
(1.63954 1.0497 1.03421)
(1.74132 1.13987 1.20123)
(1.2681 1.16544 0.932128)
(0.867045 1.54832 1.51287)
(1.80978 1.13008 1.22386)
(1.48725 0.967932 1.17328)
(1.68934 1.19027 1.27832)
(1.22077 1.73618 1.02486)
(1.16507 1.70534 1.05525)
(1.26655 1.72114 1.23444)
(0.683615 1.04661 0.411986)
(1.60193 1.43223 1.29971)
(1.09753 1.46416 1.25733)
(0.583318 1.28346 0.971368)
(1.84461 1.39172 0.979154)
(1.58875 1.2596 0.987711)
(1.72202 1.43349 1.17007)
(1.5718 1.21787 0.946458)
(1.59448 1.04404 1.29614)
(1.03257 1.37456 1.8772)
(1.56447 0.938069 0.985066)
(1.51621 1.21425 1.088)
(1.16597 1.79313 0.406536)
(1.4654 1.23287 1.25218)
(0.656917 1.41124 1.37799)
(1.26042 1.46527 1.65486)
(1.07387 1.4913 1.70813)
(1.69067 1.26004 0.928452)
(1.47926 1.03301 1.21651)
(1.54092 0.876323 1.05214)
(0.749259 1.18132 0.238188)
(1.76427 1.04943 1.02041)
(1.73117 1.1112 1.24814)
(1.44231 0.875522 1.00764)
(1.47892 1.02421 1.14593)
(1.56925 0.892046 1.02166)
(1.49984 0.945459 1.08725)
(1.63502 0.874922 1.14595)
(1.7752 1.1468 1.01781)
(1.64004 1.51429 1.30247)
(0.981768 1.86802 0.944147)
(1.16399 1.70874 1.38837)
(1.25765 1.66052 1.50324)
(1.18466 1.73953 1.34513)
(0.848362 1.66912 1.38026)
(0.707727 1.38132 1.00635)
(1.29452 1.85915 1.05208)
(1.21588 1.22345 1.0819)
(1.18662 1.39616 0.733457)
(1.25957 1.24424 1.39806)
(1.2991 1.41886 0.886282)
(1.48972 0.938256 1.17069)
(0.675091 1.74731 1.41607)
(0.681468 1.10129 0.456436)
(1.54883 1.58573 1.08276)
(1.6447 1.42504 0.882096)
(0.98908 1.5375 0.92623)
(1.06583 1.48874 1.13946)
(0.561858 1.39166 1.04455)
(0.88073 0.702075 1.47857)
(1.30584 1.96228 0.82476)
(0.738582 1.32147 1.26499)
(0.970822 1.44395 1.67553)
(0.719241 1.3313 1.30145)
(1.36796 1.66753 1.35136)
(1.63649 1.03261 1.12323)
(1.15151 1.81044 1.02519)
(1.80612 1.00141 1.04432)
(1.46949 1.62301 1.61369)
(0.942222 1.08521 0.641639)
(1.84684 1.09237 1.15417)
(1.02177 1.40483 1.80229)
(0.989398 1.54787 1.53989)
(1.25523 1.33554 1.45527)
(0.916697 1.68254 1.12842)
(1.84409 0.976492 1.01141)
(1.64286 0.843292 1.08089)
(1.61403 0.807715 1.10059)
(0.615838 1.00166 1.11617)
(1.50159 1.07306 1.23935)
(1.68079 1.04842 1.19798)
(1.80817 1.17763 1.00986)
(1.63612 1.12006 1.26031)
(1.02576 1.78209 1.07738)
(1.69248 1.39576 1.35176)
(1.34671 1.57488 1.61992)
(1.80683 1.10758 1.0326)
(1.63102 1.01625 1.17755)
(1.81856 1.25613 1.00234)
(0.755066 1.27028 1.11444)
(1.61646 0.864269 1.14323)
(1.15666 1.09579 1.73082)
(0.489643 1.59383 1.2901)
(0.595071 0.919826 1.1663)
(0.762969 1.06927 1.28866)
(0.565201 1.74612 1.46299)
(1.48785 1.5511 1.63489)
(0.578201 0.966611 1.31946)
(1.38292 1.60929 0.947106)
(0.742194 1.64265 1.11891)
(1.40073 1.40857 1.21507)
(0.990918 1.13766 1.60681)
(0.981924 1.43492 0.744174)
(0.926414 1.30125 1.76925)
(0.952449 0.94084 1.49749)
(1.42122 1.35389 1.56607)
(0.77181 1.06783 1.27861)
(0.597427 1.59803 0.971987)
(1.17334 0.976259 1.33934)
(0.630376 1.3951 1.39991)
(1.0137 1.53794 1.59368)
(1.30144 1.20866 1.72817)
(1.43187 1.54936 1.67638)
(1.35043 1.28628 1.42053)
(0.989659 1.10875 1.57021)
(1.02995 1.1167 1.84631)
(1.01464 1.30309 1.18681)
(1.40958 0.835796 1.17908)
(0.598797 1.57045 1.1212)
(0.707131 1.44716 1.51039)
(0.972502 0.983057 1.38034)
(1.08406 1.13436 1.83168)
(0.956202 0.999106 1.62859)
(0.988301 0.966344 1.17492)
(0.968318 1.24714 1.18427)
(1.17678 1.05321 0.707523)
(1.20196 1.14771 1.08879)
(1.5375 1.50896 1.30955)
(0.500299 0.833353 1.29304)
(0.442427 0.893594 1.39871)
(0.922209 1.21117 0.856705)
(1.33297 1.33512 1.20591)
(0.302499 1.44786 0.787589)
(0.539142 1.50151 1.58966)
(1.06099 1.53139 1.52728)
(0.354138 1.06489 1.21404)
(0.360751 1.55269 0.991849)
(0.408469 1.45488 1.21979)
(1.08224 1.41842 1.57718)
(1.12387 1.00288 1.62863)
(1.15828 1.25149 1.47774)
(1.10748 1.02078 1.58739)
(0.804713 0.736365 1.56191)
(0.65184 1.22567 1.16185)
(1.64147 1.00775 1.24236)
(0.773215 1.48808 1.41589)
(1.28788 0.995202 1.26793)
(1.35088 1.47277 1.05787)
(0.795885 1.84555 0.607494)
(0.637179 1.8034 1.45681)
(1.38642 1.69979 1.53276)
(1.17942 1.56931 1.3611)
(0.477745 1.62523 1.43978)
(0.764751 1.53799 1.14957)
(1.12501 1.78225 1.02009)
(0.87919 1.83491 1.53566)
(0.741212 0.903835 1.27104)
(1.28324 1.17558 0.873797)
(0.629151 1.07946 1.3188)
(0.387614 1.17093 1.21686)
(0.570335 1.36992 1.33331)
(1.26259 1.45102 1.72409)
(1.20529 1.41104 1.61388)
(1.43723 0.904763 0.647637)
(0.727571 1.53565 1.03)
(0.815552 1.49519 1.63143)
(1.48412 1.54313 1.27773)
(1.82611 1.42507 1.05839)
(1.23477 1.61474 1.32563)
(1.10722 1.62523 1.23908)
(1.24778 0.962901 0.516657)
(1.12574 1.24576 1.71054)
(0.861084 0.939562 1.67773)
(1.59616 1.53723 1.40987)
(1.36605 1.14137 1.40867)
(1.24708 1.71284 1.46321)
(1.37572 1.43983 1.51305)
(1.38329 1.43657 1.79677)
(1.14404 1.05123 1.3864)
(1.30289 1.51125 1.82371)
(0.558527 0.882996 1.16329)
(0.904395 0.884832 1.62114)
(0.912371 1.48199 1.68647)
(1.15521 1.02545 1.35071)
(0.895999 0.995796 1.4098)
(0.989528 0.916084 1.62233)
(1.10888 1.16987 1.65224)
(0.977412 0.910431 1.61133)
(0.87625 0.840697 1.34186)
(1.15105 1.16482 1.74358)
(1.4034 1.40817 1.05081)
(1.35068 0.865841 1.33863)
(1.86246 1.44534 1.10667)
(1.31931 1.23918 1.04911)
(1.61847 1.78345 1.53407)
(1.41625 1.42079 1.63584)
(0.858295 1.07657 0.663477)
(0.958341 1.59534 0.950167)
(0.854528 0.731781 1.38421)
(0.474357 1.5339 0.806374)
(1.52736 1.63585 1.27876)
(0.689311 0.849384 1.19995)
(0.785766 1.18203 1.18537)
(1.19593 1.16669 1.54917)
(0.781641 1.22263 1.24269)
(1.1841 0.965516 1.30121)
(1.23951 1.50841 1.30386)
(1.09126 1.446 1.15139)
(0.633209 1.4762 1.3055)
(0.98676 1.70249 1.30209)
(0.711808 1.73885 1.49801)
(0.861354 1.55041 1.59945)
(1.5946 1.2236 1.2904)
(0.376897 1.4271 0.787838)
(0.603445 1.00945 1.25355)
(1.73789 1.38014 1.0579)
(1.08843 1.68649 0.985475)
(1.70873 1.24772 1.34787)
(1.31047 1.30352 1.46436)
(1.95981 1.20332 1.12068)
(1.12854 0.981598 1.20224)
(0.937177 0.67326 1.34893)
(0.656513 1.331 1.56084)
(1.08321 1.83383 0.821966)
(1.10419 1.80941 1.45273)
(0.997051 0.899596 0.561181)
(0.842483 1.08669 0.579559)
(1.20585 1.20002 1.49154)
(1.25878 1.26626 1.43439)
(1.87773 1.2311 1.07244)
(1.82739 1.1145 1.05738)
(1.25717 1.27818 0.950781)
(0.925173 1.65544 1.5684)
(0.954578 1.72175 1.59012)
(1.09733 1.71251 1.10314)
(1.85636 1.28156 0.956165)
(1.28852 1.55335 1.24918)
(1.02722 1.09825 1.7663)
(1.04989 1.08382 1.7448)
(1.29712 1.46431 0.595651)
(1.09878 1.75107 1.16748)
(1.05086 1.45426 1.81773)
(0.979802 1.1633 1.61902)
(0.967744 1.59509 1.58349)
(1.00391 1.51451 1.08222)
(0.692359 1.46339 1.37388)
(1.1985 1.08408 1.42223)
(0.836809 0.940465 1.17131)
(1.34228 1.87977 1.37457)
(1.28675 1.29542 1.81021)
(1.33239 1.82252 1.06013)
(1.42121 0.904304 1.31064)
(0.469773 1.67252 1.21038)
(1.047 1.61041 1.42656)
(0.585128 1.46698 1.2464)
(1.57231 1.55566 1.31295)
(1.24449 1.81662 0.350257)
(0.624073 1.30556 1.53637)
(0.833054 1.21673 0.57812)
(0.720335 0.858298 1.59327)
(0.699725 1.69804 0.82272)
(1.19156 1.80921 1.06823)
(1.35806 0.865794 0.466128)
(0.853186 1.51443 0.501818)
(0.980045 1.4867 1.24309)
(0.941046 1.58191 0.821301)
(1.53891 1.84366 1.06156)
(1.32408 1.03747 0.588126)
(1.22533 0.977727 0.894604)
(1.1599 1.63607 1.18059)
(1.36589 1.61337 0.835532)
(1.21348 1.59433 0.696649)
(1.49654 1.95294 1.00799)
(0.654895 1.67019 0.787846)
(0.968374 1.21687 0.232171)
(0.996026 1.66519 0.936977)
(1.05088 1.39304 0.400023)
(1.07023 0.881275 0.433326)
(1.299 0.892924 0.620337)
(1.07537 1.78684 0.350002)
(0.871905 1.67533 0.562299)
(1.14914 1.23513 0.530236)
(0.75002 1.62913 0.405844)
(1.14058 0.863457 0.510586)
(1.18244 1.45049 1.00798)
(1.13188 1.5693 0.530201)
(0.782771 1.37131 0.448371)
(1.50001 1.39753 1.21499)
(1.21565 1.77435 0.216208)
(1.34741 1.88221 0.683335)
(0.826635 1.47828 0.222635)
(1.25447 1.66758 0.678235)
(1.14721 1.58124 1.12031)
(0.991899 1.33227 0.472414)
(1.13757 1.59795 0.26797)
(1.46042 1.20174 0.375601)
(0.917215 1.67774 1.08041)
(0.993409 0.948548 0.680421)
(0.528348 1.00023 0.974426)
(0.737915 1.32622 0.314452)
(1.26808 1.00195 0.595814)
(1.15342 1.22087 1.70611)
(1.45017 1.51626 1.06117)
(0.87542 1.01581 0.236013)
(1.18395 1.0976 0.299581)
(0.776895 1.47776 0.316541)
(1.41718 1.11241 0.520107)
(1.16084 0.814377 0.659887)
(1.47118 1.61205 0.410212)
(0.695726 1.36385 0.771332)
(1.18867 1.37213 0.839891)
(1.04677 1.53707 0.149339)
(1.30649 1.42867 0.483913)
(0.798414 1.96139 0.758056)
(1.6424 1.61362 0.397735)
(1.66214 1.5617 0.39773)
(1.27497 1.76734 0.957948)
(1.02979 1.43054 0.240674)
(1.23997 1.44128 0.251657)
(1.34819 0.824985 0.730186)
(1.38881 0.946346 0.546902)
(1.21378 1.60758 0.870662)
(1.68926 1.60921 1.06921)
(1.34596 1.53168 0.836965)
(1.14384 1.8794 1.05221)
(1.49697 1.81899 0.716606)
(0.733316 1.40564 1.01198)
(0.880505 1.20196 0.817347)
(1.66724 1.73968 0.650737)
(1.17279 1.77478 0.966516)
(0.993566 1.44273 0.952362)
(0.931469 1.4972 1.22324)
(1.15899 1.48107 1.12164)
(0.954707 0.729415 0.50316)
(0.931225 0.970153 0.271352)
(1.31165 1.77193 0.624956)
(1.35163 1.84271 0.659351)
(1.25064 1.49732 0.223956)
(0.765728 1.62417 0.804403)
(1.24188 1.13103 0.29484)
(0.931095 1.00175 0.736453)
(1.07367 1.5305 1.78274)
(1.10339 1.36754 0.968998)
(0.757079 1.83804 0.531745)
(1.33525 1.26223 0.255021)
(1.01731 1.15815 0.145397)
(0.570128 1.68176 0.890223)
(1.36058 1.54073 0.794729)
(1.31326 1.96539 1.04633)
(0.859644 1.82516 0.676088)
(1.08647 1.71446 0.938556)
(0.778918 1.98382 0.669526)
(0.766495 1.92159 0.440738)
(1.5976 1.65372 1.0582)
(1.00389 1.85101 0.478397)
(1.27066 1.00501 0.499316)
(1.82839 1.0366 1.32861)
(0.668204 1.67386 1.37725)
(0.510289 1.65376 0.732298)
(0.853743 1.52544 0.374826)
(1.52693 1.57415 0.306606)
(1.25667 1.43586 0.709982)
(1.09756 1.21043 0.958366)
(0.703768 1.04931 0.333337)
(0.797499 1.11759 0.347035)
(1.03963 1.95017 0.855188)
(1.26888 1.37071 1.15589)
(1.30693 1.6353 0.443218)
(1.62659 1.49224 0.473935)
(1.11323 1.88276 0.894582)
(1.44684 1.66665 0.916181)
(1.37969 1.46845 0.328086)
(0.993277 1.6802 0.959242)
(0.829951 1.20689 0.445534)
(1.28517 1.76863 0.639497)
(1.34135 1.67081 0.520128)
(1.14491 1.99244 0.769134)
(1.06682 1.59275 0.995)
(0.700024 1.40008 1.01324)
(1.16808 1.47903 0.167137)
(1.03524 1.55694 0.216531)
(0.836412 1.64687 0.378771)
(1.27343 1.49613 0.190152)
(1.32885 1.42299 0.594)
(1.21414 0.886529 0.365983)
(0.911428 1.51853 1.37364)
(0.755562 1.11094 0.967669)
(0.559244 1.64618 0.606299)
(0.641049 1.56678 0.497756)
(1.04174 1.6757 0.327199)
(0.737453 1.60073 1.49799)
(1.41684 1.0227 0.857863)
(0.961151 1.65448 1.54726)
(1.41116 0.90168 0.922037)
(1.11977 1.27311 0.591737)
(0.604916 1.71527 1.37466)
(1.18009 1.72743 1.68129)
(0.986226 1.47599 1.02491)
(1.12214 1.33229 0.271964)
(1.83277 1.48819 0.675911)
(1.28172 1.79386 1.43708)
(0.915727 1.71251 0.248495)
(0.818456 0.895092 0.416247)
(1.03844 1.30892 0.710543)
(0.868229 1.16184 1.1299)
(0.894274 1.4276 1.01282)
(0.962975 1.75623 0.781056)
(1.65448 1.28518 0.87595)
(1.39833 1.43071 0.331102)
(1.64385 1.17849 1.22324)
(1.03843 1.25926 0.980112)
(0.696109 1.73279 0.907116)
(1.16872 1.16487 0.907438)
(0.673019 1.29233 0.985349)
(0.687315 1.79035 0.506313)
(1.26115 1.91311 1.01422)
(1.63399 1.58918 0.397399)
(1.27667 1.80544 0.730045)
(1.07144 1.51726 0.929716)
(0.975486 0.862409 0.84561)
(0.118354 1.14235 0.724728)
(1.46324 0.960794 0.840858)
(1.35395 1.33761 0.935273)
(1.05489 1.93522 0.857441)
(0.780211 1.54739 1.24394)
(1.59087 1.7294 0.722584)
(1.28152 1.58348 1.47215)
(1.67381 0.934693 0.913236)
(1.00539 1.26002 0.692087)
(1.21015 1.8772 1.09972)
(0.716779 1.09061 0.207065)
(0.675871 1.77208 1.41279)
(1.56152 0.877933 0.915176)
(1.33296 1.74355 1.48467)
(1.13719 1.5758 1.10835)
(1.22758 1.54828 0.833793)
(0.945086 1.359 1.086)
(0.966864 1.34406 0.764145)
(0.891404 1.14413 0.996738)
(1.64781 1.07576 0.962088)
(1.54523 0.955486 0.661648)
(0.983866 1.2119 0.458257)
(0.72041 1.83979 1.03019)
(1.03796 0.8025 0.903508)
(1.31187 0.949532 1.22659)
(0.981723 1.33088 0.996573)
(1.6425 0.894781 0.917914)
(0.937598 0.980448 0.902614)
(1.55909 1.86857 0.835396)
(0.701606 1.18879 1.07881)
(0.705041 1.13572 1.08837)
(1.0659 1.06947 0.644458)
(1.42204 1.27957 0.617285)
(1.29789 1.75187 1.53005)
(0.93697 1.02227 0.961445)
(0.863093 1.92056 0.543802)
(1.85515 1.30966 0.832561)
(1.12992 0.773804 0.892295)
(1.35829 0.846363 0.658833)
(1.22951 1.59035 0.90789)
(1.53559 1.4998 1.32848)
(0.973899 1.65513 0.627441)
(0.907943 1.06363 0.288282)
(0.833876 1.56938 0.604516)
(1.22009 1.62901 1.15896)
(1.18879 1.47223 1.10377)
(1.24423 1.50663 0.666165)
(1.37681 1.65842 0.971307)
(1.68561 1.63141 0.563271)
(1.59868 1.508 0.568249)
(1.27806 1.7173 0.935147)
(1.70447 1.27519 0.627884)
(1.79625 1.37387 0.68432)
(1.56299 1.40406 0.596344)
(1.84568 1.38411 0.807207)
(1.78541 1.31726 0.833051)
(1.59553 0.916365 0.843221)
(1.15585 1.56186 1.56084)
(1.17802 1.58578 1.29261)
(1.15448 1.74943 0.374505)
(1.20361 1.70984 1.34933)
(1.84334 1.1005 1.03463)
(0.9579 0.94855 0.480058)
(1.12437 1.70143 0.960829)
(1.03705 0.954417 0.927595)
(0.63583 0.861175 1.04164)
(1.81232 1.2831 0.999703)
(1.06794 1.71722 0.380617)
(1.24745 1.03862 0.469106)
(1.80568 1.37376 0.967812)
(1.31985 0.993347 0.436648)
(0.970904 1.00095 1.23753)
(1.13616 1.82724 0.77726)
(1.29503 0.879822 1.14899)
(1.26194 1.68981 0.681663)
(1.25064 1.58015 1.70165)
(0.88994 1.78125 0.56522)
(1.19822 1.22164 0.421386)
(1.33205 1.30108 0.609778)
(0.836782 1.11429 0.717709)
(1.4099 1.90299 0.869205)
(1.24251 1.70998 0.634642)
(1.03074 1.75154 0.926678)
(1.59117 1.59177 0.550413)
(1.35124 1.96318 0.950443)
(1.16347 1.59459 0.855468)
(1.29876 1.77835 1.41652)
(1.31327 1.462 1.22752)
(1.36888 1.81668 1.49996)
(1.10035 1.82734 1.09863)
(0.978266 0.981782 0.661336)
(0.780572 1.29998 1.21415)
(0.901729 1.55185 0.51809)
(1.22893 1.01997 1.21236)
(0.979129 0.871437 0.731046)
(1.27942 0.936392 0.820574)
(1.01951 1.27115 0.436933)
(1.24032 1.02596 0.84651)
(0.941307 1.16546 0.270013)
(1.16342 1.65965 0.860676)
(1.0866 1.53981 1.03442)
(1.77012 1.60625 0.707059)
(1.19105 1.66482 0.930635)
(1.26596 1.73816 0.918436)
(1.30701 1.89917 0.671778)
(0.947694 1.38615 1.19246)
(1.36756 1.67055 1.269)
(1.28539 1.81767 0.804966)
(1.53047 1.56365 0.88023)
(1.51246 0.881437 0.627144)
(1.3313 0.863157 0.40934)
(1.11644 1.11022 0.623893)
(1.431 0.902197 0.571442)
(0.769881 1.57781 0.400465)
(1.8355 1.24962 0.730267)
(1.13679 1.36694 1.29543)
(1.27968 1.77655 0.705572)
(1.08948 1.15756 0.96959)
(0.771952 1.20899 0.636284)
(0.616139 1.52395 1.36784)
(1.21476 1.59881 1.19541)
(1.33349 1.5552 0.476033)
(1.28164 1.94936 0.855131)
(1.10212 1.26393 1.15417)
(1.70108 1.37418 0.628559)
(1.41447 1.58968 0.673448)
(1.06493 1.66441 0.842333)
(0.430697 1.30782 1.3465)
(1.22064 1.66076 0.846886)
(0.879489 1.87186 1.10675)
(1.37165 0.969755 0.702295)
(1.11416 1.32134 0.86336)
(1.50481 0.934712 0.564357)
(1.09181 1.45141 1.37843)
(1.11692 1.41103 0.815346)
(1.09742 1.53937 0.733114)
(1.03296 1.64927 1.13283)
(0.695345 1.0328 0.840376)
(0.957398 1.03663 0.67859)
(0.578096 1.46945 0.985238)
(1.41185 1.64443 0.401606)
(1.24019 1.07494 1.16479)
(1.83304 1.47071 1.25288)
(0.706909 1.16281 1.00295)
(1.18022 1.7137 0.891303)
(0.55845 1.32056 1.02247)
(1.58196 1.27609 0.880725)
(1.58398 0.89737 0.929376)
(1.45881 1.9514 0.846532)
(1.48369 1.03591 0.635758)
(0.735245 1.39215 1.36848)
(0.264803 1.09834 0.982401)
(1.58054 1.50959 0.376536)
(1.18533 1.10718 0.81447)
(0.600257 1.26048 0.982474)
(0.811906 1.75 1.43766)
(0.991783 1.73684 0.703831)
(1.62383 0.932732 0.893703)
(1.56422 0.901644 0.673995)
(1.30634 1.50939 0.553255)
(1.06388 1.90557 0.561406)
(1.11912 1.63626 0.428313)
(1.03827 1.02543 0.655651)
(0.832624 1.75456 0.671665)
(0.628533 1.36638 1.02867)
(0.632417 1.50472 1.00777)
(1.49327 0.891112 0.955905)
(1.00307 1.02036 0.595117)
(0.825773 1.74235 0.619312)
(1.39133 0.831962 0.635726)
(0.745331 1.61487 1.27718)
(1.16788 1.07759 0.704248)
(0.70711 1.30974 0.933661)
(1.9017 1.35698 1.06036)
(1.48558 1.70895 1.67471)
(1.89782 1.332 1.12741)
(1.59329 1.44216 1.31839)
(1.68399 1.32911 1.28421)
(1.57571 1.75637 1.38616)
(1.16075 1.7023 1.14611)
(1.29912 1.1085 1.28892)
(1.17401 1.1314 1.05031)
(1.44293 1.41194 1.29936)
(0.6001 0.86531 1.26513)
(0.931255 0.861842 0.789044)
(0.534821 1.39249 0.959238)
(1.12103 1.7148 0.366679)
(1.44478 1.71593 1.61249)
(1.40404 0.926417 1.04895)
(1.26042 1.00092 1.6032)
(0.861237 1.73543 1.0903)
(0.81501 1.53184 1.10795)
(0.983915 1.15145 1.75065)
(1.2208 1.56446 1.66739)
(0.338662 1.06779 1.1451)
(1.30667 1.26996 1.43167)
(1.47079 1.56369 1.52676)
(1.29276 0.988575 1.40534)
(1.12425 1.7786 1.60768)
(0.799619 1.88591 1.2334)
(0.945318 1.52263 1.72753)
(1.90608 1.07516 1.27205)
(1.17686 1.65313 1.77664)
(0.512766 1.60435 1.43386)
(1.52709 1.07191 1.16874)
(1.05255 1.38466 1.28737)
(1.57471 1.59484 1.32972)
(1.50359 1.21157 1.22024)
(1.10255 1.01992 1.5026)
(1.40477 1.73506 1.42838)
(1.65251 1.64704 1.3923)
(1.21051 1.00595 1.6323)
(0.783026 0.776114 1.4736)
(1.78947 1.42547 1.32939)
(1.70455 1.4233 0.84949)
(0.806079 1.35956 1.6709)
(1.56435 1.45508 1.27054)
(1.89943 1.34544 1.17462)
(1.37316 1.50768 1.14027)
(1.247 1.70815 0.988838)
(1.67395 1.00937 1.12415)
(0.988084 0.866996 0.815039)
(1.40857 1.13875 1.38303)
(0.863258 1.66247 1.09877)
(1.61096 1.72357 1.46912)
(0.916397 1.4075 1.31519)
(1.03927 1.8482 0.760289)
(1.73121 1.25424 1.34332)
(1.60302 1.33391 1.54906)
(1.50514 1.7563 1.47476)
(1.74448 1.4701 1.34694)
(1.22956 0.955762 1.43676)
(0.768759 1.77704 1.41681)
(1.07081 1.27261 1.21821)
(1.34209 1.34084 1.01519)
(1.11488 1.30603 1.16774)
(1.78226 1.41452 1.1469)
(1.04573 1.42073 0.724866)
(1.14438 0.942084 1.47263)
(1.86816 1.43536 1.19046)
(0.796827 1.24989 1.259)
(0.948083 0.929937 1.2583)
(0.691792 1.75375 0.555558)
(1.66103 1.38738 0.68029)
(1.71705 1.02518 1.30878)
(1.27017 0.833162 1.03242)
(1.84408 1.05863 1.21251)
(1.27254 1.47643 0.97044)
(0.901221 1.10132 0.643743)
(1.24323 1.10724 0.956316)
(1.58324 0.969 1.19108)
(1.24296 0.869206 1.41682)
(1.63409 0.943202 1.06672)
(1.02829 1.10527 0.911708)
(1.37161 1.91302 0.732418)
(1.60885 1.38426 1.29693)
(1.57047 1.41929 1.5395)
(1.11419 1.21715 0.912219)
(1.64219 0.934173 1.00171)
(1.48069 0.898079 1.07359)
(0.665361 1.15962 1.05409)
(1.50591 0.954072 1.02489)
(1.21802 1.36593 0.560466)
(1.50005 0.81834 1.08429)
(1.09596 0.879377 0.955365)
(1.64135 1.23551 1.02271)
(1.31182 1.46249 0.811039)
(1.30484 1.17076 0.773022)
(1.5325 1.13786 1.16486)
(0.779799 1.67032 1.11245)
(0.952179 1.73639 0.922838)
(1.363 1.44974 0.664683)
(1.52141 0.843417 0.619934)
(1.41408 1.51988 0.325445)
(1.71145 1.05135 1.03473)
(1.38566 1.16286 1.22813)
(1.77183 1.43766 0.92332)
(1.01624 0.864517 1.57121)
(1.43846 1.23932 1.27719)
(1.6072 1.10265 1.04521)
(1.26957 0.797854 1.07929)
(1.45906 1.64729 1.00294)
(1.15595 1.51428 0.743371)
(0.63176 1.18555 1.0438)
(1.75536 1.01222 1.08984)
(1.81575 1.46984 1.34066)
(1.43934 1.31303 1.03163)
(1.54552 1.24681 1.64534)
(1.39501 1.00189 1.10429)
(1.27699 1.62546 1.39607)
(1.60973 1.42125 1.11658)
(1.48622 1.2004 1.27976)
(1.46569 0.937029 1.4183)
(1.40648 1.04279 1.06171)
(0.693424 1.9356 0.944231)
(1.56472 0.909353 0.964317)
(1.46516 0.805023 1.0708)
(1.11551 1.13726 1.44182)
(1.51333 1.20703 0.978905)
(1.64487 1.50461 1.06321)
(1.33136 1.39467 1.38686)
(0.869504 1.33646 1.00129)
(1.37163 1.97483 0.813139)
(1.83272 1.35271 1.06087)
(0.54001 1.23552 1.17724)
(1.19174 1.46432 1.5378)
(1.63332 0.889611 1.1247)
(1.62395 0.908534 1.17926)
(0.966156 1.61487 1.42627)
(1.55427 0.813033 1.16903)
(0.956217 1.16142 1.00952)
(0.801784 1.1618 1.03362)
(1.67501 0.91855 1.19075)
(1.62 0.900836 1.14726)
(0.819037 1.256 0.429503)
(1.62523 0.93393 1.20946)
(0.73583 1.21724 0.525228)
(0.372176 1.05275 0.984962)
(1.38954 0.855602 0.993956)
(1.61181 1.18101 1.10943)
(0.396186 1.1487 1.01869)
(1.31632 0.756728 0.837638)
(1.19986 1.63261 0.806899)
(1.85851 1.00838 1.21399)
(1.70905 1.14515 1.1131)
(0.640262 1.0068 1.09305)
(1.54134 1.11209 1.05176)
(1.52921 1.2365 0.401675)
(0.488485 0.906953 1.25338)
(0.904556 1.45884 1.19653)
(0.772634 1.5978 1.4146)
(0.827924 1.83807 1.08924)
(0.678178 1.14488 0.421935)
(0.61557 0.936016 1.01054)
(1.05513 1.70616 0.501313)
(1.56097 1.04316 1.26122)
(1.2413 1.39718 0.145121)
(0.788486 1.45579 1.0881)
(1.58967 1.50656 0.806023)
(1.43504 1.23803 0.516361)
(1.49195 1.55922 1.0318)
(1.31813 0.745243 0.746743)
(1.37601 1.65618 0.99983)
(1.39934 1.59436 1.09813)
(1.17247 1.25591 1.51352)
(1.22137 0.854302 0.373578)
(1.68359 1.35845 0.588508)
(1.23836 1.71572 0.445219)
(0.804677 1.49879 0.507216)
(0.85114 1.79903 1.07341)
(1.30245 1.53114 0.96206)
(0.930741 1.07439 1.05646)
(1.02497 0.943282 0.718464)
(0.523283 0.94909 1.01019)
(1.72349 1.43714 0.676059)
(1.18767 1.53166 0.934772)
(0.632286 1.11114 0.401504)
(0.96528 0.85693 0.578668)
(1.79085 1.09061 1.15625)
(1.28942 1.02653 0.750769)
(0.951935 1.26598 0.835012)
(0.683531 1.00386 1.06375)
(1.47855 1.03784 0.950862)
(1.44812 1.09864 0.467514)
(1.74276 1.29751 1.01372)
(0.797823 1.30535 0.994292)
(0.859799 1.63925 1.39146)
(1.32824 1.11602 0.932986)
(1.55815 0.849703 1.07048)
(1.41022 0.992294 0.424709)
(1.35543 1.10959 0.801749)
(1.15959 0.890644 0.530757)
(1.83609 1.18953 1.15777)
(1.61651 1.24758 1.16501)
(1.5468 1.33645 0.517705)
(1.01945 0.772655 1.03175)
(1.12411 1.41819 1.57233)
(1.56124 0.864091 1.14986)
(1.45821 1.00871 1.18683)
(1.48002 1.05567 1.05844)
(1.41359 1.07164 0.360395)
(1.77934 1.10494 1.33048)
(1.16415 1.81572 0.309829)
(1.16385 1.38114 0.552801)
(1.51248 1.80467 0.845011)
(1.32031 1.44549 0.420762)
(1.72016 1.4606 0.683759)