/*--------------------------------*- C++ -*----------------------------------*\
| =========                 |                                                 |
| \\      /  F ield         | OpenFOAM: The Open Source CFD Toolbox           |
|  \\    /   O peration     | Version:  v1806                                 |
|   \\  /    A nd           | Web:      www.OpenFOAM.com                      |
|    \\/     M anipulation  |                                                 |
\*---------------------------------------------------------------------------*/
FoamFile
{
    version     2.0;
    format      ascii;
    class       surfaceScalarField;
    location    "0.017";
    object      phi;
}
// * * * * * * * * * * * * * * * * * * * * * * * * * * * * * * * * * * * * * //

dimensions      [0 3 -1 0 0 0 0];
oriented        oriented;


internalField   nonuniform List<scalar> 
187200
(
7.68126e-06
3.94546e-07
-8.07642e-06
3.26927e-05
-1.03305e-05
-1.46808e-05
5.27753e-05
-7.3957e-06
-1.26868e-05
7.39374e-05
-8.6583e-06
-1.25037e-05
9.27798e-05
-6.50861e-06
-1.23338e-05
0.000110093
-4.32099e-06
-1.29921e-05
0.000125836
-1.6352e-06
-1.41078e-05
0.000138482
2.96124e-06
-1.56075e-05
0.000149852
5.29472e-06
-1.66645e-05
0.00015098
1.31361e-05
-1.42644e-05
0.000154272
1.29234e-05
-1.6216e-05
0.000150822
1.98103e-05
-1.63601e-05
0.000136268
2.62503e-05
-1.16965e-05
0.000103877
3.66779e-05
-4.28719e-06
5.57149e-05
3.73374e-05
1.08249e-05
5.88419e-06
2.64639e-05
2.33667e-05
-5.95556e-05
3.49136e-05
3.0526e-05
-0.000133908
6.21912e-05
1.2161e-05
-0.000222348
9.62633e-05
-7.82296e-06
-0.000362659
0.000142044
-1.73397e-06
-0.000506622
0.000174811
-3.08472e-05
-0.000662849
0.000232206
-7.59794e-05
-0.000746989
0.000258112
-0.000173972
-0.000775321
0.000308548
-0.000280216
-0.0007502
0.000341627
-0.000366747
-0.000678255
0.000372016
-0.000443962
-0.000572505
0.000394796
-0.000500546
-0.000435329
0.000401213
-0.000538389
-0.00027707
0.000390911
-0.00054917
-0.000114546
0.000365289
-0.000527812
3.33933e-06
0.000333816
-0.000451701
8.03616e-05
0.00029029
-0.000367312
0.000105786
0.000228761
-0.000254185
9.25896e-05
0.000170399
-0.000157202
6.2364e-05
0.000120497
-9.02711e-05
3.66396e-05
8.13325e-05
-5.56083e-05
1.63966e-05
5.58476e-05
-3.56043e-05
4.44993e-06
4.13072e-05
-2.93602e-05
-2.34007e-06
2.9629e-05
-2.28391e-05
1.56133e-05
-1.79533e-05
1.41262e-05
-1.96019e-06
-1.17713e-05
4.94857e-05
-2.34246e-05
-2.22651e-05
8.47349e-05
-1.83549e-05
-2.42899e-05
0.000114469
-1.23959e-05
-2.59963e-05
0.000137634
-1.70883e-06
-2.79655e-05
0.000150643
1.35606e-05
-3.08902e-05
0.000157884
2.76882e-05
-3.65645e-05
0.000155893
4.74624e-05
-4.25105e-05
0.000147746
6.61915e-05
-5.27501e-05
0.000132536
8.84542e-05
-6.01086e-05
9.63693e-05
0.000123724
-7.46341e-05
3.65872e-05
0.000169267
-8.96743e-05
-4.89854e-05
0.000206363
-9.45402e-05
-0.000159475
0.000253633
-0.000106465
-0.000308307
0.000316045
-0.000129875
-0.000501832
0.000390011
-0.000170022
-0.000709827
0.000467719
-0.000224811
-0.000909771
0.000549842
-0.000287708
-0.00108822
0.000636833
-0.000362122
-0.00124531
0.000739235
-0.000440104
-0.00135008
0.000816436
-0.000536846
-0.00143145
0.000935764
-0.000622186
-0.00144917
0.00100692
-0.000731092
-0.00140937
0.0010884
-0.000819654
-0.00131087
0.00113701
-0.000893894
-0.00115599
0.00116521
-0.000948064
-0.000959156
0.00117036
-0.000972398
-0.000733087
0.00114229
-0.000967144
-0.000509972
0.00108917
-0.000921375
-0.000287871
0.000993638
-0.00085045
-9.77141e-05
0.000870933
-0.000727274
5.94731e-05
0.000731635
-0.000598532
0.000134941
0.000592702
-0.000439407
0.000158002
0.00046
-0.00031266
0.000140953
0.00034372
-0.000206174
0.000108486
0.000255406
-0.000141606
7.44001e-05
0.000191022
-0.000101089
4.53682e-05
0.000148407
-7.80675e-05
1.84799e-05
0.000112883
-5.63662e-05
6.76811e-05
-3.35877e-05
1.98806e-05
-7.35846e-06
-1.44822e-05
5.8753e-05
-3.06368e-05
-3.166e-05
9.86721e-05
-1.78743e-05
-4.03997e-05
0.000124812
4.77042e-06
-4.33066e-05
0.000143661
2.82111e-05
-4.87683e-05
0.000147798
6.61894e-05
-5.67656e-05
0.000143159
9.98615e-05
-6.75348e-05
0.000126942
0.000151804
-8.81256e-05
9.82787e-05
0.000209084
-0.000114228
3.87075e-05
0.000283317
-0.000135292
-5.17691e-05
0.000361912
-0.000147711
-0.0001662
0.000447318
-0.00016362
-0.000332897
0.00055226
-0.000179199
-0.000523001
0.000658059
-0.000214323
-0.000726461
0.000769182
-0.000249677
-0.000920211
0.000875964
-0.000292204
-0.00110328
0.000990168
-0.000339384
-0.00127134
0.00111067
-0.000392768
-0.00141577
0.00123021
-0.000448944
-0.00152823
0.00135491
-0.000503214
-0.00160997
0.00146367
-0.000565493
-0.00164723
0.00157708
-0.000604056
-0.00163963
0.00165148
-0.00065216
-0.00157694
0.00171149
-0.000685784
-0.00146848
0.00173748
-0.000708923
-0.00131844
0.00173131
-0.000716141
-0.0011394
0.00169162
-0.000700311
-0.000941069
0.00161262
-0.000668654
-0.000733089
0.00150408
-0.000622894
-0.000527912
0.00135413
-0.000565666
-0.00035309
0.00119511
-0.000499001
-0.000204315
0.00100468
-0.000421825
-8.73569e-05
0.000816195
-0.00034045
-6.38146e-06
0.000648253
-0.000269228
3.08839e-05
0.000503673
-0.000197218
4.54015e-05
0.000395459
-0.000154571
4.39216e-05
0.000315082
-0.000122579
3.46301e-05
0.000257223
-9.95249e-05
1.6505e-05
0.000200539
-6.95311e-05
0.000119653
-3.54664e-05
2.06074e-05
-5.01727e-06
-2.29484e-05
6.02788e-05
-2.11911e-05
-4.9117e-05
0.000101102
4.71342e-06
-6.34113e-05
0.000125612
4.65369e-05
-6.62759e-05
0.00013641
9.56099e-05
-7.81966e-05
0.00012734
0.00016549
-9.02308e-05
0.000104947
0.000237239
-0.000114985
7.03197e-05
0.000331273
-0.000144841
1.1094e-05
0.000437474
-0.000169165
-7.52393e-05
0.000553086
-0.000183436
-0.00019871
0.00068024
-0.000194857
-0.000358987
0.00081059
-0.000202996
-0.000529034
0.000941385
-0.000219078
-0.00069773
0.00106747
-0.000240715
-0.00086492
0.00119661
-0.000260237
-0.00102769
0.00131909
-0.00028036
-0.00117752
0.0014392
-0.000299197
-0.0013057
0.00155471
-0.000315856
-0.00141203
0.00166435
-0.000327819
-0.00149385
0.00176506
-0.000328333
-0.00154712
0.0018457
-0.000328759
-0.00157942
0.00191957
-0.00031019
-0.00157722
0.00195453
-0.00030525
-0.00152906
0.00195896
-0.000295632
-0.00144758
0.00193813
-0.000282127
-0.0013371
0.00188631
-0.000265489
-0.00120834
0.00180535
-0.000242482
-0.00106573
0.00169261
-0.000222603
-0.000913622
0.00155327
-0.000201296
-0.000757259
0.00138901
-0.000191249
-0.000590587
0.00121815
-0.000189707
-0.000433308
0.00104414
-0.000196737
-0.000300365
0.00087589
-0.000192639
-0.000187176
0.000721624
-0.000186561
-0.000104095
0.000588956
-0.000168365
-4.37618e-05
0.000485923
-0.000150796
-2.30802e-06
0.00040642
-0.000132791
1.78109e-05
0.000346936
-0.000109831
1.40319e-05
0.000279685
-7.53671e-05
0.000168515
-3.48302e-05
2.173e-05
1.14167e-05
-3.81641e-05
6.6677e-05
1.45391e-05
-8.06772e-05
0.000104665
6.31625e-05
-9.64367e-05
0.000128861
0.000124609
-0.000102269
0.000125713
0.000207423
-0.000108665
0.0001089
0.000307567
-0.000125265
7.9731e-05
0.000423689
-0.000157281
3.7167e-05
0.000558878
-0.000185041
-2.94734e-05
0.000699129
-0.000195015
-0.00012146
0.000846706
-0.000201633
-0.000240817
0.000999089
-0.000199492
-0.000385072
0.00114694
-0.000192091
-0.000535492
0.00128296
-0.000191158
-0.000677951
0.00139958
-0.000189647
-0.000809553
0.00150955
-0.000181339
-0.000934387
0.00161091
-0.000166978
-0.00104791
0.00170164
-0.00014892
-0.00114189
0.00177545
-0.000126757
-0.00122457
0.00183127
-8.42363e-05
-0.00129124
0.00187281
-4.10692e-05
-0.0013381
0.00189649
-3.93504e-06
-0.00138887
0.00192989
4.04558e-05
-0.00140701
0.00190547
6.71996e-05
-0.00139316
0.00185632
8.87906e-05
-0.00135506
0.00180941
9.0629e-05
-0.00130011
0.0017442
8.71624e-05
-0.00123205
0.00165848
7.88042e-05
-0.00115822
0.00155302
6.57682e-05
-0.00107076
0.00142698
3.88244e-05
-0.00095973
0.00128454
-6.55601e-06
-0.000827097
0.00113654
-5.10305e-05
-0.000679539
0.000986994
-9.04102e-05
-0.000522759
0.00085109
-0.000131981
-0.000374433
0.000727451
-0.000154151
-0.000244905
0.000624531
-0.000165103
-0.000139144
0.000541968
-0.000161806
-5.96983e-05
0.000474853
-0.000147879
-7.67996e-06
0.000417689
-0.000122772
8.13653e-06
0.00034319
-7.93213e-05
0.00020959
-3.29391e-05
2.45454e-05
5.08851e-05
-6.40137e-05
6.99175e-05
8.73092e-05
-0.000118142
0.000123525
0.000151184
-0.000141629
0.000143407
0.000238538
-0.00013381
0.000133412
0.000353705
-0.000136287
0.0001121
0.000487935
-0.000159055
8.6143e-05
0.000639478
-0.000189832
4.87985e-05
0.000794115
-0.000197893
-1.38396e-05
0.000955104
-0.000193338
-9.47334e-05
0.00110934
-0.000181742
-0.000188616
0.00125748
-0.000164507
-0.000284803
0.00138697
-0.000143852
-0.000386683
0.00150517
-0.000120329
-0.000501275
0.00160679
-9.26227e-05
-0.000621363
0.00168362
-5.3978e-05
-0.000734505
0.00172552
-1.47192e-06
-0.000823577
0.00174703
4.36737e-05
-0.000904368
0.00176892
8.73202e-05
-0.000978948
0.00177255
0.000133304
-0.00105355
0.00176304
0.000184369
-0.00111201
0.00174041
0.00021454
-0.00117272
0.00173929
0.000251303
-0.00120752
0.00167586
0.000264417
-0.00123798
0.00160925
0.000277527
-0.00125232
0.00154566
0.000278092
-0.00125598
0.00148204
0.000265814
-0.00124802
0.00141013
0.000240399
-0.0012324
0.00133086
0.000206529
-0.00120133
0.0012373
0.00015862
-0.00113271
0.00113892
7.70004e-05
-0.00102858
0.00103036
2.05272e-06
-0.000891146
0.000917752
-6.81924e-05
-0.000731
0.000812188
-0.000121244
-0.0005556
0.000718882
-0.000166831
-0.000386222
0.000639775
-0.000184621
-0.000235764
0.000578686
-0.000187176
-0.000114649
0.000524367
-0.000170629
-3.2e-05
0.000473112
-0.000138073
3.36901e-06
0.000395357
-8.7535e-05
0.000245088
-3.21301e-05
3.34743e-05
0.000114259
-9.68483e-05
9.68729e-05
0.00018977
-0.000165859
0.00016323
0.000271046
-0.000186218
0.000176827
0.000389908
-0.000164966
0.000164995
0.000527878
-0.00016234
0.000153731
0.000682067
-0.000182869
0.000137932
0.000849674
-0.000194398
0.000106396
0.00101105
-0.000185398
5.60284e-05
0.00116804
-0.000162566
-8.39893e-06
0.00131007
-0.000136301
-8.09465e-05
0.00143487
-0.000104844
-0.000159848
0.00153834
-7.24664e-05
-0.000238386
0.00161928
-3.55731e-05
-0.000314182
0.00166829
1.42944e-05
-0.000390229
0.00169329
6.63781e-05
-0.000478786
0.00169511
0.000118967
-0.000578187
0.00167486
0.000171578
-0.000670098
0.00163917
0.000221657
-0.000753478
0.00158371
0.000272217
-0.000836621
0.00153409
0.000312089
-0.000916346
0.00148094
0.000339194
-0.000984951
0.0014488
0.000359096
-0.00104438
0.00138052
0.000354769
-0.00111387
0.00132931
0.000349424
-0.00117385
0.00126951
0.000336127
-0.00122626
0.00122402
0.000310423
-0.00126731
0.0011821
0.000269084
-0.00129686
0.00113525
0.000225161
-0.00130732
0.00107954
0.000168218
-0.001277
0.00101752
9.10761e-05
-0.00119743
0.000944136
6.65132e-06
-0.00107705
0.000860795
-6.34183e-05
-0.000913528
0.000779199
-0.000130534
-0.000723118
0.000707811
-0.00017934
-0.000517973
0.000651941
-0.000217311
-0.000328997
0.000606345
-0.000216635
-0.000170679
0.000567344
-0.000201296
-5.7891e-05
0.000521133
-0.00016081
-2.30683e-06
0.000440558
-0.000100785
0.000276248
-3.34665e-05
3.32906e-05
0.00020693
-0.000125961
0.000131636
0.000307576
-0.000216151
0.000205512
0.000419998
-0.000222828
0.000228533
0.000559024
-0.000192138
0.000224963
0.000711203
-0.000179755
0.0002193
0.000870195
-0.000182465
0.000214632
0.00103373
-0.000179383
0.000196436
0.00118615
-0.000156902
0.00015789
0.00132769
-0.000121104
0.000107841
0.00144283
-8.27109e-05
5.03685e-05
0.00153804
-4.56966e-05
-1.57105e-05
0.00160391
5.10129e-07
-8.28196e-05
0.00163953
4.68623e-05
-0.000154566
0.0016433
9.67401e-05
-0.000230767
0.0016185
0.000150991
-0.000308775
0.00156832
0.000204797
-0.000399533
0.00150566
0.000259956
-0.000490819
0.0014257
0.000304755
-0.000593344
0.00135061
0.000335622
-0.000694129
0.00128619
0.000348685
-0.000785024
0.00121817
0.000353671
-0.000856546
0.00117077
0.000349552
-0.000934691
0.00112091
0.00033775
-0.00102758
0.00109478
0.000327416
-0.00112751
0.00106092
0.000308521
-0.00121567
0.00102626
0.000285913
-0.0012889
0.00101032
0.00024501
-0.00134599
0.000985345
0.000207001
-0.00138297
0.000955019
0.000161504
-0.00138731
0.000911911
0.000109939
-0.00133482
0.000856992
3.46629e-05
-0.0012317
0.000792912
-3.52437e-05
-0.00106978
0.000729199
-0.000111919
-0.000871446
0.00067804
-0.000168562
-0.000645268
0.000641527
-0.000215764
-0.000417548
0.000622598
-0.000243974
-0.000223436
0.00059749
-0.000224259
-8.23202e-05
0.000562833
-0.000182815
-7.60701e-06
0.000482118
-0.000116273
0.000305705
-3.70642e-05
5.37029e-05
0.000307015
-0.000153788
0.000173669
0.000444916
-0.000257306
0.00026415
0.000586632
-0.000257116
0.000300636
0.000730835
-0.000208297
0.000307252
0.000882128
-0.000177541
0.000302955
0.00103796
-0.000163469
0.000299046
0.00118703
-0.000149399
0.000292229
0.0013166
-0.000123632
0.000274248
0.0014312
-8.55363e-05
0.000232185
0.00152136
-3.64697e-05
0.000178085
0.00157547
1.66651e-05
0.000116197
0.00159647
6.93287e-05
4.90422e-05
0.00159237
0.000114313
-2.32672e-05
0.00155213
0.000163478
-0.000100832
0.001486
0.000210062
-0.000186378
0.00139965
0.000254216
-0.00028607
0.00131001
0.000295338
-0.000396583
0.00121312
0.000323097
-0.000511844
0.00113808
0.000327789
-0.000607182
0.00106291
0.000318617
-0.00069778
0.00100255
0.000306209
-0.000785701
0.000965638
0.000293052
-0.00088086
0.000936451
0.000279622
-0.000980151
0.000922963
0.000271109
-0.0010975
0.000919608
0.000258667
-0.00120966
0.000893384
0.000245032
-0.00130373
0.000881996
0.000222404
-0.00137919
0.000871469
0.000189334
-0.00143966
0.000847423
0.000168069
-0.00147142
0.000809085
0.00013458
-0.00144784
0.00076026
7.31511e-05
-0.00135805
0.000706469
-3.34852e-06
-0.00119916
0.000652667
-8.23514e-05
-0.0009906
0.000616157
-0.00014668
-0.000748525
0.000603156
-0.000203705
-0.000500477
0.000609007
-0.000234458
-0.000276951
0.000614247
-0.000240283
-0.000107428
0.00059345
-0.00020014
-1.41865e-05
0.000519627
-0.00013075
0.000333328
-4.18096e-05
6.84838e-05
0.000407768
-0.000169237
0.000208951
0.000594907
-0.000290459
0.000328031
0.000751528
-0.000283976
0.000384953
0.000891446
-0.000217534
0.000401281
0.00103251
-0.000166714
0.000399176
0.00117204
-0.000131973
0.000389851
0.00130056
-0.000104205
0.000380022
0.0014103
-8.38719e-05
0.000364277
0.00148859
-4.16436e-05
0.000340496
0.00153832
6.82481e-06
0.000292516
0.00156448
5.89724e-05
0.00022313
0.00155422
0.000111634
0.000152826
0.00150602
0.000156659
7.48801e-05
0.00142894
0.000201139
-1.30572e-05
0.0013349
0.000239042
-0.000119813
0.00123299
0.000273415
-0.000232745
0.00112826
0.000294687
-0.000351553
0.00103538
0.000296547
-0.000452827
0.000960617
0.000278742
-0.00054743
0.000900099
0.000257416
-0.000647441
0.000859059
0.000243507
-0.00074819
0.000834382
0.000232005
-0.000853049
0.000817077
0.000224233
-0.000957024
0.000803804
0.000223133
-0.00106808
0.000806811
0.000223849
-0.0011887
0.00079562
0.000218388
-0.0012929
0.00077473
0.000211463
-0.00138873
0.000763897
0.000203407
-0.00147259
0.000739336
0.000191948
-0.00152271
0.000699459
0.000159745
-0.0015254
0.000655724
0.000107227
-0.00145926
0.000615357
2.49637e-05
-0.0013172
0.000575254
-6.46449e-05
-0.00110267
0.000542148
-0.000140524
-0.000847352
0.000533426
-0.000185584
-0.000575639
0.000556812
-0.000219518
-0.0003221
0.000601595
-0.000240887
-0.000131216
0.000607426
-0.00020486
-2.05961e-05
0.000550206
-0.0001412
0.000358381
-4.56486e-05
8.27318e-05
0.000498528
-0.000173493
0.000249103
0.000738885
-0.000310349
0.000395619
0.000907625
-0.000302612
0.000472829
0.00103647
-0.000222236
0.000500144
0.00115813
-0.000152928
0.000500127
0.00127302
-0.000100971
0.000487529
0.0013779
-6.47356e-05
0.000469161
0.00145719
-2.85215e-05
0.000436303
0.00151135
1.01005e-05
0.000398213
0.00153497
4.14418e-05
0.000356482
0.00151681
8.94035e-05
0.000300593
0.0014708
0.000139314
0.000228068
0.00140137
0.00017717
0.000138381
0.00130246
0.000216163
3.51302e-05
0.00119243
0.000245713
-8.34492e-05
0.00108585
0.000265719
-0.000205835
0.000982563
0.000268082
-0.00031535
0.000898377
0.000246517
-0.00041392
0.000839437
0.00021975
-0.000512675
0.000795554
0.0002033
-0.000611458
0.000763897
0.000193945
-0.000712041
0.000745754
0.000189212
-0.000812737
0.000728578
0.000189195
-0.000917372
0.000711272
0.000197166
-0.00102207
0.000703321
0.000208191
-0.00114046
0.000696129
0.000217882
-0.00126213
0.000669877
0.000226523
-0.00136955
0.000642825
0.000228492
-0.00147388
0.000624943
0.000218723
-0.00154916
0.000594818
0.000179916
-0.00158182
0.000562439
0.00012595
-0.00153955
0.000529412
4.36756e-05
-0.00141704
0.000497345
-4.46011e-05
-0.00120469
0.000469118
-0.000139318
-0.000932955
0.000455288
-0.000193602
-0.000639581
0.000485747
-0.000222309
-0.000372014
0.000549581
-0.000215552
-0.000154496
0.00060568
-0.000215772
-2.68142e-05
0.000569537
-0.000147014
0.000382806
-5.12398e-05
9.46396e-05
0.000572705
-0.000168816
0.000286651
0.000867531
-0.000320658
0.000458992
0.00104539
-0.000310109
0.000554548
0.00116199
-0.000221074
0.000592896
0.0012604
-0.000140621
0.000595771
0.00134455
-7.44018e-05
0.000582792
0.00141974
-2.88627e-05
0.000555593
0.00147224
1.21506e-05
0.000509265
0.00149855
5.91311e-05
0.000456778
0.00149263
9.48199e-05
0.000395422
0.00145359
0.000124579
0.000329255
0.00138502
0.00015194
0.000260339
0.00128692
0.000183366
0.000170925
0.00117876
0.000213119
5.35967e-05
0.00107477
0.000234994
-6.71806e-05
0.000964759
0.000241869
-0.000181212
0.000871706
0.000224889
-0.000288397
0.000808586
0.000196976
-0.000385445
0.000758508
0.000177976
-0.000478545
0.000721698
0.000166957
-0.000570524
0.000691688
0.000164189
-0.000662837
0.000672009
0.000166058
-0.000754096
0.00064745
0.000172387
-0.000853638
0.000624295
0.000186519
-0.000958464
0.000602368
0.000205779
-0.00106429
0.000587006
0.000214953
-0.00119406
0.000565318
0.000234323
-0.00131659
0.000524253
0.000241107
-0.0014345
0.000510014
0.000232832
-0.00153275
0.000490957
0.000202111
-0.00159815
0.000475003
0.000152839
-0.00158835
0.000452478
6.71286e-05
-0.00149778
0.000413539
-6.76565e-06
-0.00131018
0.000378201
-9.66745e-05
-0.00103209
0.000374983
-0.000197787
-0.000711505
0.000404471
-0.000239311
-0.000407173
0.000472711
-0.000227463
-0.000175304
0.000567088
-0.000193277
-3.56289e-05
0.000576676
-0.000146814
0.000401953
-5.47772e-05
0.000102867
0.000627459
-0.000157622
0.000316555
0.00097399
-0.000320147
0.000514176
0.00116165
-0.000313878
0.000628936
0.00126455
-0.000217321
0.000675619
0.00133764
-0.000123923
0.000679084
0.00139478
-5.36915e-05
0.000665633
0.00143761
-4.42124e-06
0.000628551
0.0014599
4.94173e-05
0.000576503
0.00146196
8.86308e-05
0.0005123
0.00143544
0.000121399
0.00043699
0.0013799
0.000149
0.000353965
0.00129739
0.000170655
0.000262416
0.00119457
0.000183897
0.00016058
0.00107779
0.000202805
5.17575e-05
0.000967789
0.0002158
-5.58672e-05
0.00086555
0.000206834
-0.000168239
0.00079939
0.000184687
-0.000263123
0.000740409
0.00016306
-0.000352127
0.000696362
0.000151151
-0.000435624
0.000659102
0.000146092
-0.000517086
0.00062535
0.000147801
-0.000595807
0.000597636
0.000153095
-0.000675504
0.000563881
0.000163266
-0.000766085
0.000534052
0.000180824
-0.000863448
0.000502881
0.00019685
-0.000966845
0.000474483
0.00021592
-0.00108937
0.00045366
0.000234178
-0.00123142
0.000419378
0.000246929
-0.00134906
0.000386651
0.000241003
-0.00146793
0.000392084
0.000217749
-0.00156566
0.000386236
0.000186495
-0.00159782
0.000345787
0.00013885
-0.00155298
0.000299532
6.91663e-05
-0.00140735
0.00025765
-2.50784e-05
-0.00114486
0.000242145
-0.000129653
-0.000804397
0.00028646
-0.000222454
-0.000462272
0.000385436
-0.000254849
-0.000200019
0.000494245
-0.000189411
-4.27371e-05
0.000565196
-0.000145801
0.000420856
-6.16409e-05
0.000107842
0.000663102
-0.000143483
0.000340106
0.00105493
-0.000313208
0.000558164
0.00125344
-0.000309844
0.000688572
0.00134475
-0.000210607
0.000744683
0.00139492
-0.000113387
0.000750805
0.00142454
-3.58814e-05
0.000733248
0.0014377
1.74717e-05
0.000688149
0.00143487
7.01292e-05
0.000630098
0.00141436
0.000105651
0.000557283
0.00136965
0.000138598
0.000470206
0.00130023
0.000166743
0.000378752
0.00120704
0.000181806
0.000287782
0.00109733
0.000188212
0.00018106
0.000986711
0.000197801
6.39165e-05
0.000889477
0.000195456
-5.18977e-05
0.000802097
0.000179268
-0.000147986
0.00073912
0.000156359
-0.000233326
0.000683502
0.000142247
-0.000310712
0.00063814
0.000135608
-0.000383459
0.000597148
0.000134702
-0.000453644
0.00055717
0.000138365
-0.00051688
0.00051803
0.000142841
-0.00058466
0.000477631
0.00015403
-0.000664672
0.000442335
0.000171729
-0.000751795
0.000404149
0.000185854
-0.000851485
0.000371872
0.0002023
-0.000955957
0.000336691
0.000221441
-0.00109902
0.000316673
0.000245773
-0.00123203
0.000277559
0.000242099
-0.00137216
0.000291299
0.000240917
-0.00148972
0.000275576
0.000228214
-0.00156704
0.000224085
0.000199024
-0.00156839
0.000158244
0.000142641
-0.00146807
9.82355e-05
5.90937e-05
-0.00124452
6.82895e-05
-4.96939e-05
-0.000908912
0.000109905
-0.000159055
-0.000525455
0.00024169
-0.00023971
-0.000223388
0.000415244
-0.000223066
-5.00972e-05
0.000531316
-0.00013941
0.000436056
-6.52975e-05
0.000108947
0.000678141
-0.000123986
0.000354714
0.00110668
-0.00029751
0.000591927
0.00131783
-0.000301607
0.000739339
0.00140143
-0.000204089
0.000802355
0.00143223
-0.000100332
0.000806759
0.00143822
-1.80841e-05
0.000783121
0.00142373
3.7602e-05
0.000735715
0.00140241
7.98623e-05
0.000671988
0.001362
0.000116095
0.000594711
0.0012986
0.000148334
0.000509324
0.00121564
0.000169975
0.000417593
0.001118
0.000180772
0.000318868
0.00101239
0.00018367
0.000199462
0.000915495
0.000190624
8.31885e-05
0.000822073
0.000183678
-2.6821e-05
0.000749252
0.000162854
-0.000112484
0.000683747
0.000141037
-0.000192881
0.000631719
0.00013218
-0.000262111
0.000580919
0.000126451
-0.000325302
0.000534002
0.000126336
-0.000384971
0.00048777
0.00012907
-0.00043643
0.000439112
0.000130377
-0.000494854
0.000395996
0.000140059
-0.000564537
0.000356604
0.000155414
-0.000639197
0.000316079
0.000162731
-0.000725799
0.000277548
0.000180926
-0.000832424
0.000234129
0.000209187
-0.000945559
0.000191863
0.000237944
-0.00109065
0.000160537
0.000262112
-0.00122609
0.000157014
0.000269725
-0.0013669
0.000144822
0.000271571
-0.00148043
9.06073e-05
0.000247002
-0.00153301
1.4809e-05
0.000196012
-0.00148539
-6.60791e-05
0.000116696
-0.00131459
-0.000121021
1.85144e-05
-0.00101332
-0.000100546
-9.08233e-05
-0.000613079
3.56802e-05
-0.000194231
-0.000256282
0.000296672
-0.000238225
-5.8715e-05
0.000468598
-0.00013485
0.000442796
-6.54545e-05
0.000110932
0.000658997
-9.17888e-05
0.000365698
0.00112376
-0.000271849
0.000615632
0.00135042
-0.000282529
0.000777034
0.00142954
-0.000189515
0.000848927
0.00144508
-8.47399e-05
0.000850651
0.00143007
6.42213e-06
0.000822401
0.00139429
5.76955e-05
0.000771368
0.00135639
9.70582e-05
0.00071136
0.0012974
0.000124599
0.000637624
0.00122348
0.000148852
0.000548016
0.00114026
0.000164989
0.000443974
0.00104799
0.000174052
0.000336529
0.000947004
0.000172828
0.000226173
0.000852072
0.000173778
0.000113769
0.000761702
0.000172777
1.11415e-05
0.000694055
0.000157825
-7.229e-05
0.000630286
0.000136893
-0.000146491
0.000579595
0.000126325
-0.000210611
0.000523919
0.000121121
-0.000265746
0.0004709
0.000118237
-0.000317158
0.000420607
0.000118576
-0.000362202
0.000366448
0.000117707
-0.000412161
0.000321852
0.000124102
-0.000471504
0.000280694
0.000135253
-0.000533598
0.000238637
0.000139535
-0.000606414
0.000193338
0.000157026
-0.000697957
0.0001386
0.000187072
-0.0008026
8.21389e-05
0.000214367
-0.000938015
4.96893e-05
0.000246263
-0.0010819
2.15016e-05
0.000279401
-0.001218
-8.52564e-06
0.000289449
-0.00135665
-4.53826e-05
0.000274637
-0.00145108
-0.000127039
0.000236275
-0.00146139
-0.000226762
0.000170996
-0.00134614
-0.000317879
8.16023e-05
-0.00108357
-0.000336378
-2.67307e-05
-0.000700394
-0.000216801
-0.000130698
-0.000302685
9.57069e-05
-0.000196745
-6.5525e-05
0.000389118
-0.00015768
0.000439019
-6.17473e-05
0.000105682
0.000606989
-5.3674e-05
0.000362113
0.00111164
-0.000244315
0.000624982
0.00135361
-0.000266057
0.000804007
0.00143169
-0.000181174
0.000881215
0.0014334
-6.55305e-05
0.000884918
0.00140158
2.47886e-05
0.000856639
0.00134486
7.77064e-05
0.000809737
0.00129264
0.000110652
0.000747286
0.00122716
0.0001327
0.000664938
0.0011529
0.000152924
0.00056895
0.00107377
0.000162475
0.000463491
0.000982175
0.000171273
0.000358682
0.000888083
0.00016373
0.000260141
0.000795077
0.000155537
0.000160109
0.000706392
0.000155341
6.00752e-05
0.000639762
0.000154327
-2.64862e-05
0.000577111
0.000139736
-9.35433e-05
0.000521924
0.000124728
-0.000155964
0.000468659
0.000117681
-0.00020806
0.000411793
0.000111202
-0.000254585
0.000358168
0.000108964
-0.00029656
0.000302635
0.000105788
-0.00034033
0.000257044
0.000108579
-0.000392103
0.000217027
0.000115438
-0.000447712
0.000173937
0.000120309
-0.000512637
0.000121254
0.000137008
-0.000587812
5.56822e-05
0.000158092
-0.000681894
-1.56241e-06
0.000177784
-0.000780935
-5.88254e-05
0.000207556
-0.000919742
-9.09303e-05
0.000251239
-0.00107172
-0.000135033
0.000278484
-0.00121642
-0.000189632
0.000288949
-0.00133038
-0.00028071
0.000267637
-0.00138833
-0.000387701
0.000218891
-0.0013335
-0.000521712
0.000148994
-0.00113054
-0.000593859
5.45261e-05
-0.00077693
-0.000511403
-5.90083e-05
-0.000361613
-0.00018021
-0.0001394
-6.85667e-05
0.00025833
-0.000162259
0.000417044
-4.65927e-05
0.000110021
0.00050865
-1.1682e-05
0.000362344
0.0010639
-0.000204584
0.000633329
0.00132471
-0.000242081
0.000826034
0.00140699
-0.000168005
0.000913493
0.00140018
-5.42394e-05
0.0009241
0.00135467
3.63032e-05
0.000890822
0.0012884
8.97382e-05
0.000839538
0.00122506
0.000118861
0.000771198
0.00115787
0.000137627
0.00068806
0.00108417
0.000151871
0.000592644
0.00100467
0.000164517
0.000490798
0.000917061
0.000166961
0.000386899
0.00082683
0.000165153
0.000292098
0.000739619
0.000150258
0.000201929
0.000658486
0.000138075
0.0001142
0.000586534
0.000140957
2.75403e-05
0.000522195
0.000141575
-4.29055e-05
0.000463956
0.000128413
-0.000101843
0.000412335
0.000115262
-0.000153084
0.000356336
0.000106698
-0.000197983
0.000302815
0.000100252
-0.000240115
0.000249466
9.53015e-05
-0.000280095
0.000202352
9.46719e-05
-0.000325836
0.000163322
9.9446e-05
-0.000377719
0.000120097
0.000105723
-0.000429165
5.60448e-05
0.000116656
-0.00049918
-3.0396e-06
0.000128737
-0.000578511
-6.32698e-05
0.000141038
-0.000674492
-0.000128453
0.000165608
-0.000771081
-0.000194529
0.000200188
-0.000908559
-0.000243242
0.000245687
-0.00104914
-0.000321933
0.000272884
-0.00119444
-0.000419949
0.00028454
-0.00128195
-0.000559264
0.000259068
-0.00128468
-0.000721157
0.00020218
-0.00114913
-0.000842553
0.000113137
-0.00084891
-0.000824665
1.30441e-05
-0.000419697
-0.000521461
-8.79623e-05
-8.10113e-05
3.99187e-05
-0.000120275
0.000366873
-3.08408e-05
0.000122316
0.000373135
1.31985e-05
0.00034836
0.00100294
-0.000165074
0.000622095
0.00127141
-0.000220439
0.000825003
0.00135858
-0.000154503
0.000925785
0.00134102
-4.1619e-05
0.000950735
0.00128097
4.87527e-05
0.000920072
0.00121573
0.000103335
0.000868164
0.00114612
0.000130846
0.00079612
0.00108424
0.000145678
0.000711294
0.00101333
0.000155668
0.000619084
0.0009347
0.000162181
0.000521305
0.000850805
0.000164035
0.000420934
0.000764891
0.000162309
0.000327214
0.000683652
0.000149687
0.000242435
0.000607798
0.000135466
0.000166212
0.000537339
0.000125418
8.58425e-05
0.000472531
0.000130033
1.0482e-05
0.000409607
0.000129709
-4.76531e-05
0.000354373
0.000116097
-0.000100213
0.000305805
0.000103091
-0.000146597
0.000254881
9.43179e-05
-0.00018962
0.000204758
8.77301e-05
-0.000228972
0.000157135
8.45686e-05
-0.000273288
0.000118238
8.93995e-05
-0.000317209
6.84929e-05
9.55239e-05
-0.000368008
4.12778e-06
0.000102716
-0.000426947
-5.20979e-05
0.000107997
-0.000492574
-0.000114412
0.00011677
-0.000574128
-0.000180828
0.000133928
-0.000678247
-0.000251461
0.000161051
-0.000788418
-0.000329973
0.000196903
-0.000918694
-0.000433081
0.000241425
-0.00104299
-0.000557995
0.000262344
-0.00115621
-0.000711061
0.000265014
-0.00120923
-0.000899039
0.000230899
-0.00113599
-0.00107642
0.000160631
-0.000900837
-0.00113004
7.02198e-05
-0.000490092
-0.000913963
-1.82433e-05
-9.66958e-05
-0.000278475
-7.50033e-05
0.000251129
1.90471e-05
9.04204e-05
0.000283211
-4.97131e-07
0.000324744
0.000916591
-0.000147979
0.000602728
0.00119887
-0.00020544
0.000815984
0.00129618
-0.000150851
0.000922948
0.00127917
-4.51125e-05
0.000948104
0.00121167
4.41381e-05
0.00091742
0.00113868
0.000107731
0.000867862
0.00106142
0.000134258
0.000804982
0.000997173
0.000149942
0.000728297
0.00093204
0.000157975
0.0006426
0.000859987
0.00016041
0.000550891
0.000783383
0.000159131
0.000457065
0.000704164
0.000154554
0.000366935
0.000628173
0.00014561
0.000282486
0.000556222
0.000136025
0.000208151
0.000489181
0.000122494
0.000142443
0.000423756
0.000114484
7.10971e-05
0.000363157
0.000117796
3.4961e-06
0.000307744
0.00011423
-5.07434e-05
0.000258911
0.000101133
-9.88661e-05
0.000212432
9.05718e-05
-0.000142213
0.000164918
8.31868e-05
-0.000183748
0.000119644
7.90251e-05
-0.000225689
7.84785e-05
8.17008e-05
-0.000267311
2.2945e-05
8.71705e-05
-0.000318007
-3.44427e-05
8.9266e-05
-0.000369003
-9.36383e-05
9.25359e-05
-0.000427044
-0.00015704
0.000100669
-0.000497572
-0.000223396
0.000113096
-0.000582621
-0.000298404
0.000131992
-0.000685228
-0.000389894
0.000162529
-0.000815109
-0.000503849
0.000200649
-0.000947379
-0.000663332
0.000237606
-0.00105708
-0.000851948
0.000250586
-0.00112312
-0.00106934
0.00023635
-0.0010939
-0.00129674
0.000191093
-0.000907736
-0.00142102
0.000104816
-0.000565912
-0.00127732
2.15294e-05
-0.000132142
-0.000676233
-3.60118e-05
7.84111e-05
4.05767e-05
7.29195e-05
0.000208344
1.94801e-06
0.000311728
0.000808161
-0.000130379
0.000580355
0.00111307
-0.000182834
0.000802207
0.00122278
-0.000148459
0.000921111
0.00120941
-4.91495e-05
0.000956191
0.0011388
3.77896e-05
0.000935209
0.001056
0.000103662
0.000889173
0.00097604
0.000131419
0.000828426
0.000908016