/*--------------------------------*- C++ -*----------------------------------*\
| =========                 |                                                 |
| \\      /  F ield         | OpenFOAM: The Open Source CFD Toolbox           |
|  \\    /   O peration     | Version:  v1806                                 |
|   \\  /    A nd           | Web:      www.OpenFOAM.com                      |
|    \\/     M anipulation  |                                                 |
\*---------------------------------------------------------------------------*/
FoamFile
{
    version     2.0;
    format      ascii;
    class       volVectorField;
    location    "0.017";
    object      U_0;
}
// * * * * * * * * * * * * * * * * * * * * * * * * * * * * * * * * * * * * * //

dimensions      [0 1 -1 0 0 0 0];


internalField   nonuniform List<vector> 
64000
(
(-0.0021539 -0.00562922 0.000693921)
(0.0113486 -0.00730267 0.000487421)
(0.0270306 -0.00579181 0.00269817)
(0.0327274 -0.00569292 0.00331401)
(0.0257176 -0.00357816 0.00438089)
(0.0191555 -0.00349948 0.00507834)
(0.0171238 -0.0047273 0.0050573)
(0.0139341 -0.00634038 0.00499962)
(0.0101422 -0.00797846 0.00527375)
(0.00563199 -0.00835066 0.00497181)
(-0.00561326 -0.00784162 0.0049925)
(-0.0250151 -0.00495314 0.0055035)
(-0.0474547 -0.00454808 0.00468234)
(-0.0768048 -0.00295182 0.00477576)
(-0.109329 -0.000387043 0.00620118)
(-0.147018 0.00507567 0.00455126)
(-0.189965 0.00774765 0.00486074)
(-0.230381 0.00119701 0.00821725)
(-0.272809 -0.00784039 0.00581688)
(-0.282719 -0.0143408 -0.00339266)
(-0.31839 -0.0386343 -0.0402788)
(-0.235587 -0.0210698 -0.0309945)
(-0.101998 -0.024598 -0.0370115)
(-0.0934628 -0.0113152 -0.0400817)
(-0.0824666 -0.00274926 -0.0515355)
(-0.0730636 0.00538361 -0.0639632)
(-0.0573597 0.0151355 -0.0711166)
(-0.0340352 0.0257625 -0.0669486)
(9.94783e-06 0.0392185 -0.0517512)
(0.044657 0.0525655 -0.0334017)
(0.0877394 0.0406192 -0.0324422)
(0.122176 0.0353256 -0.0219111)
(0.136198 0.0232433 -0.0102457)
(0.131266 0.0104169 -0.00169613)
(0.112416 0.0024007 0.0033977)
(0.0872193 -0.00397369 0.00527884)
(0.0623723 -0.00646416 0.00748398)
(0.0412868 -0.00557472 0.00802322)
(0.0224361 -0.00399558 0.00797142)
(0.00596797 -0.00288239 0.00676374)
(-0.00116537 -0.0120425 0.00172944)
(0.0143077 -0.0201711 0.000239383)
(0.0377609 -0.017721 0.000722433)
(0.0500775 -0.0143381 0.00117355)
(0.0466516 -0.00556581 0.00156929)
(0.0381848 -0.000801577 0.000826324)
(0.033781 0.00163802 -0.000477631)
(0.0270722 0.00594593 -0.000988997)
(0.0185065 0.0120334 -0.00498982)
(0.00651032 0.024989 -0.00222516)
(-0.0155664 0.0312249 -0.00530178)
(-0.0544288 0.0407102 0.00152604)
(-0.103193 0.0515749 -0.0010395)
(-0.161067 0.0663483 -0.0045878)
(-0.225439 0.0745092 -0.00955793)
(-0.30255 0.0798413 -0.0252965)
(-0.398528 0.0870702 -0.0413442)
(-0.490254 0.0937113 -0.0539151)
(-0.568088 0.100674 -0.0697087)
(-0.62202 0.112409 -0.0903421)
(-0.653502 0.103999 -0.11764)
(-0.556528 0.143553 -0.127483)
(-0.420678 0.156497 -0.149449)
(-0.38453 0.193022 -0.160668)
(-0.353645 0.219487 -0.169281)
(-0.309793 0.240124 -0.17785)
(-0.252255 0.257598 -0.180524)
(-0.181781 0.270061 -0.171538)
(-0.0999907 0.281729 -0.149006)
(-0.036636 0.284097 -0.122354)
(0.0289591 0.273086 -0.0780033)
(0.0980571 0.242617 -0.0508764)
(0.129966 0.195988 -0.0400308)
(0.143297 0.149612 -0.028334)
(0.134396 0.104684 -0.0145929)
(0.110788 0.0679263 -0.0063518)
(0.0859832 0.042804 -0.00196592)
(0.061725 0.0282567 -0.000194611)
(0.0372805 0.0191724 0.00144382)
(0.0118996 0.0098211 0.00349164)
(0.000132578 -0.022873 0.00311735)
(0.0178984 -0.0317414 -0.000285141)
(0.0447108 -0.026074 -0.000190416)
(0.060714 -0.0165164 0.000393726)
(0.0568523 0.000555314 -0.00145393)
(0.0423294 0.0193114 -0.0025662)
(0.0338695 0.0339091 -0.00409001)
(0.022965 0.05252 -0.00751043)
(0.0100819 0.0739505 -0.00218632)
(-0.0194117 0.0921991 -0.00445912)
(-0.0674731 0.107618 -0.00888736)
(-0.123887 0.130494 -0.0124508)
(-0.190011 0.153371 -0.0182073)
(-0.27649 0.175617 -0.0287667)
(-0.375342 0.197694 -0.0366084)
(-0.46993 0.213794 -0.0470498)
(-0.562914 0.235027 -0.0578479)
(-0.646862 0.265307 -0.069581)
(-0.716661 0.298376 -0.0838308)
(-0.76208 0.334254 -0.101299)
(-0.775795 0.363995 -0.119124)
(-0.660923 0.400503 -0.120737)
(-0.505145 0.429642 -0.13136)
(-0.449118 0.468329 -0.132379)
(-0.412145 0.497758 -0.129497)
(-0.365331 0.51687 -0.128275)
(-0.309051 0.525614 -0.124541)
(-0.242178 0.521473 -0.113939)
(-0.169785 0.507685 -0.094967)
(-0.100414 0.479307 -0.0725119)
(-0.044463 0.458976 -0.0497051)
(-0.00299111 0.41335 -0.0274153)
(0.0324936 0.358729 -0.0110729)
(0.0569935 0.29576 -0.00598095)
(0.0629126 0.228818 -0.00900382)
(0.0611528 0.170553 -0.0075347)
(0.0552449 0.122674 -0.00673761)
(0.045823 0.0879396 -0.0041083)
(0.0324429 0.0600539 -0.000668668)
(0.0118341 0.0301941 0.00304121)
(1.41362e-05 -0.0311312 0.00191805)
(0.0205785 -0.0382505 -0.00128285)
(0.049876 -0.0262597 -0.0017215)
(0.0670458 -0.00692594 0.000371471)
(0.0662764 0.0160577 -0.0038805)
(0.046052 0.0476401 -0.00483035)
(0.0274656 0.0733319 -0.00677155)
(0.00763052 0.10546 -0.000923093)
(-0.0274414 0.131578 -0.00639376)
(-0.0769662 0.153459 -0.00971981)
(-0.129444 0.181384 -0.014638)
(-0.196484 0.215468 -0.0226716)
(-0.278609 0.248963 -0.0263404)
(-0.363665 0.278011 -0.0312891)
(-0.451668 0.314714 -0.0383329)
(-0.536994 0.350807 -0.0447804)
(-0.615907 0.3883 -0.0488577)
(-0.683465 0.426416 -0.0518339)
(-0.736008 0.463892 -0.0553662)
(-0.768169 0.503351 -0.0606898)
(-0.769887 0.536386 -0.0636695)
(-0.643838 0.56325 -0.0511779)
(-0.477823 0.583796 -0.0499296)
(-0.416159 0.602231 -0.0416773)
(-0.384408 0.612634 -0.0307957)
(-0.348345 0.612249 -0.0250548)
(-0.307884 0.600268 -0.021433)
(-0.259799 0.575579 -0.0160721)
(-0.206773 0.544072 -0.0063517)
(-0.156165 0.502479 0.00109904)
(-0.111966 0.456318 0.00541476)
(-0.0747971 0.408714 0.00680792)
(-0.049609 0.36104 0.00570462)
(-0.0311385 0.310499 0.00284008)
(-0.0156781 0.258943 -0.00139367)
(-0.00340446 0.210636 -0.00376947)
(0.00806803 0.164512 -0.00527403)
(0.0163009 0.125055 -0.00628602)
(0.0189607 0.0874392 -0.00245459)
(0.009379 0.0415356 0.00332059)
(0.000790196 -0.0375534 0.00120152)
(0.0254237 -0.0379695 -0.00346009)
(0.0594711 -0.0193866 -0.000954453)
(0.0740143 0.0100339 -0.00297629)
(0.0704447 0.0419028 -0.0038596)
(0.0439872 0.0773751 -0.00486426)
(0.0171528 0.111751 0.00146979)
(-0.0162925 0.151938 -0.00290692)
(-0.0644845 0.187021 -0.00615452)
(-0.116257 0.226457 -0.0113454)
(-0.171642 0.268027 -0.0153726)
(-0.2341 0.304595 -0.0202357)
(-0.307021 0.345467 -0.0216989)
(-0.381703 0.388374 -0.0238003)
(-0.455592 0.428918 -0.0253796)
(-0.524248 0.467932 -0.0236169)
(-0.585315 0.508116 -0.0182235)
(-0.637042 0.548527 -0.0103487)
(-0.673661 0.589033 -0.0019712)
(-0.693798 0.627214 -0.00145338)
(-0.692931 0.655912 -9.87657e-05)
(-0.567978 0.675919 0.0180184)
(-0.404214 0.680065 0.0208718)
(-0.346905 0.666084 0.0297767)
(-0.326491 0.649025 0.0379049)
(-0.309476 0.622374 0.0422438)
(-0.292286 0.587576 0.0441233)
(-0.26603 0.545341 0.0436919)
(-0.236242 0.499928 0.0392798)
(-0.208338 0.453174 0.032596)
(-0.182079 0.406242 0.0232908)
(-0.158688 0.357959 0.0164861)
(-0.131972 0.311469 0.0107367)
(-0.1052 0.269744 0.00434864)
(-0.0822059 0.234452 -0.00131839)
(-0.0602406 0.201389 -0.00551741)
(-0.0383948 0.169216 -0.00820087)
(-0.0165919 0.136426 -0.00820221)
(0.0031715 0.0997145 -0.00258562)
(0.00628903 0.0435165 0.00366569)
(0.00275099 -0.0410527 0.00031726)
(0.0309037 -0.0329385 -0.00386824)
(0.0676853 -0.00268572 -0.00469055)
(0.0826988 0.0335131 -0.0037364)
(0.0731652 0.0737129 -0.0078977)
(0.0388536 0.110974 -0.000862598)
(0.00673255 0.155459 0.0019657)
(-0.0299075 0.203008 -0.00237402)
(-0.0793042 0.252875 -0.00601809)
(-0.129007 0.302502 -0.00948179)
(-0.181941 0.350442 -0.0113668)
(-0.237596 0.390934 -0.0107621)
(-0.29248 0.429462 -0.00755524)
(-0.34998 0.465235 -0.0088323)
(-0.409341 0.502014 -0.00483486)
(-0.460481 0.540152 -0.00175878)
(-0.50355 0.582357 0.00574287)
(-0.538084 0.620749 0.0140388)
(-0.564481 0.655268 0.017809)
(-0.584623 0.6808 0.0192862)
(-0.584171 0.703071 0.0270912)
(-0.469011 0.737159 0.0492179)
(-0.331776 0.711575 0.0502169)
(-0.293035 0.651765 0.0565323)
(-0.286252 0.599685 0.0641114)
(-0.28912 0.551126 0.0666347)
(-0.291683 0.502626 0.0647955)
(-0.28643 0.454513 0.0611885)
(-0.272233 0.40444 0.056398)
(-0.256511 0.360322 0.0472361)
(-0.243003 0.322007 0.0330176)
(-0.227157 0.287198 0.0178657)
(-0.206544 0.256544 0.00792055)
(-0.175743 0.225494 0.00208749)
(-0.139374 0.198422 -0.00394222)
(-0.104761 0.177886 -0.00802301)
(-0.0700819 0.157462 -0.0105827)
(-0.0364996 0.136154 -0.00968109)
(-0.00484707 0.103091 -0.00410435)
(0.00514044 0.0403887 0.00375038)
(0.00336012 -0.0375251 -0.00145042)
(0.040135 -0.0126806 -0.0057803)
(0.0818405 0.0226126 -0.0110476)
(0.0913884 0.065057 -0.00868272)
(0.0746224 0.10628 -0.00765309)
(0.0383925 0.151758 -0.00084702)
(0.0100997 0.204897 0.0022907)
(-0.0243458 0.258531 -0.00200563)
(-0.0692638 0.316447 -0.00359806)
(-0.113184 0.369357 -0.00519525)
(-0.159454 0.418251 -0.00483555)
(-0.205974 0.458406 -0.00232029)
(-0.253001 0.493768 0.00238476)
(-0.295469 0.521596 0.00504327)
(-0.332383 0.549154 0.00807903)
(-0.362127 0.574674 0.014545)
(-0.391737 0.599586 0.0197294)
(-0.423946 0.628086 0.0259659)
(-0.451884 0.644324 0.0286998)
(-0.467771 0.660804 0.0298129)
(-0.447511 0.689856 0.0395328)
(-0.369595 0.728257 0.0541056)
(-0.307279 0.67805 0.0528804)
(-0.291536 0.596943 0.0535117)
(-0.283692 0.519138 0.0542717)
(-0.292712 0.462192 0.0546604)
(-0.307736 0.415517 0.0529739)
(-0.31684 0.373878 0.0504254)
(-0.315702 0.331651 0.0442561)
(-0.306203 0.293713 0.0333514)
(-0.296637 0.261692 0.0210302)
(-0.284867 0.234077 0.0113726)
(-0.265873 0.21535 0.000509017)
(-0.23662 0.200518 -0.00417338)
(-0.192599 0.186295 -0.00803239)
(-0.143637 0.172261 -0.0127244)
(-0.095732 0.159814 -0.0153483)
(-0.050792 0.144111 -0.0133785)
(-0.0106828 0.111651 -0.0061599)
(0.00487824 0.0419096 0.00304002)
(0.0086194 -0.030266 -0.000487823)
(0.0461807 0.0145079 -0.0170603)
(0.0885151 0.0542144 -0.0181758)
(0.0990914 0.0972096 -0.013955)
(0.0823537 0.141979 -0.00940168)
(0.051872 0.196093 -0.00161496)
(0.0251356 0.257035 0.00226597)
(-0.00174995 0.309304 0.0017898)
(-0.038921 0.365482 0.000713148)
(-0.0775631 0.416824 0.00129794)
(-0.117265 0.45809 0.00230032)
(-0.155964 0.49242 0.00712763)
(-0.190468 0.520843 0.0112684)
(-0.2227 0.541302 0.015377)
(-0.252516 0.553202 0.0205377)
(-0.277355 0.557144 0.0253914)
(-0.293181 0.557139 0.0277193)
(-0.318332 0.565087 0.0223261)
(-0.345613 0.56641 0.0211907)
(-0.349063 0.586631 0.025998)
(-0.33078 0.620031 0.0364601)
(-0.307136 0.633705 0.042982)
(-0.30712 0.588641 0.0412318)
(-0.320092 0.521894 0.0378162)
(-0.317637 0.442273 0.0334272)
(-0.31877 0.380708 0.0325498)
(-0.334345 0.340588 0.0333467)
(-0.350647 0.3063 0.0341594)
(-0.356088 0.272495 0.0318587)
(-0.351151 0.238841 0.0206887)
(-0.346372 0.208413 0.0116078)
(-0.333259 0.183853 0.00353815)
(-0.311746 0.170208 -0.00440224)
(-0.281022 0.166321 -0.00809147)
(-0.236943 0.168945 -0.0123402)
(-0.180752 0.168935 -0.0152152)
(-0.117429 0.163354 -0.0189367)
(-0.062301 0.15153 -0.0170428)
(-0.0149134 0.120389 -0.00906815)
(0.00421328 0.0441035 0.00239367)
(0.011357 -0.0145699 -0.00225275)
(0.0542922 0.0435843 -0.0240557)
(0.0972926 0.0915619 -0.0250057)
(0.109724 0.134853 -0.0207103)
(0.100154 0.183665 -0.0130146)
(0.0790252 0.240472 -0.00717321)
(0.0542684 0.300686 0.00361211)
(0.028126 0.353923 0.00673913)
(0.0022435 0.399318 0.00848423)
(-0.0317467 0.437888 0.0096083)
(-0.0664379 0.472465 0.0132267)
(-0.0952309 0.499433 0.0178761)
(-0.125313 0.515893 0.020337)
(-0.154293 0.520068 0.0229841)
(-0.18101 0.514521 0.0244009)
(-0.201885 0.502226 0.0244901)
(-0.214238 0.493283 0.0200599)
(-0.239405 0.476128 0.00992558)
(-0.256796 0.481072 0.0146242)
(-0.249695 0.507593 0.0231132)
(-0.251264 0.52863 0.0291131)
(-0.271952 0.528896 0.030962)
(-0.313541 0.504021 0.0279925)
(-0.357326 0.459135 0.0233153)
(-0.367805 0.395114 0.0182927)
(-0.357884 0.327614 0.0160115)
(-0.36285 0.288192 0.0184197)
(-0.380184 0.258488 0.0210615)
(-0.391669 0.229899 0.0213407)
(-0.392174 0.197152 0.0137075)
(-0.388094 0.167253 0.00214073)
(-0.375176 0.148032 -0.00329826)
(-0.350157 0.13424 -0.0083814)
(-0.314518 0.134017 -0.0140402)
(-0.26559 0.141039 -0.0147891)
(-0.208064 0.157241 -0.0176758)
(-0.139465 0.162386 -0.0198975)
(-0.0725869 0.158387 -0.0200777)
(-0.0186835 0.128898 -0.0117825)
(0.00353545 0.0484515 0.00185965)
(0.00886389 0.00558287 -0.00757869)
(0.0537004 0.0819331 -0.0313251)
(0.105034 0.134385 -0.0318136)
(0.125035 0.180238 -0.024636)
(0.125007 0.228125 -0.017622)
(0.11105 0.281843 -0.00834629)
(0.091941 0.334842 -0.00208644)
(0.0677711 0.383421 0.00738474)
(0.0385522 0.419905 0.0180521)
(0.0153651 0.446953 0.0217489)
(-0.00772851 0.469382 0.0251245)
(-0.0360321 0.480579 0.0269977)
(-0.0655131 0.48689 0.026571)
(-0.0952717 0.477575 0.0254611)
(-0.123087 0.458765 0.0220405)
(-0.140819 0.437967 0.0164182)
(-0.159551 0.420418 0.00517362)
(-0.176574 0.404822 0.00443059)
(-0.172907 0.425634 0.0132773)
(-0.177952 0.443057 0.0178794)
(-0.206464 0.44928 0.0217347)
(-0.250376 0.449356 0.0220804)
(-0.315911 0.438954 0.0185055)
(-0.384871 0.412912 0.0146683)
(-0.417645 0.373007 0.0119866)
(-0.403053 0.306286 0.00972405)
(-0.387329 0.251894 0.0101964)
(-0.398718 0.22065 0.0121062)
(-0.414524 0.193798 0.0117783)
(-0.42128 0.166691 0.00794545)
(-0.417307 0.135794 0.0138379)
(-0.406251 0.111706 0.0161164)
(-0.385717 0.0980148 0.0126552)
(-0.350915 0.0972054 0.00564752)
(-0.297061 0.108682 -0.013085)
(-0.231058 0.129284 -0.0181529)
(-0.154906 0.155465 -0.0202099)
(-0.0807206 0.157745 -0.0194228)
(-0.0217028 0.135089 -0.0133371)
(0.00345295 0.0518857 0.00161121)
(0.00644271 0.0206335 -0.0109582)
(0.0545308 0.121989 -0.0371679)
(0.115641 0.182386 -0.0375758)
(0.14431 0.227634 -0.0263662)
(0.152645 0.27215 -0.0195663)
(0.146399 0.317008 -0.0100995)
(0.13079 0.361605 -0.00148339)
(0.10748 0.398676 0.00611568)
(0.0831939 0.427681 0.0124073)
(0.0601811 0.451071 0.0286113)
(0.0357796 0.459909 0.036101)
(0.0169861 0.4592 0.038981)
(-0.0103698 0.4474 0.031165)
(-0.0469707 0.427522 0.0246445)
(-0.0754244 0.404674 0.0155438)
(-0.0942663 0.385156 0.00483864)
(-0.108881 0.368431 -0.00233773)
(-0.109946 0.376453 0.00537108)
(-0.112865 0.388257 0.00929231)
(-0.139965 0.388411 0.0141859)
(-0.177534 0.388921 0.01819)
(-0.230397 0.390945 0.0178513)
(-0.308874 0.385608 0.0140432)
(-0.387972 0.368869 0.0120019)
(-0.441283 0.349032 0.00952487)
(-0.446003 0.302832 0.00884132)
(-0.415501 0.228935 0.00830588)
(-0.407221 0.185954 0.00695566)
(-0.419995 0.159355 0.00472169)
(-0.434971 0.131069 0.0209811)
(-0.44444 0.0995265 0.02855)
(-0.437081 0.0708005 0.0287301)
(-0.415616 0.0529991 0.0184741)
(-0.380832 0.0534643 0.0103967)
(-0.327039 0.0674386 0.00200853)
(-0.251158 0.0950692 -0.0168965)
(-0.168819 0.130651 -0.0209743)
(-0.0904782 0.153845 -0.019767)
(-0.0223691 0.138473 -0.0141038)
(0.00292288 0.0553578 0.0011135)
(0.00460859 0.0383893 -0.0137595)
(0.0562418 0.165314 -0.0428293)
(0.126718 0.23173 -0.0422878)
(0.164574 0.273507 -0.0272428)
(0.180368 0.311327 -0.0159856)
(0.17914 0.346547 -0.00886675)
(0.167611 0.379963 -0.00355602)
(0.147091 0.405209 0.00701891)
(0.126256 0.427639 0.0139822)
(0.106244 0.442644 0.0225093)
(0.0828162 0.446365 0.028735)
(0.0560869 0.439127 0.0383005)
(0.0254186 0.415408 0.0344863)
(-0.0044801 0.388188 0.0230607)
(-0.0300804 0.369374 0.00781406)
(-0.0484121 0.359787 -0.00192894)
(-0.0532581 0.353483 0.000349979)
(-0.0593967 0.358497 0.00366558)
(-0.0815651 0.351295 0.00821688)
(-0.113516 0.345851 0.0135131)
(-0.151377 0.343118 0.0177778)
(-0.206951 0.343492 0.0169106)
(-0.292142 0.336207 0.0131375)
(-0.373039 0.322715 0.0128107)
(-0.431062 0.310069 0.00981402)
(-0.466368 0.290027 0.00675481)
(-0.444619 0.230756 0.0074161)
(-0.409056 0.159518 0.00658933)
(-0.414946 0.125722 0.0128607)
(-0.437489 0.091052 0.0232426)
(-0.452657 0.0591898 0.0335686)
(-0.454974 0.0344989 0.0505133)
(-0.439507 0.0132121 0.0516402)
(-0.410226 0.00322249 0.036079)
(-0.3596 0.017338 0.0240748)
(-0.281311 0.0501793 0.00487777)
(-0.182516 0.0943016 -0.022445)
(-0.0921185 0.136974 -0.0207455)
(-0.0254866 0.136458 -0.0144194)
(0.00320058 0.0567251 0.000410267)
(0.00348631 0.0553952 -0.0168938)
(0.0579979 0.206169 -0.0488474)
(0.135936 0.278102 -0.0480108)
(0.182864 0.315606 -0.0287334)
(0.206555 0.342827 -0.012844)
(0.210113 0.366941 -0.00300683)
(0.199395 0.390378 0.00161689)
(0.183003 0.407783 0.00478529)
(0.168766 0.423716 0.00843009)
(0.148415 0.42948 0.0183014)
(0.122762 0.423835 0.0216306)
(0.0950082 0.409571 0.0256881)
(0.0607006 0.390596 0.0283507)
(0.0336949 0.372626 0.0162638)
(0.0190558 0.367397 0.00365954)
(0.00153088 0.357285 -0.00142137)
(-0.0143084 0.350374 0.00226073)
(-0.0323151 0.334432 0.00483212)
(-0.0589196 0.321324 0.00919945)
(-0.0897101 0.311231 0.0141425)
(-0.123888 0.303148 0.018603)
(-0.179015 0.298334 0.0171948)
(-0.265941 0.286602 0.0137014)
(-0.343629 0.274497 0.0138404)
(-0.396607 0.264652 0.0102945)
(-0.441835 0.256518 0.00678984)
(-0.45829 0.233023 0.00741109)
(-0.423003 0.154851 0.00968368)
(-0.402379 0.0956127 0.0151011)
(-0.425035 0.0538915 0.0287639)
(-0.442884 0.0202856 0.0438966)
(-0.45453 -0.0158969 0.0350168)
(-0.459244 -0.0484767 0.0238979)
(-0.438124 -0.0691908 0.0141167)
(-0.390285 -0.059373 0.0040885)
(-0.313451 -0.0160268 0.0049827)
(-0.206969 0.0483711 -0.00141087)
(-0.101676 0.107186 -0.0285399)
(-0.0247791 0.13002 -0.013587)
(0.00277775 0.0578097 -0.000672185)
(0.00249081 0.0680964 -0.0190519)
(0.0592851 0.239284 -0.0530448)
(0.143437 0.316108 -0.0531407)
(0.196494 0.349027 -0.0324376)
(0.22627 0.366331 -0.0122708)
(0.236231 0.378611 0.0015336)
(0.231597 0.390669 0.00732318)
(0.21936 0.40552 0.0117882)
(0.2049 0.41531 0.0123126)
(0.182603 0.413933 0.0133)
(0.157511 0.405053 0.0132165)
(0.132409 0.394231 0.0175137)
(0.10667 0.385959 0.0186309)
(0.0906669 0.379856 0.00886678)
(0.0656167 0.372986 -0.00157575)
(0.0330201 0.351263 6.96983e-05)
(0.00787169 0.336374 0.00226212)
(-0.0162871 0.312614 0.00700767)
(-0.0392048 0.294563 0.0104267)
(-0.0669998 0.278257 0.0148253)
(-0.0958269 0.263816 0.0191874)
(-0.148534 0.251841 0.0173028)
(-0.233204 0.236526 0.0144469)
(-0.304298 0.224975 0.0145972)
(-0.35063 0.215743 0.0114739)
(-0.392173 0.209524 0.00961828)
(-0.434215 0.198807 0.0116047)
(-0.429964 0.159912 0.0112848)
(-0.398513 0.0692753 0.0195901)
(-0.400768 0.018075 0.0248071)
(-0.424895 -0.0262867 0.0231263)
(-0.454036 -0.0766824 0.0192322)
(-0.466955 -0.121127 0.0118349)
(-0.454303 -0.147762 0.000938783)
(-0.40832 -0.150695 -0.00887102)
(-0.333467 -0.103814 -0.0152242)
(-0.229437 -0.0219563 -0.00748971)
(-0.112749 0.0666523 -0.0172872)
(-0.0265443 0.115872 -0.0171492)
(0.00245076 0.0592203 -0.00209164)
(0.00113576 0.0740798 -0.0166748)
(0.0583109 0.262673 -0.0520096)
(0.146678 0.343763 -0.0535169)
(0.206714 0.372159 -0.032852)
(0.242655 0.380767 -0.0113796)
(0.256856 0.382327 0.00405737)
(0.26054 0.385712 0.010632)
(0.254852 0.394637 0.0130721)
(0.239887 0.402358 0.0127842)
(0.218014 0.405603 0.0127873)
(0.198947 0.405963 0.0122967)
(0.183669 0.404182 0.0133173)
(0.159327 0.399189 0.0150698)
(0.131268 0.385727 0.00208273)
(0.0923218 0.359635 -0.00480624)
(0.0548361 0.334047 -0.000515749)
(0.0256762 0.312347 0.00160393)
(-0.00216749 0.29143 0.00793731)
(-0.0222819 0.265895 0.0112397)
(-0.0458839 0.243582 0.0149068)
(-0.0695754 0.222469 0.0185066)
(-0.118374 0.201911 0.016384)
(-0.197448 0.186138 0.0145088)
(-0.26171 0.176545 0.0147728)
(-0.301739 0.16796 0.0118074)
(-0.340268 0.16134 0.0113293)
(-0.380822 0.151793 0.00480751)
(-0.417392 0.14088 0.00256131)
(-0.402132 0.0776728 0.00894363)
(-0.376335 -0.00551459 0.00856969)
(-0.399565 -0.0679228 0.0112184)
(-0.431298 -0.124496 0.0104258)
(-0.45278 -0.175177 0.00399392)
(-0.454819 -0.215614 -0.00738786)
(-0.418353 -0.231935 -0.0178526)
(-0.347529 -0.20406 -0.0322029)
(-0.249739 -0.116356 -0.0290634)
(-0.128582 0.0084251 -0.00272169)
(-0.0292123 0.0869871 -0.0250062)
(0.00313497 0.0591427 -0.0040832)
(0.000237888 0.0859 -0.0129637)
(0.0560435 0.283361 -0.0495737)
(0.145737 0.36752 -0.0523495)
(0.210967 0.392014 -0.0326298)
(0.252823 0.391624 -0.0102926)
(0.274854 0.384362 0.00497891)
(0.287675 0.379664 0.00945312)
(0.289765 0.387558 0.0109323)
(0.282477 0.401543 0.0103051)
(0.267549 0.413394 0.0101732)
(0.251153 0.419525 0.0103249)
(0.230331 0.41508 0.0116207)
(0.196085 0.396135 0.0140198)
(0.155242 0.37221 0.0049799)
(0.109439 0.33942 -0.00553862)
(0.0712352 0.314431 -0.00252449)
(0.0431567 0.286454 0.000791289)
(0.0125257 0.265766 0.00610498)
(-0.00970019 0.236611 0.0117109)
(-0.0282544 0.207981 0.0143831)
(-0.0497062 0.180099 0.0168966)
(-0.0913892 0.153208 0.015633)
(-0.159541 0.139209 0.0147121)
(-0.217647 0.132435 0.0151656)
(-0.254298 0.125965 0.0117223)
(-0.288696 0.11849 0.00844857)
(-0.325141 0.110001 -0.000392856)
(-0.363161 0.0961176 -7.98694e-05)
(-0.39191 0.0757053 -0.000909772)
(-0.382139 -0.00531234 -0.0014167)
(-0.374679 -0.0827362 0.00147712)
(-0.399376 -0.152031 0.00429061)
(-0.425502 -0.214933 0.0011229)
(-0.438864 -0.269092 -0.0079973)
(-0.417942 -0.300901 -0.0206108)
(-0.356836 -0.291598 -0.0364979)
(-0.257111 -0.219768 -0.0476815)
(-0.143369 -0.0745162 -0.0319564)
(-0.0359625 0.0485867 -0.0192839)
(0.00884447 0.0563721 -0.00706812)
(-0.00575543 0.094856 -0.0180772)
(0.0452364 0.299834 -0.0505326)
(0.138222 0.389919 -0.0540117)
(0.209254 0.41397 -0.0351442)
(0.258753 0.408707 -0.0118659)
(0.288165 0.395742 0.000703317)
(0.316 0.386246 0.00647377)
(0.336088 0.401794 0.00741858)
(0.334949 0.418764 0.00733942)
(0.317513 0.428807 0.00847122)
(0.293922 0.428571 0.00910947)
(0.261529 0.412242 0.00973417)
(0.219654 0.383625 0.0104605)
(0.173732 0.351644 0.00950121)
(0.12617 0.320087 0.000498227)
(0.0858334 0.296121 -0.00546924)
(0.0562806 0.265177 -0.000744709)
(0.0267803 0.238824 0.00365298)
(0.00141733 0.211466 0.0103237)
(-0.0170682 0.177698 0.013567)
(-0.0353922 0.146902 0.0157072)
(-0.0670312 0.11862 0.015306)
(-0.122714 0.104485 0.0150427)
(-0.175466 0.098475 0.016105)
(-0.210824 0.0924757 0.0134553)
(-0.24408 0.0850942 0.00692446)
(-0.281101 0.07337 0.00236964)
(-0.316509 0.0608106 0.00530297)
(-0.352942 0.0428522 0.00384716)
(-0.366463 0.00169948 -0.000169727)
(-0.362642 -0.0915863 -0.00758756)
(-0.373073 -0.158397 -0.00165726)
(-0.391657 -0.230323 -0.00127658)
(-0.408442 -0.299408 -0.00791273)
(-0.399362 -0.354344 -0.0213093)
(-0.357605 -0.369507 -0.0416716)
(-0.271562 -0.316989 -0.0568475)
(-0.157945 -0.170644 -0.0472825)
(-0.0385074 -6.07491e-05 -0.00792145)
(0.0115864 0.0518164 -0.0109411)
(-0.00829913 0.155342 -0.0205541)
(0.0389309 0.365622 -0.0464212)
(0.131257 0.461453 -0.0511652)
(0.205806 0.485107 -0.0344403)
(0.262448 0.474611 -0.011919)
(0.30301 0.453558 -0.00179728)
(0.353214 0.438938 0.00514375)
(0.386548 0.449713 0.00645635)
(0.380845 0.456007 0.00706589)
(0.358374 0.451578 0.00794123)
(0.325419 0.436467 0.00825815)
(0.283048 0.408905 0.00780115)
(0.234766 0.375221 0.0076593)
(0.187494 0.339022 0.00767697)
(0.14347 0.305818 0.00616688)
(0.100158 0.279451 -0.000837743)
(0.0667439 0.252418 -0.00423531)
(0.0397733 0.22067 0.00102339)
(0.0119172 0.193284 0.00649338)
(-0.00816586 0.160372 0.0121907)
(-0.022794 0.128792 0.014178)
(-0.0467765 0.0998776 0.0144518)
(-0.0912443 0.0826172 0.0145854)
(-0.138744 0.0760497 0.0162814)
(-0.172649 0.0684316 0.0149338)
(-0.206489 0.0572739 0.0042329)
(-0.238881 0.0473769 0.00619874)
(-0.270072 0.0386187 0.00714399)
(-0.310192 0.0213704 0.00666618)
(-0.355161 -0.00338593 0.00485021)
(-0.350394 -0.0675712 0.00379443)
(-0.335747 -0.171585 -0.0114762)
(-0.359949 -0.259211 -0.0139441)
(-0.382078 -0.342984 -0.018677)
(-0.382968 -0.420797 -0.0291069)
(-0.349524 -0.466547 -0.0479841)
(-0.268674 -0.436634 -0.0705656)
(-0.169538 -0.289408 -0.0721699)
(-0.0468768 -0.0760931 -0.0340723)
(0.0146061 0.0374034 -0.00888826)
(-0.0143632 0.280678 -0.0236968)
(0.0260467 0.497354 -0.0435578)
(0.116909 0.599363 -0.0494929)
(0.193189 0.628017 -0.0347634)
(0.256127 0.61834 -0.0145691)
(0.307562 0.592904 -0.00495675)
(0.376588 0.561334 0.00406776)
(0.421121 0.5335 0.0049931)
(0.409752 0.510604 0.00504589)
(0.378163 0.48213 0.00601019)
(0.339369 0.447464 0.00651871)
(0.294435 0.409386 0.0062163)
(0.245789 0.370366 0.00576154)
(0.197842 0.333457 0.00512976)
(0.155247 0.298847 0.0053699)
(0.116631 0.267335 0.00506035)
(0.0794164 0.241313 -0.000889908)
(0.0492183 0.211807 -0.00254507)
(0.023003 0.181822 0.00272954)
(0.000286984 0.152776 0.00866551)
(-0.0145697 0.119714 0.0121275)
(-0.0323878 0.0898354 0.0133644)
(-0.0655154 0.0681095 0.0136937)
(-0.107146 0.059585 0.0145843)
(-0.143906 0.0512253 0.0123619)
(-0.174045 0.0376758 0.0094452)
(-0.200387 0.0290873 0.00970204)
(-0.231042 0.0161288 0.00999877)
(-0.266427 0.000992659 0.0107906)
(-0.30508 -0.0160673 0.00898881)
(-0.353808 -0.0418903 0.00369414)
(-0.360713 -0.137378 0.00425867)
(-0.341614 -0.262067 -0.00694677)
(-0.354918 -0.378276 -0.0162117)
(-0.362091 -0.480975 -0.0266847)
(-0.33863 -0.556497 -0.043128)
(-0.258156 -0.561524 -0.0670945)
(-0.161847 -0.438439 -0.0773994)
(-0.0453566 -0.168593 -0.0541095)
(0.0179217 0.0206825 -0.0102395)
(-0.0125104 0.314013 -0.0162131)
(0.0236145 0.546858 -0.0429936)
(0.109263 0.662524 -0.0515136)
(0.188547 0.705882 -0.0413178)
(0.255355 0.703908 -0.0252072)
(0.303945 0.680532 -0.0166967)
(0.362111 0.643586 -0.00565747)
(0.406422 0.586029 -0.00215746)
(0.403294 0.53845 -0.000159239)
(0.374404 0.49396 0.00251978)
(0.33824 0.448934 0.00434011)
(0.296826 0.404509 0.00538132)
(0.251946 0.36217 0.00557845)
(0.207764 0.324009 0.00478892)
(0.165616 0.28954 0.0046515)
(0.127297 0.257286 0.0050052)
(0.0935843 0.227016 0.00608141)
(0.0614529 0.199421 0.000676758)
(0.0329585 0.170561 0.000173372)
(0.00827197 0.143417 0.00495554)
(-0.0089326 0.112344 0.0100331)
(-0.0229638 0.0823998 0.0119444)
(-0.0465163 0.0573156 0.0128366)
(-0.0797418 0.0442243 0.0126715)
(-0.116104 0.0341976 0.00972028)
(-0.145532 0.0249755 0.0110627)
(-0.17005 0.0133705 0.0118259)
(-0.196834 0.000715921 0.0133069)
(-0.225119 -0.011664 0.0143686)
(-0.258933 -0.0286739 0.0124377)
(-0.305275 -0.0532857 0.00820117)
(-0.35707 -0.0879812 0.00359599)
(-0.37301 -0.184817 0.00282586)
(-0.362515 -0.308212 -0.00294075)
(-0.354551 -0.437109 -0.0122282)
(-0.331357 -0.55579 -0.0265784)
(-0.257216 -0.617983 -0.0502597)
(-0.141828 -0.551314 -0.0658817)
(-0.0225361 -0.289763 -0.0668703)
(0.022261 0.000727488 -0.00129664)
(0.00160582 0.292536 0.00169657)
(0.0392839 0.516769 -0.0308555)
(0.111882 0.639047 -0.0406493)
(0.188863 0.690834 -0.0348608)
(0.255005 0.691744 -0.0202646)
(0.305784 0.667841 -0.0129146)
(0.353407 0.633909 -0.0039415)
(0.389297 0.580967 -0.00152146)
(0.392217 0.526306 -0.0011879)
(0.366754 0.479392 0.000680454)
(0.333071 0.432525 0.00310245)
(0.295571 0.386484 0.00533334)
(0.255745 0.343099 0.00696457)
(0.215417 0.304505 0.00748058)
(0.176457 0.269497 0.00757719)
(0.139158 0.237656 0.00728258)
(0.104128 0.205352 0.00701793)
(0.0732655 0.175178 0.00679012)
(0.0453105 0.149228 0.00529243)
(0.0178898 0.125463 0.00360202)
(-0.0021825 0.100752 0.00829299)
(-0.0158247 0.07186 0.0106894)
(-0.0328517 0.0476934 0.0119675)
(-0.0588545 0.0294637 0.0115542)
(-0.0896375 0.0167479 0.0114465)
(-0.117438 0.00838375 0.0119745)
(-0.140869 -0.000150659 0.0137324)
(-0.162588 -0.00940057 0.0150207)
(-0.187887 -0.0210132 0.015852)
(-0.217936 -0.0386008 0.0155579)
(-0.256586 -0.0635656 0.0122378)
(-0.301742 -0.0960011 0.00838454)
(-0.334759 -0.138661 0.00341189)
(-0.35433 -0.219925 -0.00154465)
(-0.366281 -0.335021 -0.0055024)
(-0.360211 -0.467224 -0.0131479)
(-0.296234 -0.568252 -0.0272504)
(-0.181683 -0.559682 -0.0482922)
(-0.025141 -0.341697 -0.0535893)
(0.0424568 0.0182372 -0.0195412)
(0.00454193 0.288001 0.00390431)
(0.041146 0.489047 -0.0240485)
(0.109346 0.611153 -0.0325074)
(0.184407 0.66638 -0.0288655)
(0.250045 0.671365 -0.0135342)
(0.302592 0.646731 -0.00702666)
(0.347394 0.609105 0.000649888)
(0.374109 0.561546 0.00210469)
(0.377005 0.505375 0.000773681)
(0.357767 0.454014 0.000845332)
(0.326236 0.405863 0.00257136)
(0.292455 0.3586 0.00527028)
(0.257907 0.313885 0.00836174)
(0.222781 0.273923 0.0108764)
(0.186201 0.237272 0.0123974)
(0.148414 0.198648 0.0126517)
(0.113879 0.16009 0.0125634)
(0.0854684 0.131632 0.0120374)
(0.0605047 0.111811 0.0105395)
(0.0340141 0.0956004 0.00940982)
(0.00892628 0.08101 0.00738253)
(-0.00654632 0.0587502 0.0109591)
(-0.0203635 0.0368716 0.0113635)
(-0.0418306 0.0174003 0.0109592)
(-0.0666786 0.00323793 0.0117773)
(-0.0886843 -0.00556148 0.0136352)
(-0.108704 -0.0119486 0.0143856)
(-0.130113 -0.0197985 0.0152597)
(-0.153842 -0.0312798 0.0163658)
(-0.181831 -0.0480925 0.0174429)
(-0.215817 -0.0727746 0.0177435)
(-0.249876 -0.106391 0.0172242)
(-0.273544 -0.147502 0.0135544)
(-0.298318 -0.212239 0.00959495)
(-0.330529 -0.307357 0.00649791)
(-0.351359 -0.428569 -0.000534872)
(-0.324015 -0.533135 -0.0152095)
(-0.229532 -0.555197 -0.0353674)
(-0.064596 -0.354097 -0.047193)
(0.0289861 0.0406779 -0.0131443)
(0.0083475 0.262583 0.00505568)
(0.0450142 0.446295 -0.0182227)
(0.107609 0.570571 -0.0264648)
(0.180537 0.630651 -0.0248608)
(0.244707 0.642072 -0.0121873)
(0.296363 0.620007 -0.00452453)
(0.340109 0.581114 0.00246203)
(0.362308 0.533853 0.00472053)
(0.36109 0.481226 0.00314944)
(0.343858 0.428117 0.00172576)
(0.316661 0.37757 0.00225481)
(0.286019 0.328421 0.00462969)
(0.256464 0.280457 0.00847991)
(0.22568 0.235404 0.0125324)
(0.187877 0.191696 0.0156827)
(0.147257 0.146091 0.0191791)
(0.12021 0.107138 0.0216804)
(0.105317 0.0844583 0.0205256)
(0.0864266 0.0721136 0.0175009)
(0.0609905 0.0614858 0.0152893)
(0.0319758 0.0532356 0.0132803)
(0.00894041 0.0430568 0.0106738)
(-0.00636097 0.0251606 0.0123183)
(-0.0246347 0.00554574 0.0113778)
(-0.0435719 -0.00666327 0.0118087)
(-0.0610192 -0.0161173 0.0127997)
(-0.0791002 -0.0252058 0.0138786)