/*--------------------------------*- C++ -*----------------------------------*\
| =========                 |                                                 |
| \\      /  F ield         | OpenFOAM: The Open Source CFD Toolbox           |
|  \\    /   O peration     | Version:  v1806                                 |
|   \\  /    A nd           | Web:      www.OpenFOAM.com                      |
|    \\/     M anipulation  |                                                 |
\*---------------------------------------------------------------------------*/
FoamFile
{
    version     2.0;
    format      ascii;
    class       volScalarField;
    location    "0.1125";
    object      p;
}
// * * * * * * * * * * * * * * * * * * * * * * * * * * * * * * * * * * * * * //

dimensions      [0 2 -2 0 0 0 0];


internalField   nonuniform List<scalar> 
64000
(
-0.000132791
-0.121607
-0.249569
-0.306194
-0.321108
-0.321901
-0.319926
-0.320566
-0.322927
-0.347438
-0.365612
-0.424236
-0.456879
-0.578528
-0.670389
-0.827507
-0.916902
-1.16557
-1.21409
-1.61307
-1.59846
-1.92657
-1.99576
-2.21897
-2.25862
-2.41123
-2.45604
-2.57118
-2.65863
-2.75049
-2.91814
-3.11974
-3.31435
-3.49271
-3.6565
-3.7763
-3.87723
-3.92957
-3.97353
-3.98245
-0.126773
-0.255518
-0.306738
-0.324346
-0.326078
-0.317344
-0.308429
-0.301898
-0.298203
-0.3113
-0.323008
-0.369849
-0.415138
-0.497887
-0.572244
-0.704586
-0.806079
-1.10289
-1.16389
-1.5573
-1.4908
-1.80502
-1.91379
-2.12664
-2.16453
-2.32102
-2.38523
-2.52341
-2.62675
-2.77795
-2.88545
-3.07365
-3.2713
-3.44042
-3.60956
-3.7284
-3.83556
-3.89987
-3.95398
-3.97295
-0.301973
-0.336972
-0.345775
-0.340932
-0.328427
-0.313573
-0.304132
-0.292808
-0.266604
-0.284353
-0.285496
-0.331317
-0.376224
-0.471822
-0.611298
-0.784009
-0.884595
-1.13749
-1.21157
-1.65657
-1.64276
-1.99036
-2.16574
-2.43163
-2.50918
-2.69817
-2.78426
-2.93159
-3.01542
-3.12733
-3.21685
-3.33247
-3.40668
-3.54687
-3.66175
-3.75815
-3.84491
-3.9004
-3.94895
-3.97229
-0.404493
-0.410802
-0.405526
-0.372295
-0.334543
-0.307777
-0.277315
-0.236202
-0.242497
-0.228577
-0.253904
-0.281429
-0.409891
-0.514739
-0.631012
-0.799417
-0.948831
-1.21992
-1.35487
-1.82903
-1.85107
-2.20133
-2.43743
-2.72772
-2.83411
-3.02906
-3.1165
-3.24588
-3.30996
-3.38516
-3.43758
-3.48313
-3.53685
-3.60918
-3.70516
-3.78755
-3.86897
-3.90085
-3.94794
-3.97482
-0.438122
-0.421794
-0.407
-0.357945
-0.331995
-0.298337
-0.264525
-0.227912
-0.225065
-0.237332
-0.280757
-0.36914
-0.46483
-0.560149
-0.736708
-0.932377
-1.10691
-1.40034
-1.52331
-2.04052
-2.10002
-2.43473
-2.68917
-2.99411
-3.11188
-3.30511
-3.38545
-3.4979
-3.54653
-3.60211
-3.62395
-3.6588
-3.66701
-3.71305
-3.78307
-3.83287
-3.87537
-3.92306
-3.95378
-3.98297
-0.483297
-0.453953
-0.440229
-0.395231
-0.345105
-0.317472
-0.32665
-0.238958
-0.291241
-0.330364
-0.39976
-0.469113
-0.566619
-0.694679
-0.828975
-1.02416
-1.19752
-1.4256
-1.67362
-2.14101
-2.2727
-2.56853
-2.84714
-3.11936
-3.24291
-3.42723
-3.5033
-3.61101
-3.64704
-3.70972
-3.71969
-3.7409
-3.74741
-3.7951
-3.86665
-3.85446
-3.8942
-3.92869
-3.96402
-3.99328
-0.517721
-0.478114
-0.485665
-0.479996
-0.464341
-0.449071
-0.4689
-0.424168
-0.457435
-0.465884
-0.502858
-0.577218
-0.656433
-0.788415
-0.917857
-1.11155
-1.27361
-1.58484
-1.6785
-2.23125
-2.42622
-2.63915
-2.89936
-3.15513
-3.28196
-3.46477
-3.55283
-3.6682
-3.72127
-3.78677
-3.79703
-3.81382
-3.79823
-3.81606
-3.88492
-3.87053
-3.88227
-3.92207
-3.95521
-3.98516
-0.540143
-0.515305
-0.527348
-0.545752
-0.54734
-0.609168
-0.518613
-0.527592
-0.548422
-0.563232
-0.597402
-0.647702
-0.713132
-0.808485
-0.922746
-1.09439
-1.25412
-1.5169
-1.71573
-2.01722
-2.4154
-2.57284
-2.8471
-3.09169
-3.25312
-3.4352
-3.55122
-3.68091
-3.75712
-3.83807
-3.86377
-3.874
-3.87226
-3.85902
-3.93469
-3.89666
-3.89283
-3.91409
-3.95301
-3.98134
-0.576263
-0.536242
-0.566393
-0.596186
-0.626559
-0.681178
-0.590993
-0.62789
-0.633698
-0.649098
-0.649542
-0.682934
-0.695249
-0.767495
-0.830532
-0.965319
-1.09528
-1.31748
-1.55748
-1.7798
-2.28478
-2.44655
-2.71261
-2.97637
-3.17854
-3.36798
-3.51214
-3.65569
-3.76406
-3.86496
-3.89354
-3.91436
-3.90764
-3.871
-3.89895
-3.90889
-3.85664
-3.87529
-3.90499
-3.93711
-0.614109
-0.576196
-0.61412
-0.656484
-0.726898
-0.712517
-0.701772
-0.68461
-0.672414
-0.652877
-0.688804
-0.643706
-0.636776
-0.643649
-0.665371
-0.739957
-0.831313
-0.985096
-1.19931
-1.33141
-1.92306
-2.10325
-2.52742
-2.8011
-3.0723
-3.27038
-3.45002
-3.61732
-3.75666
-3.86751
-3.94141
-3.95162
-3.93909
-3.90968
-3.9101
-3.91665
-3.85554
-3.84737
-3.86711
-3.90322
-0.649516
-0.609912
-0.657402
-0.723995
-0.770422
-0.780521
-0.771502
-0.738063
-0.694307
-0.652545
-0.594649
-0.546646
-0.542657
-0.498584
-0.461847
-0.504306
-0.568533
-0.708601
-0.910199
-1.0161
-1.60709
-1.78927
-2.32765
-2.61174
-2.92214
-3.14278
-3.34396
-3.54675
-3.71052
-3.84448
-3.91305
-3.95238
-3.92315
-3.86867
-3.82582
-3.84787
-3.7719
-3.74741
-3.76853
-3.80467
-0.690582
-0.653039
-0.705378
-0.779581
-0.814858
-0.835858
-0.831095
-0.772651
-0.704574
-0.619347
-0.518408
-0.42282
-0.341772
-0.28317
-0.255028
-0.231509
-0.291384
-0.422118
-0.628682
-0.745129
-1.33733
-1.51515
-2.09264
-2.3815
-2.73442
-2.97072
-3.22333
-3.4346
-3.63924
-3.79815
-3.91029
-3.93599
-3.98463
-3.94234
-3.86756
-3.78029
-3.71483
-3.67913
-3.66775
-3.71785
-0.733995
-0.693899
-0.749583
-0.806102
-0.863791
-0.880689
-0.842187
-0.763925
-0.681478
-0.543842
-0.395713
-0.259269
-0.107231
-0.0162201
0.055685
0.0705184
0.0510854
-0.0988027
-0.292703
-0.46026
-1.02949
-1.23499
-1.78835
-2.09553
-2.48346
-2.74808
-3.02573
-3.28832
-3.50344
-3.70566
-3.82798
-3.93835
-3.86221
-3.81162
-3.72559
-3.71816
-3.55232
-3.52029
-3.51047
-3.55274
-0.771127
-0.726055
-0.765771
-0.822264
-0.873054
-0.904182
-0.839017
-0.736361
-0.594842
-0.429192
-0.253436
-0.0500919
0.136583
0.301053
0.405538
0.424408
0.420993
0.276294
0.0781698
-0.143494
-0.675412
-0.899417
-1.39757
-1.73694
-2.15775
-2.46943
-2.79876
-3.0713
-3.35585
-3.59624
-3.77611
-3.78474
-3.76869
-3.70977
-3.63097
-3.53855
-3.51033
-3.34421
-3.31261
-3.36858
-0.827281
-0.77538
-0.808524
-0.846511
-0.896155
-0.914529
-0.819706
-0.690139
-0.507235
-0.298599
-0.0499798
0.200886
0.439537
0.646432
0.807621
0.874909
0.857248
0.721177
0.554191
0.209356
-0.208057
-0.488351
-0.933357
-1.30906
-1.75655
-2.10106
-2.45335
-2.79638
-3.14001
-3.37995
-3.47558
-3.56137
-3.57147
-3.5224
-3.43705
-3.3318
-3.25258
-3.22609
-3.12812
-3.16347
-0.835061
-0.778771
-0.7919
-0.815806
-0.841722
-0.843057
-0.757189
-0.615241
-0.395188
-0.139922
0.179785
0.492592
0.819768
1.08123
1.26627
1.37247
1.3955
1.26791
1.12496
0.617151
0.366604
-0.0442886
-0.459904
-0.851189
-1.28654
-1.69297
-2.07545
-2.51402
-2.82707
-3.01197
-3.20379
-3.31076
-3.34918
-3.32413
-3.23438
-3.12292
-2.98506
-2.92663
-2.77246
-2.83699
-0.866508
-0.810496
-0.811252
-0.81453
-0.824372
-0.809664
-0.714444
-0.547674
-0.289318
0.0285561
0.412854
0.817145
1.21499
1.55447
1.79439
1.94403
1.9846
1.90363
1.71259
1.37949
0.947049
0.547571
0.0908817
-0.321703
-0.727627
-1.1352
-1.54446
-1.99608
-2.25606
-2.54962
-2.76869
-2.91915
-3.00498
-3.00824
-2.95275
-2.83755
-2.71897
-2.63976
-2.70865
-2.59896
-0.837762
-0.757293
-0.73449
-0.713357
-0.713218
-0.688045
-0.60038
-0.40211
-0.0926716
0.308193
0.801383
1.31658
1.8367
2.22882
2.54078
2.75501
2.88443
2.86056
2.57838
2.22027
1.61558
1.26816
0.763545
0.301752
-0.1018
-0.437625
-1.0035
-1.34669
-1.72371
-2.03852
-2.3013
-2.48212
-2.59069
-2.61813
-2.57583
-2.46374
-2.31889
-2.20986
-2.15249
-2.13472
-0.767796
-0.707502
-0.661338
-0.616093
-0.567162
-0.519722
-0.41422
-0.218183
0.128446
0.595828
1.17407
1.82321
2.48168
3.04712
3.40985
3.69263
3.80634
3.82418
3.61393
3.28698
2.68517
2.10396
1.64359
1.17658
0.743518
0.258013
-0.128347
-0.520118
-0.921893
-1.29098
-1.63861
-1.89182
-2.09018
-2.17129
-2.20192
-2.18132
-2.06239
-1.85749
-1.83365
-1.92118
-1.07249
-1.02529
-0.973587
-0.91023
-0.887529
-0.826734
-0.781965
-0.497831
0.113933
0.825202
1.63503
2.47928
3.2924
3.88477
4.27469
4.57119
4.78219
4.88052
4.75871
4.37689
3.88349
3.14198
2.73859
2.29328
1.78574
1.12585
0.70681
0.341683
-0.151275
-0.57151
-0.932705
-1.18514
-1.36085
-1.43931
-1.43565
-1.31778
-1.20326
-1.25387
-1.15299
-1.27358
-0.922241
-0.895798
-0.82501
-0.753817
-0.679795
-0.568659
-0.445804
-0.178911
0.549743
1.3584
2.27962
3.23025
4.1163
4.73601
5.18529
5.5158
5.73615
5.88579
5.8703
5.59273
5.05391
4.47886
3.89496
3.41254
2.82368
2.28907
1.77731
1.39593
0.9637
0.525398
0.0427759
-0.360701
-0.730068
-0.923471
-1.03287
-0.972847
-0.858478
-0.730879
-0.627991
-0.532721
-0.875207
-0.787531
-0.688015
-0.552759
-0.398182
-0.222706
-0.0199609
0.257006
1.01552
1.88284
2.88539
3.95221
4.84443
5.49975
6.0076
6.37999
6.60405
6.76764
6.86283
6.69082
6.23976
5.53678
4.81612
4.40609
3.71207
3.20987
2.71542
2.28286
1.88334
1.58349
1.26593
1.0465
0.789805
0.586394
0.373779
0.234964
0.114299
-0.00928437
-0.114457
-0.226142
-0.886479
-0.768163
-0.668819
-0.500164
-0.320412
-0.0951206
0.182934
0.525166
1.28969
2.27611
3.40143
4.54183
5.43205
6.12862
6.67937
7.09051
7.36938
7.4797
7.64838
7.59207
7.20126
6.49918
5.64661
5.06396
4.48797
3.99525
3.45005
2.99576
2.52084
2.14213
1.76411
1.47576
1.21298
1.15138
1.24884
1.40829
1.52909
1.67374
1.75896
1.79587
-0.867893
-0.739021
-0.598474
-0.380375
-0.160517
0.127352
0.449261
0.879763
1.58742
2.64013
3.81692
4.93096
5.82055
6.54804
7.13402
7.58844
7.90855
8.05405
8.16505
8.29906
7.93255
7.31037
6.50587
5.71435
5.14414
4.64212
4.10265
3.65281
3.17866
2.80271
2.40274
2.145
1.91619
1.85357
1.78895
1.82935
1.85706
1.94207
1.95524
1.75993
-0.914215
-0.832503
-0.635954
-0.391018
-0.139712
0.188394
0.539453
0.99385
1.72557
2.76309
3.95249
5.05104
5.92414
6.67
7.27917
7.78408
8.15724
8.36917
8.42662
8.49465
8.36814
7.78527
6.90664
6.28449
5.59269
5.09851
4.59484
4.1706
3.68816
3.31263
2.88913
2.59663
2.29787
2.18769
2.07766
2.10616
2.11123
2.22656
2.34094
2.28662
-0.996222
-0.904535
-0.712318
-0.417699
-0.160924
0.204238
0.574836
1.1127
1.78973
2.7491
3.81245
4.81103
5.66497
6.40243
7.05109
7.60202
8.01897
8.3176
8.28474
8.42813
8.42183
7.90742
7.19097
6.69175
6.0475
5.37557
4.97036
4.56329
4.13455
3.79307
3.42112
3.18945
2.93011
2.84261
2.69501
2.68799
2.6176
2.6508
2.66284
2.54231
-1.17455
-1.08124
-0.919931
-0.588647
-0.318853
0.019957
0.331763
0.943504
1.60021
2.46714
3.39583
4.28141
5.05288
5.73814
6.33905
6.84538
7.25834
7.55633
7.49134
7.97122
8.2059
7.83592
7.27873
6.82281
6.26276
5.71592
5.08188
4.83789
4.39238
4.06628
3.66575
3.37367
3.05415
2.95032
2.78941
2.82896
2.81805
2.92557
3.02701
3.08895
-1.35748
-1.25422
-1.16868
-0.798626
-0.523979
-0.1958
0.144025
0.667963
1.2608
2.00978
2.79537
3.56815
4.24067
4.84777
5.35302
5.81254
6.17639
6.46771
6.72483
7.20274
7.61015
7.58296
7.18567
6.77856
6.29663
5.85033
5.32132
4.91733
4.55453
4.25243
3.83158
3.58223
3.28163
3.16096
2.89174
2.81408
2.62294
2.65833
2.64128
2.61482
-1.65982
-1.57838
-1.46523
-1.21642
-0.887938
-0.611575
-0.277269
0.168993
0.674019
1.30797
1.96339
2.60528
3.1733
3.67011
4.09577
4.48241
4.79198
5.19271
5.61822
6.09492
6.75967
6.89144
6.77047
6.52534
6.16123
5.79952
5.3929
5.05251
4.79715
4.55709
4.2271
4.07916
3.81594
3.75756
3.49999
3.47353
3.27046
3.33922
3.271
3.31224
-1.92783
-1.86008
-1.7573
-1.59531
-1.29631
-1.09895
-0.744154
-0.367367
0.0405308
0.558592
1.0701
1.59526
2.04531
2.44963
2.81554
3.13423
3.46851
4.05255
4.41477
4.79892
5.71156
5.8871
5.99064
6.05178
5.8964
5.71447
5.47749
5.23833
4.93822
4.8186
4.5514
4.47165
4.25194
4.23275
3.9746
4.0029
3.79186
3.9481
3.90193
4.02448
-2.34404
-2.29806
-2.20712
-2.09393
-1.86544
-1.5994
-1.36221
-1.07278
-0.757411
-0.344927
0.057071
0.467748
0.822298
1.19016
1.47097
1.71112
2.10264
2.65619
3.11094
3.41208
4.49839
4.71147
5.04663
5.32861
5.39848
5.40277
5.36332
5.25611
4.94905
4.89257
4.68312
4.68659
4.45798
4.56837
4.28394
4.41938
4.23169
4.50729
4.51694
4.73339
-2.64914
-2.61502
-2.58619
-2.51417
-2.41721
-2.0879
-1.92548
-1.70497
-1.49273
-1.17672
-0.891889
-0.575994
-0.262173
-0.00593474
0.181641
0.440312
1.03093
1.32245
1.81055
2.10457
3.29596
3.60862
4.11036
4.5599
4.84843
4.98832
5.14546
5.11379
4.97344
4.92031
4.78434
4.84257
4.66427
4.81179
4.60055
4.83465
4.60935
5.04091
5.07733
5.506
-3.12588
-3.11913
-3.09547
-3.02453
-3.05391
-2.80128
-2.6064
-2.47566
-2.33166
-2.10782
-1.88442
-1.6097
-1.415
-1.2525
-0.979183
-0.430137
-0.132941
0.128764
0.536261
0.835136
2.0457
2.45865
3.17897
3.74982
4.19036
4.47356
4.80341
4.87454
4.81133
4.88177
4.70677
4.90276
4.65566
4.94731
4.68197
5.10516
4.89348
5.44669
5.57756
6.27774
-3.39361
-3.37833
-3.39892
-3.35236
-3.33909
-3.29959
-3.10815
-3.0357
-3.00995
-2.83871
-2.72523
-2.65156
-2.55541
-2.13255
-1.76342
-1.48172
-1.26133
-1.00035
-0.623213
-0.256857
0.983422
1.45969
2.38116
3.02541
3.61885
4.03799
4.47442
4.65686
4.65153
4.80396
4.69669
4.90456
4.75485
5.03659
4.82831
5.36263
5.16752
6.02712
6.08959
7.25534
-3.88692
-3.91622
-3.89992
-3.9125
-3.85405
-3.90249
-3.73401
-3.69994
-3.68856
-3.66954
-3.71055
-3.41396
-3.1205
-2.9515
-2.6908
-2.513
-2.33602
-2.03979
-1.66618
-1.22409
0.0510229
0.617333
1.63748
2.3689
3.07672
3.64491
4.15029
4.42332
4.48944
4.65428
4.59066
4.85927
4.62821
5.11491
4.72275
5.43414
5.13787
6.35005
6.44202
8.21338
-4.06883
-4.02356
-4.08033
-4.06285
-4.07407
-4.11167
-4.06548
-3.99878
-4.22046
-4.08334
-3.97587
-3.93253
-3.82757
-3.6994
-3.55158
-3.33394
-3.18301
-2.86532
-2.48171
-1.94344
-0.65263
0.0163904
0.974742
1.85208
2.6668
3.46361
3.86565
4.23621
4.31973
4.55618
4.49734
4.85278
4.57779
5.17584
4.85925
5.64572
5.28706
6.96778
6.93891
9.84871
-4.51854
-4.59972
-4.5809
-4.60018
-4.55309
-4.53687
-4.50982
-4.48828
-4.38489
-4.4271
-4.47428
-4.45622
-4.44708
-4.37446
-4.2783
-4.09078
-3.86013
-3.51867
-3.10442
-2.48371
-1.2636
-0.496843
0.520126
1.45354
2.29778
3.20145
3.61866
4.09462
4.22401
4.44046
4.35287
4.79934
4.45267
5.18637
4.66369
5.74915
5.10268
7.14898
7.3764
11.5876
-5.19475
-4.72962
-4.80905
-4.547
-4.63721
-4.49764
-4.58354
-4.30892
-4.54571
-4.55495
-4.67957
-4.71599
-4.75149
-4.71424
-4.67158
-4.50356
-4.33407
-3.87281
-3.5309
-2.74626
-1.49869
-0.694322
0.352689
1.28504
2.13026
3.05273
3.41402
3.96986
4.09216
4.37366
4.27211
4.77238
4.50048
5.33071
4.8668
6.31359
5.74153
8.48927
8.73686
16.2328
-5.18945
-5.44261
-5.28122
-5.27816
-4.90909
-4.95381
-4.78302
-4.60565
-4.58285
-4.67018
-4.85079
-4.8942
-4.94176
-4.92608
-4.89923
-4.76526
-4.59882
-4.22988
-3.73737
-2.94947
-1.77749
-0.898748
0.216774
1.18433
2.00602
2.98076
3.33728
3.95169
4.09784
4.34744
4.23897
4.73418
4.36629
5.26252
4.73416
6.26333
5.64213
9.28461
10.85
20.8085
-7.84536
-5.04952
-5.40646
-5.007
-4.94412
-4.77048
-4.78109
-4.5984
-4.65515
-4.73141
-4.85613
-4.92914
-5.00207
-4.9945
-4.99088
-4.8899
-4.79296
-4.4638
-3.90267
-2.97894
-1.78428
-0.802554
0.366557
1.33934
2.04835
2.90545
3.12954
3.72488
3.90892
4.2327
4.1847
4.81481
4.52438
5.45344
5.13435
7.1168
7.41786
13.4178
18.5091
33.7609
-0.133812
-0.256566
-0.314355
-0.341491
-0.342581
-0.339043
-0.33059
-0.33424
-0.327388
-0.36325
-0.360053
-0.440385
-0.488185
-0.600717
-0.686057
-0.861573
-0.935412
-1.1997
-1.2488
-1.74722
-1.67141
-1.95962
-2.09815
-2.31119
-2.35658
-2.50709
-2.56003
-2.69494
-2.78924
-2.92825
-3.0179
-3.19969
-3.39662
-3.54769
-3.70164
-3.81042
-3.91598
-3.97161
-4.01423
-4.00694
-0.273835
-0.328731
-0.354421
-0.359564
-0.343285
-0.334144
-0.314085
-0.315489
-0.287857
-0.318739
-0.314709
-0.381104
-0.434384
-0.516277
-0.587608
-0.745464
-0.850017
-1.12798
-1.19427
-1.62704
-1.64285
-1.91641
-2.05721
-2.28228
-2.34215
-2.51545
-2.58523
-2.73167
-2.83727
-2.97293
-3.09584
-3.23728
-3.36961
-3.50872
-3.6679
-3.77689
-3.87717
-3.93192
-3.97844
-3.98823
-0.368114
-0.385267
-0.382684
-0.368444
-0.34506
-0.326376
-0.30157
-0.288716
-0.271899
-0.320006
-0.304048
-0.348345
-0.39039
-0.490542
-0.602975
-0.802726
-0.917717
-1.18374
-1.28619
-1.74982
-1.82575
-2.14608
-2.36503
-2.64175
-2.73075
-2.92612
-3.00925
-3.15078
-3.23595
-3.33202
-3.39188
-3.45598
-3.54022
-3.65653
-3.70909
-3.79635
-3.88577
-3.9324
-3.9759
-3.991
-0.447304
-0.444954
-0.433308
-0.389875
-0.350225
-0.316403
-0.299386
-0.283413
-0.244963
-0.244408
-0.254112
-0.30258
-0.391457
-0.528632
-0.652295
-0.851814
-0.997531
-1.29
-1.44191
-1.92856
-2.07735
-2.41909
-2.67319
-2.96052
-3.06073
-3.24984
-3.32562
-3.43699
-3.49436
-3.54935
-3.57725
-3.59369
-3.61704
-3.67045
-3.76247
-3.8283
-3.91375
-3.93562
-3.97759
-3.99721
-0.466858
-0.462549
-0.418019
-0.389573
-0.354495
-0.335247
-0.315104
-0.258985
-0.231368
-0.247036
-0.283696
-0.379406
-0.481137
-0.611536
-0.763283
-0.981711
-1.15303
-1.45844
-1.64638
-2.09837
-2.2616
-2.59985
-2.87132
-3.15035
-3.24492
-3.43037
-3.51659
-3.64249
-3.66852
-3.70102
-3.69539
-3.71526
-3.7253
-3.76167
-3.81883
-3.87
-3.91824
-3.95536
-3.98686
-4.0091
-0.512069
-0.479513
-0.456646
-0.435996
-0.368903
-0.363114
-0.349666
-0.292445
-0.289662
-0.334142
-0.399492
-0.478995
-0.578534
-0.717895
-0.861716
-1.07516
-1.25893
-1.54077
-1.74191
-2.1992
-2.39695
-2.70499
-2.97594
-3.24654
-3.35899
-3.52234
-3.59805
-3.67713
-3.7378
-3.76589
-3.77204
-3.78866
-3.77991
-3.83981
-3.89096
-3.90442
-3.94487
-3.97375
-4.00253
-4.02881
-0.536
-0.518678
-0.521637
-0.501005
-0.457723
-0.459087
-0.486081
-0.432402
-0.446246
-0.466297
-0.504749
-0.584604
-0.670086
-0.796204
-0.930957
-1.12199
-1.31196
-1.61693
-1.80271
-2.23684
-2.47316
-2.72627
-2.96678
-3.22946
-3.34648
-3.52474
-3.61569
-3.72519
-3.75488
-3.80467
-3.80724
-3.81052
-3.8099
-3.83303
-3.9224
-3.91715
-3.93408
-3.96725
-3.99515
-4.022
-0.572128
-0.562507
-0.57571
-0.5855
-0.559378
-0.618634
-0.568081
-0.532125
-0.555652
-0.575894
-0.604475
-0.657511
-0.724252
-0.82605
-0.930209
-1.10579
-1.26972
-1.53523
-1.73854
-2.07912
-2.39985
-2.62815
-2.86568
-3.13462
-3.29847
-3.48738
-3.62103
-3.73246
-3.80388
-3.83877
-3.85667
-3.8729
-3.86819
-3.88072
-3.95572
-3.96485
-3.96055
-3.98207
-4.00158
-4.0281
-0.613312
-0.60047
-0.625844
-0.649672
-0.626677
-0.722414
-0.620885
-0.660353
-0.647197
-0.656854
-0.658304
-0.679038
-0.700939
-0.770345
-0.836539
-0.965159
-1.09393
-1.31785
-1.54926
-1.83639
-2.21186
-2.45684
-2.72149
-3.00636
-3.22009
-3.42753
-3.58407
-3.71998
-3.79457
-3.85619
-3.87602
-3.93695
-3.93816
-3.88786
-3.91958
-3.93782
-3.92771
-3.93116
-3.9568
-3.98161
-0.663181
-0.644719
-0.684576
-0.702196
-0.740344
-0.73023
-0.748397
-0.74663
-0.712218
-0.703975
-0.667566
-0.655039
-0.637665
-0.641308
-0.670837
-0.746523
-0.830773
-0.987056
-1.18274
-1.43041
-1.85761
-2.12394
-2.53185
-2.83312
-3.12131
-3.34529
-3.53831
-3.67319
-3.80311
-3.91355
-3.99023
-4.01561
-4.00971
-4.00346
-3.98537
-3.96579
-3.92641
-3.92655
-3.92748
-3.95743
-0.704602
-0.688816
-0.737179
-0.79238
-0.795688
-0.81285
-0.813895
-0.769328
-0.724453
-0.690963
-0.621907
-0.570948
-0.505249
-0.479119
-0.440453
-0.505876
-0.567383
-0.703326
-0.880546
-1.07979
-1.51053
-1.79538
-2.33477
-2.65214
-2.98262
-3.22254
-3.4297
-3.61922
-3.7852
-3.92238
-4.01692
-4.00337
-3.97922
-3.89985
-3.9078
-3.90827
-3.82069
-3.82508
-3.8308
-3.85806
-0.752257
-0.739929
-0.800777
-0.861906
-0.857853
-0.863685
-0.86171
-0.810459
-0.739292
-0.63714
-0.517259
-0.459025
-0.346958
-0.252124
-0.197722
-0.217691
-0.289414
-0.422272
-0.608989
-0.811988
-1.23899
-1.51592
-2.08553
-2.4275
-2.79544
-3.05079
-3.30158
-3.46257
-3.74706
-3.9294
-3.99767
-4.11966
-4.08005
-4.07019
-3.98952
-3.96618
-3.7991
-3.73874
-3.73955
-3.77332
-0.805729
-0.788176
-0.859466
-0.906161
-0.942616
-0.929619
-0.874657
-0.750685
-0.76502
-0.563788
-0.418456
-0.270833
-0.110412
-0.0177663
0.129135
0.102438
0.0461183
-0.101145
-0.294953
-0.529136
-0.95472
-1.22794
-1.78516
-2.1455
-2.55907
-2.84339
-3.11001
-3.51408
-3.68699
-3.83307
-4.02956
-3.98967
-3.95369
-3.83673
-3.74863
-3.71833
-3.7277
-3.58551
-3.59453
-3.61409
-0.845284
-0.817988
-0.877456
-0.934204
-0.977334
-0.974671
-0.893648
-0.76407
-0.612987
-0.407111
-0.331438
-0.0601424
0.118213
0.306681
0.445028
0.488938
0.424076
0.273894
0.064125
-0.210571
-0.61708
-0.901551
-1.39233
-1.77833
-2.21953
-2.54761
-2.98902
-3.27948
-3.5264
-3.8182
-3.84495
-3.88418
-3.85378
-3.78726
-3.62793
-3.55733
-3.50312
-3.41739
-3.33959
-3.43562
-0.901278
-0.863037
-0.910635
-0.953785
-1.00434
-0.988461
-0.906699
-0.75256
-0.567997
-0.311942
-0.0563137
0.2426
0.405716
0.64846
0.820802
0.899662
0.88057
0.727428
0.519045
0.176886
-0.174434
-0.500564
-0.939851
-1.33235
-1.81009
-2.16621
-2.64077
-3.00157
-3.38318
-3.47601
-3.60081
-3.67224
-3.67215
-3.60433
-3.46753
-3.33698
-3.27546
-3.30746
-3.22029
-3.22675
-0.912466
-0.862831
-0.892431
-0.924926
-0.953542
-0.91514
-0.828359
-0.67507
-0.444915
-0.177439
0.137656
0.521805
0.857027
1.16079
1.23232
1.3779
1.42092
1.2771
1.05278
0.692771
0.362183
-0.0285073
-0.44551
-0.835295
-1.33069
-1.79602
-2.25262
-2.72801
-2.92783
-3.15118
-3.32674
-3.43189
-3.46025
-3.4196
-3.29202
-3.15256
-3.02002
-2.95337
-2.8593
-2.8854
-0.940356
-0.905905
-0.91905
-0.934949
-0.931478
-0.865336
-0.789624
-0.608237
-0.350738
-0.0237762
0.360856
0.814644
1.24889
1.61189
1.88015
1.96729
2.0522
1.97227
1.77581
1.42753
1.00359
0.58887
0.154668
-0.236875
-0.709728
-1.31974
-1.75372
-2.08388
-2.40896
-2.68715
-2.90343
-3.04848
-3.12276
-3.11008
-3.02199
-2.88856
-2.75222
-2.65899
-2.72824
-2.73559
-0.898676
-0.843578
-0.827568
-0.830431
-0.774505
-0.724783
-0.651811
-0.459628
-0.150884
0.246779
0.746915
1.28858
1.83611
2.25795
2.60461
2.84691
2.9814
2.9356
2.69289
2.32552
1.83662
1.37006
0.873005
0.428874
0.00868703
-0.469956
-0.986819
-1.45462
-1.85296
-2.16857
-2.43142
-2.6117
-2.7187
-2.73978
-2.66432
-2.56688
-2.37304
-2.21526
-2.18762
-2.20765
-0.873617
-0.850342
-0.825868
-0.780159
-0.641018
-0.605618
-0.55454
-0.348407
0.018804
0.513651
1.12419
1.80181
2.48827
3.08554
3.51985
3.839
3.97789
3.95768
3.80581
3.4175
2.89769
2.34124
1.76311
1.23892
0.936203
0.404353
-0.115279
-0.59746
-1.05337
-1.43561
-1.77248
-2.01774
-2.2036
-2.27235
-2.26597
-2.16484
-2.03128
-1.86007
-1.85835
-1.87623
-1.20591
-1.12379
-1.07131
-1.02713
-0.899087
-0.895782
-0.841135
-0.537807
0.0842157
0.810516
1.63369
2.49709
3.34746
4.00948
4.4458
4.80246
5.07102
5.13226
4.91544
4.57209
4.06456
3.45515
2.84069
2.38857
1.76751
1.27642
0.820648
0.357803
-0.153213
-0.584351
-0.964092
-1.24823
-1.45958
-1.54794
-1.51544
-1.43751
-1.30382
-1.19984
-1.19963
-1.26551
-1.07393
-1.01116
-0.959113
-0.888784
-0.777335
-0.704559
-0.590235
-0.270844
0.489599
1.33236
2.28324
3.27221
4.22745
4.92188
5.41493
5.78194
6.05188
6.21103
6.16022
5.69689
5.26458
4.63576
3.91658
3.55391
2.79854
2.28729
1.83169
1.44867
1.00927
0.578263
0.117975
-0.275119
-0.656136
-0.891394
-1.02345
-0.96875
-0.882618
-0.719705
-0.640468
-0.645634
-0.933672
-0.875293
-0.784403
-0.662873
-0.534841
-0.343588
-0.159313
0.164739
0.946422
1.86082
2.91458
4.0364
5.03097
5.75624
6.29892
6.69285
6.96476
7.17384
7.2408
6.98573
6.34828
5.79475
5.14822
4.45054
3.77277
3.23236
2.71483
2.31112
1.9073
1.55717
1.20829
0.970182
0.740949
0.567478
0.40787
0.29636
0.216102
0.185752
0.0612423
-0.222151
-0.93959
-0.855347
-0.725298
-0.569208
-0.388791
-0.151332
0.10306
0.474522
1.2589
2.28753
3.46974
4.69933
5.70021
6.46027
7.03519
7.4644
7.7757
7.98376
8.19344
8.02437
7.57032
6.72043
6.14729
5.29728
4.65788
4.09059
3.51715
3.04897
2.58704
2.21345
1.81857
1.52585
1.25548
1.15956
1.21072
1.35459
1.45929
1.61081
1.71779
1.72271
-0.917062
-0.793712
-0.625001
-0.421191
-0.200042
0.0782445
0.408306
0.8494
1.58994
2.67125
3.92488
5.14679
6.15083
6.94694
7.56493
8.05708
8.45401
8.70474
8.89874
8.87517
8.44403
7.78901
6.87801
5.97699
5.47936
4.81693
4.23503
3.74206
3.25579
2.86029
2.46328
2.20478
1.96037
1.89691
1.85429
1.89585
1.93593
2.02452
2.12498
1.93927
-0.957448
-0.861514
-0.64269
-0.397216
-0.14861
0.165167
0.540642
1.04763
1.78667
2.85306
4.09462
5.28455
6.29269
7.11452
7.78345
8.35957
8.81135
9.08724
9.17976
9.12161
8.84151
8.32755
7.53255
6.5839
5.91557
5.33908
4.77081
4.30745
3.80171
3.39631
2.95908
2.65795
2.35819
2.24003
2.12166
2.14084
2.14359
2.27931
2.41008
2.38244
-1.03115
-0.939389
-0.717797
-0.409633
-0.130518
0.212774
0.60216
1.16865
1.88437
2.87918
4.00461
5.11027
6.07713
6.89297
7.59809
8.21129
8.67861
8.95333
8.96342
8.78661
8.79057
8.47194
7.77678
7.13967
6.33498
5.76613
5.12747
4.73068
4.28603
3.89613
3.52299
3.27407
3.00509
2.91427
2.75996
2.75222
2.67383
2.7228
2.78221
2.67923
-1.19637
-1.10422
-0.933309
-0.592804
-0.3069
0.0567539
0.446671
1.02512
1.71262
2.60975
3.5972
4.57854
5.45424
6.22406
6.90336
7.49153
7.93616
8.1676
8.05168
8.03287
8.57199
8.35069
7.79758
7.25671
6.68766
5.9819
5.46375
4.85097
4.51494
4.12473
3.72818
3.47217
3.14513
3.03179
2.84493
2.86909
2.81796
2.94908
3.03612
3.08939
-1.36915
-1.26607
-1.1553
-0.805114
-0.504
-0.171582
0.186199
0.729636
1.367
2.14488
2.97696
3.81418
4.56581
5.23044
5.81256
6.32614
6.70258
6.90373
6.88696
7.20313
7.9993
7.94829
7.57984
7.15435
6.68505
6.20585
5.56156
5.12387
4.60405
4.3335
3.90579
3.67903
3.34992
3.23364
2.95662
2.89895
2.67611
2.70828
2.72676
2.6948
-1.68505
-1.58306
-1.47897
-1.22065
-0.883719
-0.585504
-0.25374
0.197886
0.747002
1.39974
2.09263
2.78873
3.39959
3.94098
4.40594
4.80366
5.10799
5.34511
5.55303
6.35601
7.04284
7.12707
7.00903
6.81088
6.47566
6.12322
5.69628
5.23293
4.8615
4.69391
4.31035
4.12185
3.80814
3.73895
3.45672
3.43763
3.20127
3.33743
3.27548
3.33553
-1.94861
-1.85418
-1.77582
-1.59953
-1.29032
-1.01279
-0.728504
-0.350434
0.0700706
0.599756
1.14361
1.69199
2.17511
2.61223
2.97773
3.29462
3.578
3.90831
4.35046
4.96988
5.86034
6.05051
6.19017
6.21707
6.13314
5.98038
5.69104
5.4021
5.08102
4.92293
4.59965
4.52265
4.24297
4.21092
3.92334
3.96525
3.69807
3.94559
3.86019
4.02825
-2.37211
-2.29855
-2.22848
-2.11758
-1.88936
-1.5931
-1.36361
-1.08133
-0.777773
-0.357572
0.0560178
0.491524
0.875356
1.24579
1.54809
1.83084
2.13745
2.5086
3.2052
3.54572
4.55476
4.83537
5.19537
5.42836
5.58121
5.64024
5.50989
5.35234
5.05497
4.95621
4.76574
4.71707
4.46481
4.5753
4.20937
4.36473
4.07918
4.47454
4.38288
4.7229
-2.67123
-2.63053
-2.59424
-2.51136
-2.42956
-2.10509
-1.93784
-1.73158
-1.55351
-1.22983
-0.916639
-0.597846
-0.297136
0.00252589
0.282516
0.614589
0.914862
1.26545
1.75532
2.19091
3.30352
3.70241
4.21824
4.62042
4.97551
5.18246
5.23904
5.22502
5.04667
4.97062
4.85017
4.88499
4.6522
4.80873
4.55862
4.74897
4.40356
4.94247
4.80286
5.35053
-3.15463
-3.16275
-3.10384
-3.07119
-3.04569
-2.84916
-2.64372
-2.52265
-2.43975
-2.18955
-1.94781
-1.63814
-1.49719
-1.21417
-0.934482
-0.623574
-0.34143
0.143458
0.412548
0.845795
1.97244
2.57612
3.23574
3.78007
4.29509
4.66605
4.86103
4.97063
4.87765
4.93402
4.76549
4.93358
4.66819
4.96499
4.53699
5.02432
4.59759
5.21498
5.05761
5.90191
-3.42659
-3.42769
-3.43548
-3.37349
-3.40994
-3.35231
-3.17508
-3.0887
-3.08637
-3.01223
-2.81127
-2.63991
-2.47126
-2.33614
-2.17321
-1.9305
-1.53189
-1.1456
-0.792694
-0.322323
0.808521
1.61259
2.38899
3.04252
3.6787
4.19173
4.51063
4.75195
4.73054
4.84083
4.74657
4.94661
4.76612
5.05071
4.74822
5.14812
4.81525
5.65775
5.21344
6.58805
-3.92642
-3.96296
-3.95226
-3.96953
-3.9041
-3.98349
-3.82795
-3.75228
-3.77909
-3.77083
-3.76241
-3.53383
-3.55582
-3.48344
-3.18999
-2.94723
-2.57155
-2.25431
-1.87097
-1.33569
-0.197267
0.705947
1.60715
2.35552
3.09687
3.75672
4.15701
4.50297
4.53443
4.70695
4.61872
4.9031
4.62796
5.10866
4.65223
5.28011
4.67168
5.6656
5.28005
7.18317
-4.09314
-4.11876
-4.17274
-4.11182
-4.11619
-4.21188
-4.19947
-4.0711
-4.20844
-4.17194
-4.16615
-4.30502
-4.31728
-4.21617
-3.98471
-3.7685
-3.40369
-3.18284
-2.71786
-2.07369
-0.90086
0.0185971
0.95748
1.85055
2.65503
3.43666
3.85419
4.31589
4.39494
4.60139
4.5141
4.89042
4.59818
5.19741
4.71364
5.57068
4.81397
6.19162
5.2774
8.56975
-4.55046
-4.69208
-4.62288
-4.68472
-4.63284
-4.65632
-4.66968
-4.53491
-4.61624
-4.64198
-4.77193
-4.79422
-4.76601
-4.65887
-4.53146
-4.3382
-4.1927
-3.72772
-3.3073
-2.59369
-1.42126
-0.733572
0.470983
1.44072
2.24983
3.14182
3.59764
4.15871
4.26153
4.49552
4.37602
4.80389
4.41446
5.13741
4.55113
5.60137
4.74057
6.45886
5.41287
10.4757
-5.16942
-4.74801
-4.85841
-4.61398
-4.72738
-4.60062
-4.78678
-4.57262
-4.76878
-4.83797
-4.96903
-5.00263
-5.04135
-5.00654
-4.97606
-4.79327
-4.76526
-4.34233
-3.80818
-2.90442
-1.73998
-0.721926
0.267255
1.21506
2.0414
3.01302
3.41901
4.03822
4.18231
4.4342
4.29428
4.81185
4.45204
5.26941
4.74739
6.1086
5.50681
7.98549
8.00748
15.9049
-5.02509
-5.47587
-5.36236
-5.40679
-5.13667
-5.08355
-5.01588
-4.83654
-4.92577
-5.0162
-5.19797
-5.17815
-5.20993
-5.22019
-5.21059
-5.07872
-4.98027
-4.65773
-4.30898
-3.23025
-2.03994
-1.04833
-0.0462641
1.04762
1.89648
2.9119
3.31706
3.99807
4.10687
4.3832
4.22965
4.73132
4.32369
5.26793
4.68242
6.2289
5.79231
9.45492
11.6312
23.2693
-7.79971
-5.02916
-5.34221
-5.00233
-4.98448
-4.8739
-4.91288
-4.76234
-4.86269
-4.97802
-5.16358
-5.22802
-5.30451
-5.28198
-5.30803
-5.25748
-5.18525
-4.84076
-4.37646
-3.21272
-1.96426
-0.921448
0.186134
1.22796
1.9725
2.87196
3.1198
3.76262
3.95701
4.25457
4.16835
4.83835
4.51523
5.49329
5.15442
7.19271
7.84845
14.09
21.6175
39.8874
-0.305925
-0.342125
-0.363876
-0.371661
-0.363152
-0.347314
-0.345031
-0.334255
-0.33613
-0.345781
-0.383802
-0.434196
-0.500144
-0.598046
-0.708137
-0.835646
-0.968017
-1.2422
-1.32068
-1.75692
-1.61193
-2.02273
-2.15386
-2.3719
-2.40256
-2.51398
-2.54996
-2.66382
-2.76082
-2.90578
-3.03386
-3.20623
-3.38547
-3.5777
-3.74329
-3.86338
-3.95746
-4.00066
-4.04218
-4.05966
-0.367489
-0.385082
-0.395257
-0.388923
-0.364767
-0.336748
-0.328772
-0.306223
-0.306273
-0.321053
-0.338681
-0.369866
-0.411667
-0.496628
-0.58208
-0.744455
-0.877683
-1.14611
-1.23489
-1.6777
-1.67681
-2.00481
-2.20574
-2.44747
-2.49614
-2.62172
-2.67443
-2.80142
-2.91252
-3.06444
-3.1911
-3.34158
-3.49715
-3.56566
-3.73358
-3.82445
-3.91994
-3.97122
-4.01573
-4.02871
-0.41479
-0.416812
-0.409444
-0.376447
-0.365279
-0.321992
-0.330885
-0.307927
-0.268199
-0.270505
-0.28041
-0.328711
-0.385342
-0.49618
-0.631799
-0.832798
-0.958946
-1.22975
-1.35214
-1.85215
-1.93187
-2.34582