/*--------------------------------*- C++ -*----------------------------------*\
| =========                 |                                                 |
| \\      /  F ield         | OpenFOAM: The Open Source CFD Toolbox           |
|  \\    /   O peration     | Version:  v1806                                 |
|   \\  /    A nd           | Web:      www.OpenFOAM.com                      |
|    \\/     M anipulation  |                                                 |
\*---------------------------------------------------------------------------*/
FoamFile
{
    version     2.0;
    format      ascii;
    class       volVectorField;
    location    "0.1125";
    object      U;
}
// * * * * * * * * * * * * * * * * * * * * * * * * * * * * * * * * * * * * * //

dimensions      [0 1 -1 0 0 0 0];


internalField   nonuniform List<vector> 
64000
(
(-0.0115405 -0.0139826 -0.00989991)
(0.0169491 -0.0132978 -0.00734084)
(0.0233156 -0.00455365 6.5265e-05)
(0.0283781 -0.00365665 0.00122341)
(0.029898 -0.0025674 0.00154619)
(0.0308893 -0.0031331 0.00189428)
(0.0313287 -0.00406597 0.0018602)
(0.0294187 -0.00479794 0.00238944)
(0.0293251 -0.00589483 0.00303043)
(0.0243133 -0.00578997 0.00430612)
(0.0188974 -0.00728655 0.00271555)
(0.00957911 -0.00725959 0.00846577)
(-0.00225315 -0.0121832 0.0060469)
(-0.0251475 -0.0176433 0.00423587)
(-0.0494928 -0.0186719 0.00414158)
(-0.084528 -0.0195711 0.002851)
(-0.106219 -0.00255066 0.000709521)
(-0.150917 -0.00495902 -0.00338091)
(-0.143095 -0.00881885 0.00297756)
(-0.206968 -0.0258468 -0.0120336)
(-0.17731 -0.0189649 -0.0173485)
(-0.0852439 -0.0218243 -0.0369426)
(-0.1029 -0.00488566 -0.0223379)
(-0.101756 -0.00186648 -0.0366367)
(-0.124492 0.00433569 -0.0473645)
(-0.117986 0.0122197 -0.0577685)
(-0.107696 0.0226652 -0.0620946)
(-0.0705691 0.0329848 -0.0592138)
(-0.0370988 0.0407561 -0.0544353)
(0.00721418 0.0516504 -0.0411841)
(0.0517458 0.0500069 -0.0324875)
(0.0895345 0.039544 -0.0258123)
(0.104957 0.0295472 -0.0127808)
(0.102349 0.0155263 -0.0055673)
(0.0881671 0.00670495 0.000871582)
(0.069913 -0.00134236 0.00340007)
(0.0509164 -0.00552301 0.00427171)
(0.0307631 -0.00518657 0.00511691)
(0.0164222 -0.00383088 0.00537378)
(0.00248276 -0.00244859 0.00344246)
(-0.008173 0.00357814 -0.00600901)
(0.00860607 -0.0175076 -0.00599397)
(0.02409 -0.0112041 -0.00252345)
(0.0357485 -0.00766847 -0.000944396)
(0.0422252 -0.0031252 -0.00165912)
(0.0433545 -0.00119734 -0.00181344)
(0.0429708 0.00228867 -0.00381691)
(0.0369955 0.00395092 -0.00293363)
(0.0311432 0.00724967 -0.00835809)
(0.0146197 0.014565 -0.00356985)
(-0.00591237 0.0219295 -0.00796987)
(-0.0396805 0.0312405 0.000373645)
(-0.0837658 0.0400512 -0.00373273)
(-0.134812 0.058007 -0.00653039)
(-0.190443 0.0729795 -0.0117666)
(-0.246319 0.0825122 -0.0170825)
(-0.314008 0.0909667 -0.0438054)
(-0.417546 0.0927023 -0.0596651)
(-0.458669 0.0999277 -0.0777038)
(-0.54986 0.101516 -0.0957703)
(-0.49806 0.129184 -0.0885922)
(-0.37505 0.145417 -0.124276)
(-0.37544 0.192615 -0.131136)
(-0.361317 0.214112 -0.143634)
(-0.357738 0.238301 -0.155688)
(-0.318215 0.259303 -0.162584)
(-0.272732 0.280457 -0.164091)
(-0.199776 0.295546 -0.152536)
(-0.126897 0.302168 -0.133024)
(-0.0535027 0.305707 -0.109478)
(0.00913392 0.291465 -0.0763342)
(0.0729926 0.260029 -0.0460985)
(0.110261 0.212178 -0.0386661)
(0.122673 0.160025 -0.0258034)
(0.117427 0.109771 -0.0125045)
(0.0988341 0.0700581 -0.00503342)
(0.0792279 0.0417765 -0.000759848)
(0.0546232 0.0267838 0.000171521)
(0.0326235 0.0170005 0.00139917)
(0.0080167 0.00882494 0.00128078)
(-0.000528928 -0.00342369 0.00135473)
(0.0153 -0.0228394 -0.00244166)
(0.0320458 -0.0175162 -0.00324959)
(0.0436003 -0.00558551 -0.00431456)
(0.0469908 0.00303829 -0.00610792)
(0.0455448 0.0134747 -0.00769777)
(0.0394281 0.0276932 -0.00884715)
(0.0247415 0.0406836 -0.0107586)
(0.0114224 0.0646269 -0.00234001)
(-0.0163793 0.0855172 -0.00414652)
(-0.053677 0.1128 -0.00811305)
(-0.103811 0.142251 -0.0126294)
(-0.155841 0.178579 -0.0174333)
(-0.229588 0.207683 -0.0315809)
(-0.319109 0.229028 -0.0372021)
(-0.415542 0.244414 -0.0435996)
(-0.493706 0.249881 -0.0609065)
(-0.580336 0.266597 -0.0800745)
(-0.614722 0.299308 -0.0981247)
(-0.691609 0.336489 -0.115621)
(-0.624256 0.373423 -0.0998398)
(-0.473926 0.408456 -0.124188)
(-0.452003 0.464444 -0.121994)
(-0.426234 0.493677 -0.12275)
(-0.413846 0.525508 -0.126495)
(-0.369659 0.546244 -0.1256)
(-0.323651 0.560837 -0.120893)
(-0.256802 0.563109 -0.105182)
(-0.193259 0.553132 -0.0825054)
(-0.126892 0.53214 -0.0592427)
(-0.0730462 0.500115 -0.0392961)
(-0.0279911 0.451478 -0.0276519)
(0.0046674 0.378952 -0.016929)
(0.0277839 0.305638 -0.0083981)
(0.0412551 0.22668 -0.0104444)
(0.0477051 0.162408 -0.0107657)
(0.0480686 0.115716 -0.00697027)
(0.0388047 0.0791205 -0.00489808)
(0.0275638 0.0532491 -0.00143573)
(0.00806648 0.0276984 0.00113097)
(0.00125632 -0.00883414 0.00218212)
(0.0180357 -0.0249378 -0.00158721)
(0.0383378 -0.0124385 -0.00419214)
(0.0457112 0.00404492 -0.00768308)
(0.0439693 0.0276152 -0.0081566)
(0.041078 0.0510923 -0.00940627)
(0.0286721 0.0851386 -0.00926103)
(0.0117846 0.116496 -0.00495563)
(-0.0129539 0.162246 -0.0107102)
(-0.0572176 0.200665 -0.0127401)
(-0.10272 0.244857 -0.01754)
(-0.161724 0.283013 -0.0236312)
(-0.239148 0.313109 -0.029193)
(-0.3297 0.329235 -0.0299905)
(-0.41088 0.351598 -0.0333299)
(-0.488383 0.374626 -0.0376901)
(-0.551617 0.406782 -0.0539737)
(-0.624944 0.43603 -0.0643073)
(-0.645578 0.481915 -0.0748835)
(-0.71163 0.530997 -0.0786779)
(-0.631932 0.561574 -0.0405273)
(-0.460159 0.58904 -0.0454537)
(-0.425344 0.628147 -0.0366372)
(-0.398898 0.633047 -0.0292081)
(-0.387377 0.64604 -0.0279363)
(-0.351928 0.645328 -0.0235846)
(-0.317677 0.637835 -0.0201244)
(-0.267347 0.617744 -0.0120265)
(-0.221393 0.591284 0.000229608)
(-0.175557 0.557023 0.00755766)
(-0.146093 0.514965 0.0121844)
(-0.119887 0.468867 0.0109022)
(-0.096038 0.408619 0.00488181)
(-0.0728483 0.346742 -0.00287921)
(-0.0487975 0.268131 -0.00633957)
(-0.0185353 0.201426 -0.0107332)
(0.00175763 0.147531 -0.010852)
(0.00981422 0.111969 -0.00807794)
(0.0173446 0.0790804 -0.0035969)
(0.0064765 0.0403362 0.000891221)
(0.000902424 -0.00962027 0.0004172)
(0.0230876 -0.0147557 -0.0038023)
(0.0452403 0.0023678 -0.00836321)
(0.0542576 0.0350587 -0.00880593)
(0.0522972 0.0722153 -0.0089331)
(0.0461032 0.117246 -0.0149322)
(0.02844 0.173025 -0.0128012)
(0.0023388 0.228716 -0.00586578)
(-0.0282041 0.285182 -0.0086042)
(-0.0795538 0.332462 -0.0109235)
(-0.136243 0.371206 -0.0142404)
(-0.210919 0.394441 -0.0166661)
(-0.284008 0.414653 -0.0172149)
(-0.353473 0.439418 -0.0203377)
(-0.418915 0.469876 -0.0225167)
(-0.487432 0.502843 -0.0234275)
(-0.538363 0.533589 -0.0287463)
(-0.594298 0.564738 -0.0273655)
(-0.594095 0.622856 -0.0208559)
(-0.645287 0.67289 -0.028387)
(-0.56722 0.698838 0.010997)
(-0.389103 0.708676 0.0179517)
(-0.35115 0.717872 0.0323177)
(-0.334018 0.687369 0.0366435)
(-0.335183 0.671207 0.0360588)
(-0.318859 0.643686 0.0416052)
(-0.304281 0.611942 0.042764)
(-0.272737 0.573743 0.0467668)
(-0.247453 0.531779 0.0398802)
(-0.221243 0.490503 0.0310804)
(-0.202765 0.444556 0.0207345)
(-0.192011 0.410504 0.013702)
(-0.182471 0.371686 0.00665063)
(-0.172974 0.34057 -0.00547394)
(-0.149572 0.278036 -0.0143726)
(-0.100396 0.20909 -0.0150364)
(-0.0493943 0.161694 -0.0139211)
(-0.015105 0.132021 -0.0119266)
(0.00366924 0.0981094 -0.00626013)
(0.00360203 0.0507051 0.000974437)
(0.00497832 -0.00279843 -0.000250213)
(0.0278778 0.0021814 -0.00648431)
(0.0585847 0.0295802 -0.00743363)
(0.0695576 0.0799752 -0.0096875)
(0.0649702 0.137002 -0.014645)
(0.0636262 0.199988 -0.0183326)
(0.0443954 0.274196 -0.0147326)
(0.0116513 0.326491 -0.00553809)
(-0.0346758 0.371701 -0.00765377)
(-0.102052 0.406444 -0.00986231)
(-0.168219 0.436731 -0.0119592)
(-0.231086 0.464461 -0.0116784)
(-0.286576 0.497685 -0.0101257)
(-0.342942 0.528492 -0.00668789)
(-0.388857 0.556403 -0.00131353)
(-0.439587 0.585436 0.00454229)
(-0.471616 0.615731 0.0085021)
(-0.498221 0.647265 0.0106232)
(-0.488128 0.696668 0.00744999)
(-0.530671 0.738989 0.00952593)
(-0.456172 0.758122 0.0455635)
(-0.297909 0.718483 0.056108)
(-0.278127 0.69743 0.0691892)
(-0.282761 0.635142 0.0772554)
(-0.297737 0.596837 0.0778044)
(-0.300796 0.553094 0.0761772)
(-0.301993 0.511316 0.0733092)
(-0.29047 0.467861 0.0661293)
(-0.277971 0.420651 0.0639872)
(-0.265595 0.380787 0.0419682)
(-0.25666 0.336491 0.0298439)
(-0.245093 0.305287 0.0138585)
(-0.230689 0.27817 0.00390486)
(-0.234947 0.26657 -0.00748954)
(-0.236507 0.242419 -0.0184084)
(-0.171952 0.19374 -0.0151849)
(-0.0899544 0.162578 -0.0156496)
(-0.0385835 0.137158 -0.0122709)
(-0.00397633 0.105741 -0.00708547)
(0.00267269 0.054353 0.00159525)
(0.0049259 0.00361214 -0.0017182)
(0.0369086 0.0175299 -0.0097621)
(0.0795195 0.0579623 -0.0108788)
(0.102521 0.113243 -0.013052)
(0.0991205 0.17988 -0.0186179)
(0.095839 0.252432 -0.02175)
(0.056465 0.314959 -0.0161717)
(-0.00439021 0.345296 -0.00103007)
(-0.0509307 0.388135 -0.0066724)
(-0.105746 0.425286 -0.00691548)
(-0.150919 0.468285 -0.00673491)
(-0.198944 0.511133 -0.00448075)
(-0.242338 0.550973 -0.00047231)
(-0.286794 0.583927 0.00393672)
(-0.322978 0.61678 0.012783)
(-0.356811 0.641825 0.0175838)
(-0.373802 0.670215 0.0251058)
(-0.394911 0.685799 0.0280855)
(-0.369571 0.7051 0.0303898)
(-0.393285 0.717827 0.0169196)
(-0.379973 0.738385 0.0422232)
(-0.251993 0.631122 0.0589774)
(-0.225647 0.592333 0.0670692)
(-0.247281 0.525391 0.0757328)
(-0.273548 0.48792 0.0745255)
(-0.294229 0.44894 0.0727552)
(-0.311677 0.415616 0.0683631)
(-0.31728 0.380344 0.0600243)
(-0.317667 0.343386 0.0458487)
(-0.317883 0.308373 0.0287378)
(-0.314939 0.274899 0.0148385)
(-0.306557 0.246145 0.000953091)
(-0.290675 0.224668 -0.00597363)
(-0.282475 0.209248 -0.0136696)
(-0.284913 0.219394 -0.0211071)
(-0.223835 0.194478 -0.0215705)
(-0.124864 0.168878 -0.0221206)
(-0.0539067 0.148155 -0.0171586)
(-0.00925993 0.115472 -0.0108001)
(0.00260424 0.0597339 -1.70926e-05)
(0.00620676 0.0105408 -0.00424967)
(0.0447384 0.0371087 -0.0136192)
(0.0981774 0.0854736 -0.0140504)
(0.123715 0.14189 -0.0122174)
(0.127243 0.201537 -0.0135847)
(0.112157 0.272231 -0.016188)
(0.0516503 0.302638 -0.00542476)
(0.0068505 0.350925 0.00183214)
(-0.0208035 0.395362 -0.0025004)
(-0.0690584 0.449947 -0.000496735)
(-0.107573 0.493647 0.00036266)
(-0.147513 0.531798 0.00661308)
(-0.182406 0.563093 0.0124683)
(-0.212477 0.588962 0.021293)
(-0.234864 0.613571 0.0257154)
(-0.261426 0.627172 0.0306255)
(-0.274781 0.639176 0.034145)
(-0.292227 0.634242 0.0334653)
(-0.28309 0.636501 0.0312576)
(-0.293397 0.599518 0.0160839)
(-0.327648 0.618345 0.0205684)
(-0.248397 0.517272 0.0410761)
(-0.202337 0.462837 0.0441934)
(-0.23294 0.416377 0.0550061)
(-0.266059 0.387902 0.0570347)
(-0.299495 0.362028 0.0576676)
(-0.327013 0.338783 0.0580451)
(-0.345138 0.312324 0.0493176)
(-0.357279 0.285701 0.0380506)
(-0.363748 0.255343 0.0147634)
(-0.365333 0.22364 0.00412088)
(-0.355307 0.198274 -0.00528538)
(-0.339457 0.185144 -0.0128961)
(-0.318415 0.174003 -0.0157101)
(-0.323934 0.194369 -0.0250736)
(-0.273959 0.197859 -0.0212398)
(-0.159739 0.174156 -0.0226158)
(-0.0725966 0.156997 -0.0172026)
(-0.014327 0.122108 -0.0103849)
(0.00329649 0.0631536 0.000892467)
(0.00491315 0.0254822 -0.00707918)
(0.0532186 0.0694945 -0.017683)
(0.118502 0.124851 -0.0194421)
(0.150219 0.18101 -0.0142022)
(0.157828 0.241609 -0.0156967)
(0.124525 0.290853 -0.0153555)
(0.0732782 0.326985 -0.00655084)
(0.036562 0.386328 0.00125408)
(0.0117207 0.422722 0.00771815)
(-0.0193944 0.464601 0.00664461)
(-0.0570269 0.497369 0.0113945)
(-0.0882274 0.525626 0.0158717)
(-0.112663 0.545168 0.0251779)
(-0.134097 0.556861 0.0314974)
(-0.154304 0.559551 0.0347441)
(-0.176605 0.552355 0.0352541)
(-0.193559 0.544008 0.0341459)
(-0.21553 0.522394 0.0293641)
(-0.232837 0.508603 0.0227515)
(-0.240163 0.465667 0.0102187)
(-0.29111 0.469061 -0.00201466)
(-0.266967 0.419575 0.0157659)
(-0.208373 0.354847 0.0227802)
(-0.229589 0.336031 0.0322405)
(-0.266967 0.317512 0.0385407)
(-0.307143 0.302047 0.0426841)
(-0.34392 0.286647 0.0471784)
(-0.370406 0.265168 0.0414688)
(-0.392369 0.24333 0.0241647)
(-0.409483 0.210097 0.00621616)
(-0.411434 0.184773 -0.00338346)
(-0.397813 0.161383 -0.0109054)
(-0.381977 0.147298 -0.0144742)
(-0.351293 0.146583 -0.0248924)
(-0.339793 0.158761 -0.0275759)
(-0.304923 0.193389 -0.0306866)
(-0.196182 0.177283 -0.0258982)
(-0.0885926 0.166883 -0.0243731)
(-0.0197356 0.132186 -0.0133059)
(0.00419865 0.0697537 -0.0012326)
(0.00744178 0.0423151 -0.00973659)
(0.0624695 0.107318 -0.0256514)
(0.13709 0.166895 -0.0249121)
(0.175984 0.221057 -0.0164566)
(0.175338 0.27364 -0.0164591)
(0.144235 0.306232 -0.0177249)
(0.106899 0.354885 -0.00686533)
(0.0755178 0.400689 0.00441742)
(0.0474259 0.440182 0.0116493)
(0.0212047 0.464668 0.0219786)
(-0.00166398 0.487196 0.0217272)
(-0.0282308 0.499319 0.0299585)
(-0.0525536 0.502894 0.0361027)
(-0.0731197 0.49523 0.0419715)
(-0.0927753 0.476572 0.0432898)
(-0.11681 0.450765 0.0403146)
(-0.14019 0.425148 0.0344506)
(-0.166646 0.39414 0.0264053)
(-0.195599 0.372587 0.0175018)
(-0.209861 0.3469 0.00700969)
(-0.264709 0.337621 -0.0113674)
(-0.281498 0.328562 -0.000929083)
(-0.22074 0.286311 0.0109339)
(-0.223453 0.283131 0.0171522)
(-0.264923 0.269248 0.0279533)
(-0.307849 0.261363 0.034712)
(-0.349972 0.244654 0.043516)
(-0.384855 0.229465 0.0354818)
(-0.415732 0.201059 0.0252101)
(-0.431168 0.174202 0.00779804)
(-0.436961 0.146394 0.00796427)
(-0.430602 0.122488 0.0153706)
(-0.410617 0.103475 0.0106633)
(-0.382061 0.103263 0.00796105)
(-0.360783 0.115793 -0.0157316)
(-0.328921 0.162601 -0.0260579)
(-0.227178 0.172934 -0.0252135)
(-0.107393 0.165459 -0.0208235)
(-0.0258526 0.138322 -0.0124922)
(0.00498914 0.0728617 2.27676e-05)
(0.00842833 0.0667064 -0.0121588)
(0.0716234 0.151419 -0.0316224)
(0.155378 0.214356 -0.0308297)
(0.198413 0.263495 -0.0193836)
(0.195073 0.300295 -0.0133914)
(0.170532 0.336226 -0.0167099)
(0.146705 0.376527 -0.00595402)
(0.116373 0.414063 0.000802453)
(0.0924539 0.442597 0.008547)
(0.0655431 0.463123 0.0227262)
(0.0396409 0.469665 0.034408)
(0.0185915 0.467139 0.044046)
(0.00012065 0.454979 0.0482802)
(-0.0239579 0.428235 0.0483294)
(-0.0509726 0.400875 0.0486237)
(-0.0777462 0.364658 0.0429478)
(-0.10738 0.334606 0.0337955)
(-0.139721 0.305283 0.0230817)
(-0.172822 0.284039 0.0133993)
(-0.194076 0.270565 0.00249158)
(-0.245136 0.258605 -0.0127978)
(-0.269298 0.26133 -0.00664893)
(-0.2139 0.253539 0.00494241)
(-0.212216 0.247783 0.0100459)
(-0.252079 0.236599 0.0224219)
(-0.298312 0.225957 0.0303475)
(-0.345667 0.212661 0.0385141)
(-0.384724 0.191698 0.0340655)
(-0.419744 0.167334 0.0212453)
(-0.443808 0.137303 0.0297042)
(-0.458821 0.101859 0.0312782)
(-0.458735 0.073583 0.016416)
(-0.44338 0.0557957 0.0116735)
(-0.40821 0.0528807 0.00171217)
(-0.36939 0.065456 -0.00216539)
(-0.338921 0.114572 -0.0243484)
(-0.252793 0.151371 -0.0282471)
(-0.125542 0.162039 -0.0229543)
(-0.0295231 0.142012 -0.0142367)
(0.00431314 0.0778347 -0.00161023)
(0.00988425 0.0865492 -0.0128805)
(0.077558 0.191401 -0.0355871)
(0.168754 0.256638 -0.0340408)
(0.211284 0.294824 -0.0186843)
(0.21473 0.323614 -0.0120969)
(0.201213 0.357768 -0.0092174)
(0.181269 0.390209 -0.0078682)
(0.155771 0.414161 0.00390063)
(0.129786 0.434505 0.0100621)
(0.104694 0.441673 0.0202871)
(0.0833466 0.443402 0.0285723)
(0.0583303 0.430554 0.0489615)
(0.0301576 0.406722 0.0535874)
(0.0102022 0.370326 0.0561791)
(-0.0160556 0.33362 0.0484136)
(-0.0499608 0.30114 0.0423496)
(-0.0810833 0.273209 0.0304559)
(-0.116984 0.250854 0.018719)
(-0.150941 0.236302 0.00940966)
(-0.177743 0.231548 -0.00169939)
(-0.227958 0.22259 -0.0134657)
(-0.24359 0.224812 -0.00761869)
(-0.193325 0.233173 0.000746051)
(-0.192266 0.219074 0.00580208)
(-0.230582 0.205872 0.0177474)
(-0.2744 0.190735 0.026521)
(-0.324537 0.177026 0.0333331)
(-0.366818 0.154835 0.0260483)
(-0.406739 0.128683 0.0396164)
(-0.44101 0.0933019 0.0456502)
(-0.462697 0.0586473 0.037693)
(-0.466243 0.030954 0.046844)
(-0.45818 0.00936092 0.0381339)
(-0.435549 0.00419487 0.0363511)
(-0.395449 0.0120845 0.0251841)
(-0.353874 0.0575654 0.0041428)
(-0.267058 0.112599 -0.024154)
(-0.14016 0.146502 -0.0246038)
(-0.0362388 0.138333 -0.0135967)
(0.00560534 0.0784664 -0.00140866)
(0.0102126 0.107785 -0.011829)
(0.0821536 0.231501 -0.0378322)
(0.174363 0.297704 -0.0367795)
(0.223813 0.327187 -0.01964)
(0.238636 0.351532 -0.00700272)
(0.232179 0.376224 -0.00137803)
(0.213204 0.399523 0.00204571)
(0.188796 0.413908 0.00266319)
(0.167904 0.42292 0.0116057)
(0.14367 0.423672 0.0228997)
(0.118944 0.414035 0.0316853)
(0.0918831 0.39236 0.0392781)
(0.0644633 0.362457 0.0473414)
(0.0328445 0.326518 0.0548293)
(0.00672989 0.28512 0.0506904)
(-0.0221117 0.25284 0.0388291)
(-0.0591964 0.231196 0.0268929)
(-0.0952426 0.213889 0.0147326)
(-0.12731 0.204526 0.00689611)
(-0.156005 0.202879 -0.00362642)
(-0.203111 0.195698 -0.0114664)
(-0.203941 0.200978 -0.00526288)
(-0.160735 0.212126 -0.000121762)
(-0.167942 0.191235 0.00379488)
(-0.199458 0.173521 0.0148324)
(-0.242184 0.155993 0.0228445)
(-0.290134 0.136237 0.0271809)
(-0.336216 0.115389 0.0372936)
(-0.383397 0.084598 0.0489673)
(-0.424212 0.0507251 0.0482044)
(-0.450132 0.0198336 0.0681308)
(-0.472377 -0.0184263 0.0503914)
(-0.478831 -0.0570882 0.0339239)
(-0.46267 -0.0785046 0.0108156)
(-0.419517 -0.0683396 0.00385009)
(-0.373393 -0.0231149 0.0060963)
(-0.289022 0.0608364 -0.00137752)
(-0.15694 0.116534 -0.0294162)
(-0.0414137 0.130124 -0.0132567)
(0.00506249 0.0801538 -0.00281267)
(0.00955619 0.116264 -0.0113753)
(0.0802085 0.256016 -0.0407135)
(0.175091 0.325555 -0.0413502)
(0.230976 0.353139 -0.0227843)
(0.256521 0.368744 -0.00458472)
(0.257179 0.382016 0.00530736)
(0.240179 0.394249 0.011147)
(0.216611 0.401895 0.0136748)
(0.195993 0.405079 0.016729)
(0.173161 0.398895 0.0208872)
(0.149851 0.382599 0.0258102)
(0.120279 0.355311 0.0373478)
(0.0873588 0.322465 0.0385227)
(0.0560564 0.284842 0.0419807)
(0.0244173 0.252696 0.0465784)
(-0.00264818 0.217785 0.0371372)
(-0.0338324 0.201302 0.0225772)
(-0.0710305 0.186892 0.0117375)
(-0.0991177 0.179899 0.00492435)
(-0.127899 0.180035 -0.00457978)
(-0.167021 0.169925 -0.00863296)
(-0.15415 0.187114 -0.00154935)
(-0.123826 0.187636 -0.0016233)
(-0.13819 0.162542 0.00373496)
(-0.164396 0.141745 0.0110828)
(-0.20292 0.117393 0.0187657)
(-0.248087 0.0981454 0.0218743)
(-0.293673 0.0717672 0.0399808)
(-0.344628 0.0433508 0.0462933)
(-0.384904 0.0143515 0.0675582)
(-0.433719 -0.0264867 0.0509515)
(-0.477788 -0.0790853 0.0401868)
(-0.494592 -0.125439 0.0252875)
(-0.480446 -0.158295 0.0125446)
(-0.438194 -0.161185 -0.00865932)
(-0.377779 -0.123524 -0.00732196)
(-0.296335 -0.0227593 -0.00113621)
(-0.176183 0.072048 -0.0161584)
(-0.047411 0.112614 -0.0192863)
(0.00706038 0.0776801 -0.00112844)
(0.00827875 0.124055 -0.00895686)
(0.0794314 0.27821 -0.0397862)
(0.175873 0.352854 -0.0425861)
(0.23858 0.377599 -0.0235212)
(0.271112 0.385381 -0.00267358)
(0.276424 0.385794 0.0117446)
(0.263808 0.388567 0.0215929)
(0.244239 0.389778 0.024051)
(0.226259 0.388506 0.0263955)
(0.202349 0.377069 0.0282288)
(0.175569 0.357238 0.0291934)
(0.145756 0.326464 0.0280509)
(0.113165 0.292624 0.0269778)
(0.079281 0.256106 0.0303015)
(0.0444041 0.224619 0.0334597)
(0.017486 0.198528 0.0324284)
(-0.00964208 0.175003 0.0183969)
(-0.0449055 0.165659 0.00876821)
(-0.0663018 0.160958 0.00364317)
(-0.095991 0.154125 -0.00593058)
(-0.117605 0.15191 -0.0032478)
(-0.0991757 0.175081 0.000637041)
(-0.0918935 0.15913 0.00114567)
(-0.109299 0.133628 0.00429354)
(-0.132107 0.108021 0.0101554)
(-0.164461 0.0818461 0.0146309)
(-0.203971 0.0595938 0.0288562)
(-0.249556 0.0332656 0.0375225)
(-0.292646 0.00897701 0.0543987)
(-0.348728 -0.0274181 0.0479035)
(-0.410925 -0.0799421 0.0429361)
(-0.460703 -0.132064 0.032618)
(-0.491561 -0.183287 0.0201548)
(-0.493422 -0.225666 0.00395554)
(-0.45812 -0.245298 -0.0136987)
(-0.390006 -0.217836 -0.0199833)
(-0.30116 -0.130311 -0.0182094)
(-0.187068 0.0128949 0.00287438)
(-0.0570709 0.0871613 -0.0240855)
(0.00517213 0.0752496 -0.00212453)
(0.00598814 0.1086 -0.00951542)
(0.0731776 0.275729 -0.0402369)
(0.170235 0.356613 -0.0422162)
(0.237877 0.382539 -0.0227272)
(0.277635 0.385007 0.000934426)
(0.290811 0.381856 0.0156446)
(0.285271 0.379399 0.0220006)
(0.267771 0.37354 0.0261969)
(0.248466 0.363781 0.0278532)
(0.22482 0.348442 0.0284258)
(0.19871 0.326885 0.0273594)
(0.166792 0.299037 0.0250058)
(0.131618 0.26664 0.0202462)
(0.0975574 0.232576 0.0138642)
(0.0659619 0.203405 0.0150044)
(0.0345882 0.181711 0.0201505)
(0.0118707 0.16201 0.01418)
(-0.0102827 0.147812 0.00464205)
(-0.035885 0.143006 -0.000725461)
(-0.0567967 0.136095 -0.00445772)
(-0.058341 0.150655 0.00103476)
(-0.0544411 0.151892 0.00245171)
(-0.0664833 0.13065 0.00427399)
(-0.0837364 0.104408 0.00611203)
(-0.10413 0.0789436 0.00836106)
(-0.130252 0.0520309 0.0126725)
(-0.164519 0.0268183 0.0232068)
(-0.199853 0.00128305 0.037689)
(-0.250112 -0.0293559 0.0393309)
(-0.311189 -0.077065 0.0397961)
(-0.371357 -0.124937 0.0356233)
(-0.427289 -0.181292 0.0299662)
(-0.467505 -0.239445 0.0189185)
(-0.484133 -0.294276 0.00453012)
(-0.461937 -0.328022 -0.0140729)
(-0.402174 -0.318641 -0.0264915)
(-0.297008 -0.241953 -0.0296901)
(-0.190859 -0.0882724 -0.0180067)
(-0.0687042 0.0459209 -0.0166074)
(0.00673053 0.0654792 -0.00556454)
(0.0074898 0.110483 -0.00262249)
(0.0738014 0.28406 -0.0327012)
(0.169513 0.368993 -0.0374469)
(0.243068 0.39237 -0.0172545)
(0.292388 0.388991 0.00797338)
(0.313864 0.377121 0.0159989)
(0.309134 0.368018 0.0246934)
(0.290797 0.355453 0.0265858)
(0.272747 0.34441 0.0260449)
(0.250328 0.326557 0.0232136)
(0.224588 0.304297 0.0198296)
(0.193411 0.273612 0.0155031)
(0.156891 0.241935 0.0101546)
(0.120849 0.208564 0.00649629)
(0.0886067 0.180988 0.00238537)
(0.0618098 0.159522 0.00413254)
(0.0358699 0.149491 0.00501673)
(0.0140066 0.143439 0.000279486)
(0.0027304 0.145751 -0.00206805)
(-0.00307352 0.146339 -0.00101585)
(-0.0130047 0.147187 0.00237686)
(-0.0273096 0.126975 0.00518187)
(-0.0437236 0.105437 0.00704782)
(-0.0621518 0.0798168 0.00794746)
(-0.080814 0.0548798 0.00944038)
(-0.104664 0.0283811 0.0147476)
(-0.13212 0.00270745 0.0259654)
(-0.170228 -0.0267053 0.0278994)
(-0.22098 -0.0655558 0.0301386)
(-0.276195 -0.107141 0.0308574)
(-0.33446 -0.154983 0.0309159)
(-0.389942 -0.212405 0.0277805)
(-0.434844 -0.274819 0.0205601)
(-0.4615 -0.340947 0.00746953)
(-0.452919 -0.390802 -0.0101456)
(-0.403422 -0.405855 -0.026681)
(-0.306825 -0.343546 -0.038347)
(-0.189946 -0.200955 -0.0296408)
(-0.064539 -0.00848957 -0.00964165)
(0.00226932 0.0517269 -0.00882481)
(-0.00245592 0.088536 -0.0144617)
(0.0533362 0.270831 -0.0393029)
(0.151177 0.366658 -0.0451761)
(0.233126 0.392744 -0.0238949)
(0.292588 0.391193 -0.0019622)
(0.326399 0.371863 0.0121078)
(0.332227 0.35488 0.0183393)
(0.317452 0.333915 0.0198061)
(0.298454 0.31597 0.0175946)
(0.27272 0.302911 0.0144584)
(0.24326 0.291289 0.0111075)
(0.208482 0.275907 0.00873124)
(0.171428 0.253708 0.00547346)
(0.136476 0.225263 0.00312854)
(0.108927 0.199666 0.000556437)
(0.0879328 0.180326 0.00154546)
(0.0768686 0.175331 0.00135765)
(0.0669365 0.17344 -0.0027556)
(0.0495688 0.169693 -0.00445538)
(0.02912 0.154157 -0.00252443)
(0.0083556 0.135074 0.00189444)
(-0.00889015 0.108928 0.00592096)
(-0.0258916 0.0845856 0.00836915)
(-0.0449098 0.0591909 0.00986943)
(-0.0625249 0.0329687 0.0120286)
(-0.082986 0.00586338 0.0149176)
(-0.110312 -0.020564 0.0152446)
(-0.14616 -0.0570524 0.0159035)
(-0.19083 -0.0944445 0.0178761)
(-0.240455 -0.139565 0.020113)
(-0.293318 -0.188733 0.0216616)
(-0.345997 -0.24974 0.0213799)
(-0.392879 -0.316341 0.0168843)
(-0.426885 -0.392403 0.007245)
(-0.431709 -0.456422 -0.00936901)
(-0.39355 -0.4918 -0.0250637)
(-0.305894 -0.447869 -0.0498969)
(-0.191889 -0.316428 -0.0425107)
(-0.0645865 -0.0906708 -0.0115932)
(0.00116306 0.0362657 0.000329484)
(-0.00204016 0.1562 -0.00283048)
(0.0501198 0.354089 -0.0165704)
(0.140533 0.453886 -0.0276107)
(0.225298 0.47646 -0.00817285)
(0.294116 0.466698 -0.00107095)
(0.333582 0.434474 0.0148916)
(0.343236 0.398269 0.0192577)
(0.329456 0.374678 0.0218304)
(0.323023 0.373701 0.0191525)
(0.313117 0.373918 0.0138148)
(0.290966 0.368124 0.00726746)
(0.253192 0.353027 0.000714882)
(0.204388 0.326837 -0.00396238)
(0.161318 0.293427 -0.00545541)
(0.132502 0.262621 -0.00659559)
(0.121512 0.235839 -0.00373218)
(0.109995 0.214389 0.00130124)
(0.088667 0.19083 -0.00492503)
(0.0645983 0.167827 -0.00857011)
(0.0439788 0.140984 -0.00448628)
(0.0231296 0.11751 -0.00111796)
(0.00256091 0.0910398 0.00410435)
(-0.0136012 0.0656961 0.00787021)
(-0.0331558 0.039139 0.0105337)
(-0.0507462 0.0155707 0.0115837)
(-0.069781 -0.0108907 0.011607)
(-0.0981287 -0.0344948 0.00955005)
(-0.1349 -0.0660971 0.00841835)
(-0.177142 -0.100108 0.00924024)
(-0.221496 -0.143886 0.0117091)
(-0.267225 -0.191865 0.0149377)
(-0.311891 -0.253523 0.0170206)
(-0.355356 -0.324926 0.015941)
(-0.391592 -0.410878 0.00913644)
(-0.404335 -0.494146 -0.00583524)
(-0.375961 -0.557679 -0.0242846)
(-0.305224 -0.557864 -0.0543578)
(-0.19469 -0.431431 -0.0558326)
(-0.0570127 -0.213275 -0.0286798)
(0.00523369 -0.00536612 -0.00105187)
(-0.0163518 0.229413 -0.0201608)
(0.0208587 0.469015 -0.0392634)
(0.109243 0.579325 -0.0478747)
(0.195184 0.618368 -0.0314989)
(0.267177 0.609058 -0.0212552)
(0.313673 0.576413 -0.00276481)
(0.345654 0.529247 0.00530818)
(0.372774 0.493474 0.00676663)
(0.380101 0.476564 -0.000682516)
(0.352281 0.452331 -0.00654961)
(0.311543 0.420761 -0.0102051)
(0.25964 0.38318 -0.0113496)
(0.205498 0.340049 -0.0112942)
(0.164384 0.302107 -0.0106859)
(0.139533 0.269277 -0.0109198)
(0.123621 0.238875 -0.00836813)
(0.113407 0.202418 -0.00387632)
(0.100637 0.172593 0.0023868)
(0.078622 0.146922 -0.00223611)
(0.0566395 0.123818 -0.00474087)
(0.0345572 0.0976701 -0.00199769)
(0.0137494 0.0720149 0.00223835)
(-0.00413178 0.0451541 0.00707904)
(-0.0210227 0.0180875 0.0104235)
(-0.0363273 -0.0058932 0.00965189)
(-0.052536 -0.0332674 0.0104526)
(-0.0779173 -0.0591827 0.00548771)
(-0.112869 -0.0874369 0.000487026)
(-0.153234 -0.121236 -0.00420424)
(-0.194126 -0.168802 -0.00660603)
(-0.236022 -0.217986 -0.00693977)
(-0.277722 -0.282884 -0.00693464)
(-0.318282 -0.354056 -0.00569651)
(-0.356608 -0.448564 -0.00764988)
(-0.382083 -0.545023 -0.0173763)
(-0.381795 -0.642906 -0.0339367)
(-0.312793 -0.67187 -0.0582805)
(-0.227035 -0.572346 -0.0747013)
(-0.0838841 -0.294315 -0.0346041)
(0.0158847 -0.0272993 -0.00356664)
(0.00145149 0.194268 0.00284104)
(0.0388034 0.43669 -0.0355793)
(0.112565 0.56172 -0.0479007)
(0.198771 0.618168 -0.0440319)
(0.269726 0.62134 -0.0339064)
(0.317769 0.599906 -0.0227778)
(0.344165 0.560169 -0.0157457)
(0.361454 0.512743 -0.00663575)
(0.366991 0.462514 -0.00899743)
(0.343736 0.420306 -0.00916191)
(0.309386 0.381693 -0.00946556)
(0.261804 0.345343 -0.00842613)
(0.213443 0.306918 -0.00716883)
(0.179746 0.276338 -0.00609506)
(0.156499 0.247864 -0.00558716)
(0.139203 0.220013 -0.00360493)
(0.125304 0.190244 -0.000776088)
(0.112411 0.155785 0.00182983)
(0.0925968 0.129078 0.00549067)
(0.0688576 0.104339 0.00164631)
(0.0432968 0.0810391 -0.000969771)
(0.0204232 0.0543353 0.00203805)
(0.00193798 0.0293094 0.00862762)
(-0.0144249 0.00116806 0.01071)
(-0.0305218 -0.0225053 0.0116247)
(-0.047909 -0.0512982 0.0144516)
(-0.0710282 -0.0794969 0.0134779)
(-0.106011 -0.108394 0.00920375)
(-0.152435 -0.132584 0.00466016)
(-0.189499 -0.172745 0.00393005)
(-0.22181 -0.219546 0.00236521)
(-0.25115 -0.292611 -0.000164898)
(-0.283896 -0.384423 -0.00514128)
(-0.31534 -0.518492 -0.0118246)
(-0.344829 -0.659313 -0.0183952)
(-0.350555 -0.793147 -0.027099)
(-0.299074 -0.855195 -0.0488077)
(-0.193119 -0.806222 -0.0635044)
(-0.0708345 -0.506566 -0.0622483)
(-0.00398474 -0.133352 0.00961013)
(-0.00038504 0.207036 -0.00224422)
(0.0338489 0.423603 -0.0325018)
(0.100207 0.546464 -0.0432308)
(0.177978 0.600223 -0.0411548)
(0.246443 0.60421 -0.0243973)
(0.298226 0.578778 -0.0180511)
(0.332541 0.536399 -0.00927407)
(0.355336 0.493012 -0.00266778)
(0.366946 0.444648 -0.0038031)
(0.350333 0.406321 -0.00425753)
(0.315212 0.370523 -0.00474331)
(0.265791 0.33299 -0.00430644)
(0.219967 0.297097 -0.00386467)
(0.19021 0.266053 -0.00364501)
(0.167879 0.236478 -0.00324835)
(0.149764 0.206563 -0.00161268)
(0.130886 0.177377 -0.000132773)
(0.118274 0.141768 0.00425948)
(0.102623 0.109249 0.00534056)
(0.0808701 0.0836238 0.0081967)
(0.0542164 0.0626357 0.00342245)
(0.0299131 0.0387365 0.00219068)
(0.00985066 0.0171514 0.00769704)
(-0.00539143 -0.00836278 0.0093939)
(-0.0198709 -0.0305963 0.0113033)
(-0.0376767 -0.0564077 0.013215)
(-0.058032 -0.080413 0.0142755)
(-0.0807061 -0.10649 0.0137515)
(-0.119638 -0.120927 0.00825408)
(-0.163299 -0.13925 0.00625514)
(-0.208453 -0.167732 0.00746334)
(-0.255808 -0.223933 0.0105637)
(-0.311823 -0.30027 0.0150018)
(-0.355173 -0.424232 0.018156)
(-0.364781 -0.573258 0.0131195)
(-0.355653 -0.741488 0.00519819)
(-0.309824 -0.865271 -0.01133)
(-0.2101 -0.89069 -0.0380136)
(-0.055043 -0.668397 -0.0488114)
(0.0225266 -0.232095 -0.0143755)
(0.00418653 0.191462 -0.00323842)
(0.0400542 0.390157 -0.0260996)
(0.10007 0.519132 -0.0369472)
(0.173255 0.578044 -0.0359072)
(0.237813 0.592108 -0.0243941)
(0.285385 0.571946 -0.0141515)
(0.321928 0.531276 -0.00499386)
(0.343189 0.485552 0.000760108)
(0.355166 0.432368 -0.000379916)
(0.345944 0.386291 -0.00162811)
(0.31287 0.344817 -0.00269575)
(0.267257 0.304755 -0.00204986)
(0.228092 0.271769 -0.00186496)
(0.202797 0.241355 -0.00152801)
(0.181438 0.212941 -0.00131142)
(0.164204 0.183881 -0.000229725)
(0.143175 0.155828 0.00115291)
(0.124008 0.125152 0.0028898)
(0.110377 0.088704 0.00885294)
(0.0943519 0.0614357 0.00866523)
(0.0674556 0.0423395 0.00967797)
(0.0421125 0.0225935 0.00597045)
(0.021234 0.00393616 0.00760168)
(0.00451242 -0.0167739 0.00927204)
(-0.0106052 -0.0378213 0.01086)
(-0.0274932 -0.0629957 0.0113984)
(-0.0469464 -0.0839968 0.0119502)
(-0.0654156 -0.111113 0.0123792)