/*--------------------------------*- C++ -*----------------------------------*\
| =========                 |                                                 |
| \\      /  F ield         | OpenFOAM: The Open Source CFD Toolbox           |
|  \\    /   O peration     | Version:  v1806                                 |
|   \\  /    A nd           | Web:      www.OpenFOAM.com                      |
|    \\/     M anipulation  |                                                 |
\*---------------------------------------------------------------------------*/
FoamFile
{
    version     2.0;
    format      ascii;
    class       surfaceScalarField;
    location    "0.0715";
    object      phi;
}
// * * * * * * * * * * * * * * * * * * * * * * * * * * * * * * * * * * * * * //

dimensions      [0 3 -1 0 0 0 0];
oriented        oriented;


internalField   nonuniform List<scalar> 
187200
(
6.98185e-06
2.43558e-06
-9.41921e-06
4.83925e-05
-2.05866e-05
-2.08239e-05
6.99157e-05
-9.34299e-06
-1.21801e-05
8.96025e-05
-9.72443e-06
-9.96223e-06
0.000105794
-6.01599e-06
-1.01759e-05
0.000123023
-5.04275e-06
-1.21863e-05
0.000138254
-7.27425e-07
-1.45036e-05
0.000154822
4.60055e-07
-1.70269e-05
0.000168135
4.90347e-06
-1.82168e-05
0.000180535
5.87042e-06
-1.82706e-05
0.000192023
7.67918e-06
-1.91666e-05
0.00019868
1.30037e-05
-1.96611e-05
0.000189095
2.18243e-05
-1.22391e-05
0.000160332
3.64231e-05
-7.66053e-06
0.000115172
4.40689e-05
1.09008e-06
7.53394e-05
2.93866e-05
1.04461e-05
2.07059e-05
3.15328e-05
2.31005e-05
-3.26587e-05
4.64166e-05
6.94756e-06
-0.000131365
9.95924e-05
-8.86726e-07
-0.000260409
0.000135024
-5.98022e-06
-0.000505222
0.000222338
2.24749e-05
-0.000685935
0.000233188
-5.24747e-05
-0.00080957
0.000279872
-0.000156237
-0.00085054
0.000306795
-0.000265826
-0.000832203
0.000338185
-0.000356522
-0.000762495
0.000367317
-0.000437026
-0.000651558
0.000391538
-0.000502474
-0.000514712
0.000408059
-0.000544905
-0.000347604
0.000398695
-0.000565803
-0.000185095
0.000384489
-0.000546998
-5.31115e-05
0.000341414
-0.000473397
3.10568e-05
0.000298673
-0.000382842
6.34981e-05
0.000234989
-0.000267431
5.63537e-05
0.000174499
-0.000167355
3.18206e-05
0.000120581
-9.60478e-05
1.03912e-05
8.08351e-05
-5.9406e-05
-2.10749e-06
5.51172e-05
-4.26187e-05
-7.39108e-06
4.27135e-05
-3.74298e-05
-8.01965e-06
3.28163e-05
-3.21877e-05
2.26999e-05
-3.07193e-05
4.90426e-06
1.45405e-05
-1.7009e-05
4.43562e-05
-3.08167e-05
-2.92215e-05
8.5624e-05
-2.44194e-05
-2.61912e-05
0.000116082
-1.4575e-05
-2.56071e-05
0.000137873
-2.92451e-06
-2.48823e-05
0.000154748
7.2693e-06
-2.91877e-05
0.000162282
2.71369e-05
-3.53978e-05
0.000165726
3.84471e-05
-4.14308e-05
0.000159104
6.32024e-05
-5.16766e-05
0.000141466
8.22385e-05
-5.873e-05
9.92687e-05
0.000125107
-7.5232e-05
3.66578e-05
0.000166319
-9.0705e-05
-4.78641e-05
0.000203583
-9.7237e-05
-0.000149217
0.000245527
-0.000107752
-0.000273353
0.000299868
-0.000131663
-0.000456225
0.000375523
-0.000163265
-0.000635397
0.000451225
-0.00024052
-0.000825151
0.000535063
-0.000298893
-0.000992807
0.000635842
-0.000368594
-0.00114789
0.000733309
-0.000443201
-0.0012959
0.000859642
-0.000489293
-0.00139136
0.000935106
-0.000606457
-0.00144376
0.00104117
-0.000708899
-0.00143116
0.00108799
-0.00079379
-0.0013476
0.00113324
-0.000878616
-0.00120394
0.0011585
-0.00093484
-0.00101096
0.00116412
-0.000965563
-0.000783479
0.0011427
-0.000962123
-0.000547015
0.00108289
-0.000920656
-0.000320452
0.00100488
-0.000846951
-0.00012745
0.000876252
-0.000727841
3.18954e-05
0.000734987
-0.000595659
0.000116747
0.000581938
-0.000431801
0.000142603
0.000454491
-0.000305849
0.000129502
0.000334883
-0.000201201
0.000100021
0.000248361
-0.000138045
6.74883e-05
0.000186121
-9.8471e-05
4.18141e-05
0.000146006
-7.76182e-05
1.61068e-05
0.000116364
-5.78408e-05
8.0293e-05
-4.14865e-05
1.90464e-05
7.86195e-06
-1.23677e-05
5.68599e-05
-3.46164e-05
-3.40134e-05
9.78938e-05
-2.5403e-05
-4.00502e-05
0.000126856
-2.46308e-06
-4.10735e-05
0.000142934
2.85539e-05
-4.75571e-05
0.000148163
5.87528e-05
-5.67119e-05
0.000139899
0.000100715
-6.53133e-05
0.000123449
0.000137903
-8.30062e-05
9.48575e-05
0.00019994
-0.000108145
3.82227e-05
0.000267533
-0.00012866
-4.56569e-05
0.000350701
-0.000141714
-0.000148852
0.000433112
-0.000163597
-0.000303617
0.00053732
-0.000178972
-0.000482135
0.00064558
-0.000221536
-0.000682597
0.000754586
-0.000254257
-0.000867741
0.000866002
-0.000305334
-0.00103031
0.000973346
-0.000359548
-0.00117642
0.00109564
-0.000414474
-0.00131075
0.0012364
-0.000466228
-0.00143817
0.0013795
-0.000518766
-0.00155655
0.00151694
-0.000538919
-0.00162231
0.0015995
-0.000598631
-0.00163798
0.00170644
-0.000649601
-0.00160276
0.00173059
-0.000677826
-0.00150843
0.00175323
-0.000714315
-0.00136894
0.00174336
-0.000724356
-0.00119289
0.00170254
-0.000714465
-0.000992261
0.00162444
-0.000682366
-0.000780801
0.00150637
-0.000634939
-0.000561028
0.00135879
-0.000573687
-0.000375105
0.00118383
-0.000493496
-0.00021498
0.00100209
-0.000427231
-9.77565e-05
0.00080226
-0.000337544
-1.50961e-05
0.000640802
-0.000268971
2.56846e-05
0.000492208
-0.000198105
4.07951e-05
0.000385097
-0.000151846
4.19802e-05
0.000305748
-0.000120812
3.32036e-05
0.000254392
-9.96098e-05
1.50298e-05
0.000205236
-7.06983e-05
0.000136556
-4.12335e-05
2.06962e-05
4.70254e-06
-1.75365e-05
5.83435e-05
-2.56409e-05
-4.66225e-05
9.87339e-05
-7.27412e-06
-5.85189e-05
0.000120874
4.10514e-05
-6.56541e-05
0.000124976
9.63611e-05
-7.19101e-05
0.000113935
0.000155034
-8.52398e-05
9.35293e-05
0.000231436
-0.000110316
5.55799e-05
0.000311718
-0.000135866
-1.74411e-07
0.000423514
-0.000167821
-8.18915e-05
0.000536472
-0.000187222
-0.000197923
0.000669283
-0.000202551
-0.000345335
0.000800218
-0.000219695
-0.000507198
0.000931359
-0.000232176
-0.000663202
0.0010498
-0.00024822
-0.000815167
0.00117653
-0.000269978
-0.000957359
0.00130456
-0.000296367
-0.00108891
0.00142789
-0.000322995
-0.00120583
0.00155117
-0.000338602
-0.00131186
0.00168719
-0.000344762
-0.00141147
0.00181416
-0.00033505
-0.00151953
0.00191307
-0.000288071
-0.00158005
0.00195143
-0.00029141
-0.00159446
0.00201416
-0.000293315
-0.00156959
0.00198472
-0.000279011
-0.0014964
0.0019612
-0.00028116
-0.0013939
0.00190783
-0.000266969
-0.00126773
0.00182552
-0.000249151
-0.00112592
0.00171211
-0.000229486
-0.000972394
0.00156196
-0.000209123
-0.000806283
0.00139734
-0.00020466
-0.000628489
0.00120958
-0.000203552
-0.000453692
0.00102871
-0.00020141
-0.000300121
0.000845459
-0.000196771
-0.000175997
0.000705641
-0.000188963
-9.00341e-05
0.000575301
-0.000169056
-3.10698e-05
0.000474923
-0.000148789
5.74687e-06
0.000402714
-0.000133782
1.94975e-05
0.00034962
-0.000108978
1.63122e-05
0.000285957
-7.75354e-05
0.000191558
-3.86892e-05
2.07717e-05
1.97776e-05
-3.58466e-05
6.03413e-05
1.05869e-05
-7.57973e-05
0.000102475
4.17437e-05
-9.11518e-05
0.0001207
0.000121319
-9.84924e-05
0.000116604
0.000205649
-0.000105192
8.8042e-05
0.000304123
-0.000120526
4.77325e-05
0.000422996
-0.000151251
7.50717e-06
0.000534711
-0.000182768
-3.94907e-05
0.00067939
-0.000208878
-0.000115679
0.000830347
-0.000217688
-0.000212794
0.000985091
-0.000218693
-0.000321596
0.00112404
-0.000215024
-0.000451055
0.00126673
-0.000205914
-0.000590743
0.00139507
-0.000205577
-0.000729296
0.00151443
-0.000199347
-0.00085077
0.00162028
-0.00019425
-0.000953574
0.00170971
-0.000179012
-0.00103232
0.00177772
-0.000147805
-0.00112218
0.00186257
-8.55286e-05
-0.0012133
0.00193026
-2.49828e-05
-0.00133933
0.00197215
6.6953e-05
-0.00140656
0.00192373
9.49313e-05
-0.00143853
0.00194035
0.00010579
-0.00144518
0.00187899
0.000112387
-0.00141658
0.00183618
9.64284e-05
-0.00137112
0.00177428
8.80849e-05
-0.00130715
0.00168672
7.48264e-05
-0.001237
0.00158159
6.03721e-05
-0.00114207
0.00144638
2.065e-05
-0.00102283
0.00130249
-2.43907e-05
-0.000877037
0.0011392
-7.54168e-05
-0.0007122
0.000989236
-0.000125366
-0.000547213
0.000835398
-0.000154927
-0.000386462
0.000718925
-0.000174034
-0.00025001
0.000619866
-0.000181018
-0.000136998
0.000527664
-0.000165753
-5.56487e-05
0.000468549
-0.000147185
-5.57706e-06
0.000421268
-0.00012172
9.24543e-06
0.000352653
-8.15184e-05
0.000235616
-3.48131e-05
1.45647e-05
6.74333e-05
-6.22205e-05
6.19664e-05
7.83585e-05
-0.000115174
0.000107831
0.000134729
-0.00013885
0.000127063
0.000239789
-0.000137703
0.000118703
0.000353592
-0.000139583
8.36285e-05
0.000488554
-0.000149356
5.82532e-05
0.000634917
-0.000186545
2.26874e-05
0.000785196
-0.00021492
-2.6209e-05
0.000953181
-0.000224895
-9.12124e-05
0.0011069
-0.000211547
-0.00016451
0.0012515
-0.000193115
-0.000248839
0.00137856
-0.000170186
-0.000336288
0.00149713
-0.000142951
-0.000419683
0.00159172
-0.000113259
-0.000501293
0.00167582
-7.97809e-05
-0.000571639
0.00173213
-4.15044e-05
-0.000665648
0.00177449
2.92246e-05
-0.000767581
0.00178961
9.00389e-05
-0.000864637
0.00179498
0.00016464
-0.000954175
0.00177774
0.000242062
-0.00108454
0.00179986
0.000302651
-0.00118136
0.00170218
0.000318374
-0.00124856
0.00169014
0.000317402
-0.00130063
0.00161538
0.000315667
-0.00132416
0.00156424
0.000295475
-0.0013355
0.00150736
0.000278257
-0.00133281
0.00143722
0.00024682
-0.00132008
0.00135943
0.000209433
-0.00128335
0.00125935
0.000150303
-0.00120009
0.00115739
6.18357e-05
-0.00108673
0.00103891
-1.30683e-05
-0.000926227
0.000926037
-9.73019e-05
-0.000750768
0.000814205
-0.000154266
-0.000560146
0.000718305
-0.000190002
-0.000383115
0.000648878
-0.000206043
-0.000232451
0.000567858
-0.000190858
-0.000111304
0.000519524
-0.000172122
-3.17736e-05
0.000477443
-0.000135706
5.57496e-06
0.000403976
-8.86711e-05
0.000274692
-3.35012e-05
1.75153e-05
0.000145206
-9.52882e-05
8.40869e-05
0.000181531
-0.000169743
0.000132932
0.000269895
-0.000184011
0.000154026
0.000392724
-0.000174029
0.000145749
0.000529223
-0.000167354
0.000104372
0.000701758
-0.000171828
9.24882e-05
0.000852727
-0.000205927
7.08857e-05
0.00102196
-0.000215157
5.08786e-05
0.00117416
-0.000200976
9.14133e-06
0.00131595
-0.000167315
-4.62626e-05
0.0014401
-0.000133191
-0.000113904
0.00154209
-9.58887e-05
-0.000184123
0.00162497
-5.76221e-05
-0.000256366
0.00167622
-1.22582e-05
-0.000326542
0.00170447
4.15293e-05
-0.000389317
0.00170264
9.22674e-05
-0.000453789
0.00168679
0.000152175
-0.000522752
0.00164037
0.000218205
-0.000624944
0.00160286
0.00029432
-0.000729301
0.00152465
0.000357446
-0.00085807
0.00151816
0.000410471
-0.000992949
0.00140631
0.000430754
-0.00107276
0.00135834
0.000411614
-0.00117051
0.00131584
0.000397287
-0.00124164
0.00127614
0.000359234
-0.00130643
0.00124522
0.000326923
-0.00135629
0.00120562
0.000281457
-0.00139017
0.00116225
0.000231061
-0.00140037
0.00110523
0.000164314
-0.00135228
0.00104391
6.53926e-05
-0.00126742
0.000963613
-9.56004e-06
-0.00113031
0.00087811
-8.91773e-05
-0.000947232
0.000793701
-0.000162578
-0.000729889
0.000703619
-0.000202658
-0.000500542
0.000660745
-0.000241213
-0.000319317
0.000611289
-0.000224656
-0.000159887
0.000563771
-0.000203677
-5.45903e-05
0.000529967
-0.000157821
6.7113e-07
0.000451847
-0.000103132
0.000312004
-3.66412e-05
2.80267e-05
0.000244395
-0.000127215
0.000112411
0.000313682
-0.000216535
0.000178049
0.000431115
-0.000226858
0.000204731
0.000565972
-0.000199929
0.000193445
0.000719316
-0.000178807
0.000181834
0.000893466
-0.000180097
0.00018737
0.0010449
-0.000197712
0.000182971
0.00121414
-0.00018779
0.000164196
0.00134793
-0.000154995
0.000123837
0.00146665
-0.000110344
7.54835e-05
0.00156064
-7.21856e-05
1.9063e-05
0.00162271
-2.42022e-05
-4.29764e-05
0.00165743
2.95803e-05
-0.000107084
0.00165548
8.48503e-05
-0.000169559
0.00162984
0.000137101
-0.000234318
0.00157512
0.000192284
-0.00029999
0.0015076
0.000244858
-0.000371355
0.00142422
0.000287517
-0.000462603
0.00135428
0.000339829
-0.000567826
0.00125445
0.000375425
-0.000680497
0.00121973
0.000411096
-0.000843153
0.00115196
0.000416999
-0.000949015
0.00106988
0.000394324
-0.00108195
0.0010763
0.000372471
-0.00119181
0.00104876
0.000337247
-0.00129032
0.00104231
0.000301431
-0.00137436
0.00102784
0.000261818
-0.00144202
0.00100792
0.000221988
-0.00148006
0.000982713
0.000160558
-0.00146635
0.000940252
8.99553e-05
-0.00140605
0.000884586
1.87235e-05
-0.00128913
0.000815634
-5.44461e-05
-0.0011042
0.000751257
-0.000142487
-0.000890969
0.000687861
-0.000197469
-0.000639956
0.000646818
-0.000237085
-0.000412261
0.000639305
-0.000255711
-0.000215729
0.000594352
-0.000227114
-7.95878e-05
0.000574776
-0.000180951
-6.17454e-06
0.00049412
-0.000115686
0.000346887
-4.10567e-05
4.69412e-05
0.000353288
-0.000155833
0.000153978
0.000466411
-0.000259765
0.000247566
0.000604994
-0.000267467
0.000290191
0.000745825
-0.000222478
0.000285797
0.000909951
-0.000186241
0.000283205
0.00106939
-0.000173332
0.000278213
0.00121533
-0.000165439
0.000282552
0.00135593
-0.000146123
0.000275194
0.00146481
-0.000109513
0.000243078
0.00155724
-5.84703e-05
0.000199124
0.00160935
-4.7549e-06
0.000145579
0.00162804
4.82148e-05
7.89349e-05
0.00162033
0.000103746
1.10714e-05
0.00157284
0.000150503
-5.63085e-05
0.00150206
0.000195156
-0.000127097
0.00140936
0.000236546
-0.000200718
0.00131187
0.000269357
-0.00027579
0.00120837
0.00029092
-0.000358171
0.00112479
0.00031187
-0.000471025
0.00103473
0.000332574
-0.000578747
0.000980677
0.000346778
-0.000738843
0.000962195
0.000349864
-0.000883416
0.00087858
0.00033587
-0.00102674
0.000907074
0.000312556
-0.00116042
0.00089079
0.000291645
-0.00127629
0.000899074
0.000259106
-0.00138402
0.000894618
0.00024095
-0.00147363
0.000893316
0.000204206
-0.00154113
0.000874795
0.000175423
-0.00156349
0.00084106
0.000121551
-0.00152473
0.000791716
5.4108e-05
-0.00142095
0.000738267
-2.64153e-05
-0.00124205
0.000680522
-0.000108163
-0.00101384
0.000635575
-0.000175927
-0.000746356
0.00060456
-0.000225226
-0.000490786
0.000632764
-0.00024903
-0.000268392
0.000617652
-0.000245693
-0.000101708
0.000606802
-0.00019871
-1.44926e-05
0.000536842
-0.000129938
0.000380313
-4.79182e-05
6.46343e-05
0.000459396
-0.000170743
0.000197858
0.000623655
-0.000290468
0.000317574
0.000778886
-0.000293608
0.000374329
0.000921474
-0.000232404
0.000388626
0.00107243
-0.000176776
0.000385478
0.00121273
-0.000140195
0.000376921
0.00134557
-0.000121683
0.000372508
0.00145578
-9.54363e-05
0.000363834
0.00153303
-5.95517e-05
0.000346421
0.00158138
-6.73065e-06
0.000308333
0.00160597
4.1468e-05
0.000238153
0.00159294
0.000105277
0.000169254
0.00153822
0.000151015
9.51404e-05
0.0014545
0.000192459
1.91715e-05
0.00135371
0.000224327
-5.98306e-05
0.00124045
0.000247914
-0.000139708
0.00113118
0.000260558
-0.000220516
0.00102729
0.000261882
-0.000308172
0.000949507
0.000262936
-0.000423241
0.000884295
0.000265502
-0.00054635
0.000832718
0.000271068
-0.000684145
0.000824833
0.000275157
-0.000848936
0.00076627
0.000277101
-0.000983198
0.000778529
0.000262808
-0.00112443
0.000773171
0.000258853
-0.00124339
0.00078419
0.000233837
-0.00136367
0.000783585
0.000231319
-0.00147427
0.000783268
0.000220644
-0.00156125
0.000759895
0.000201886
-0.00160921
0.000729836
0.000159181
-0.0015971
0.000692345
8.72626e-05
-0.00151368
0.000651764
3.08112e-06
-0.00135617
0.000610436
-8.74281e-05
-0.00112868
0.00057532
-0.000167231
-0.000860105
0.000542326
-0.000206343
-0.000568345
0.000574783
-0.000233778
-0.000319327
0.000612766
-0.000244132
-0.000127088
0.000620734
-0.00020617
-2.28009e-05
0.000569166
-0.000136611
0.000409737
-5.22241e-05
7.99732e-05
0.000556825
-0.000177403
0.000242171
0.000772297
-0.00031084
0.000388029
0.000942081
-0.000309053
0.000463735
0.0010793
-0.000233531
0.000493663
0.00120814
-0.000165642
0.000489721
0.00132514
-0.000108464
0.000480289
0.00143229
-7.72884e-05
0.000463894
0.00151284
-4.06648e-05
0.000436731
0.001566
-5.80933e-06
0.000402008
0.0015868
2.92983e-05
0.000367707
0.00156376
7.65051e-05
0.000311502
0.00151406
0.000135087
0.00023508
0.00143888
0.00017576
0.000147572
0.00133046
0.000211546
6.21346e-05
0.00121005
0.000229096
-2.50529e-05
0.00109051
0.000237126
-0.000112705
0.000983956
0.000234881
-0.000203466
0.000890665
0.00022739
-0.000303984
0.000827927
0.000222097
-0.000406821
0.000772623
0.00021451
-0.000523999
0.000734685
0.000215211
-0.00063475
0.000714025
0.000221559
-0.000798812
0.000695312
0.000235019
-0.000927801
0.00067379
0.000233729
-0.00106282
0.000668606
0.000239582
-0.00118757
0.000671017
0.000237929
-0.00131558
0.000673212
0.000238379
-0.00144306
0.000661935
0.000248812
-0.00155312
0.000643039
0.000226921
-0.0016245
0.00061907
0.000182142
-0.00164849
0.000586375
0.000129967
-0.0015967
0.000561465
3.85086e-05
-0.00145645
0.000524669
-5.44924e-05
-0.00121868
0.00050026
-0.000162707
-0.000933581
0.000474405
-0.000217177
-0.000630866
0.000504286
-0.000232218
-0.000366184
0.000570034
-0.000221949
-0.000149497
0.000622878
-0.000218832
-2.93653e-05
0.000591031
-0.000141996
0.000439509
-5.91374e-05
9.24709e-05
0.000636234
-0.00017188
0.000281303
0.000902214
-0.000318749
0.000452195
0.00108607
-0.000314885
0.000546325
0.00121052
-0.000225355
0.000587579
0.00131509
-0.000148202
0.000588981
0.00140372
-7.99864e-05
0.000576613
0.00148253
-3.78651e-05
0.000547868
0.00153578
5.79896e-06
0.000507854
0.00156334
4.26827e-05
0.00045524
0.00155153
8.78884e-05
0.000398556
0.00151162
0.000108829
0.000332323
0.00143281
0.000147486
0.00026324
0.00132371
0.000184254
0.000178758
0.00120604
0.000208904
8.89838e-05
0.00108249
0.000217334
-3.05747e-06
0.000968316
0.000214234
-9.2799e-05
0.000869554
0.000204144
-0.000188798
0.000791074
0.00019559
-0.000290703
0.000740492
0.000189341
-0.000394345
0.000692605
0.000183661
-0.000498826
0.000656104
0.000183061
-0.000598253
0.00062327
0.000190181
-0.000733593
0.000620452
0.000210201
-0.000850011
0.000577091
0.000213117
-0.000972864
0.000560736
0.000230724
-0.00109424
0.000557473
0.000234918
-0.00123244
0.000547969
0.000263444
-0.00137161
0.000539222
0.000261882
-0.00149699
0.000525929
0.000242487
-0.00160027
0.00051212
0.000210236
-0.00164362
0.000499254
0.000130472
-0.00162397
0.000481621
6.01942e-05
-0.00152236
0.000447856
-2.48038e-05
-0.00132799
0.000423688
-0.000117796
-0.00103555
0.000408906
-0.000226944
-0.00070127
0.000424521
-0.000254513
-0.000400545
0.000495523
-0.000226213
-0.000172735
0.000592534
-0.000197465
-3.67797e-05
0.000600161
-0.000145086
0.000464797
-6.20671e-05
0.00010165
0.000694053
-0.000159469
0.000313059
0.00100798
-0.000317179
0.000509164
0.00120053
-0.000310563
0.00062304
0.00131087
-0.000214219
0.000670824
0.00139425
-0.00012694
0.000677725
0.00145598
-5.91571e-05
0.000662458
0.0015031
-5.30101e-06
0.000626571
0.00152712
4.45541e-05
0.000574115
0.00152821
8.75794e-05
0.000506329
0.00149743
0.000121885
0.000430641
0.00143428
0.00015302
0.000349607
0.00134112
0.000172723
0.000268804
0.0012235
0.000181005
0.000186515
0.00109484
0.000193489
9.8666e-05
0.000975016
0.000195321
1.00835e-05
0.000867781
0.000189117
-7.78122e-05
0.000779756
0.000177693
-0.000172119
0.000712387
0.000172994
-0.00026776
0.000665661
0.000170473
-0.000366417
0.000619906
0.000171357
-0.000456059
0.000575309
0.000170437
-0.00055256
0.00054446
0.000175312
-0.000649102
0.00052817
0.000188823
-0.000749004
0.000477922
0.000199071
-0.000858669
0.000455235
0.000215166
-0.000979913
0.000437365
0.000241352
-0.00111807
0.000428097
0.000258026
-0.00126227
0.000421507
0.000261916
-0.00140565
0.000416804
0.000252508
-0.00152413
0.00041858
0.00021202
-0.00161353
0.000415325
0.00017333
-0.00162852
0.000393489
0.000103117
-0.00157353
0.000351146
4.17234e-05
-0.00141117
0.000314541
-5.32171e-05
-0.00114298
0.000303957
-0.000163243
-0.000793114
0.000329601
-0.000254942
-0.000451188
0.000413952
-0.000260354
-0.000194878
0.000527888
-0.000191664
-4.42455e-05
0.000595398
-0.000145869
0.000488843
-6.82915e-05
0.000105536
0.000730197
-0.00014168
0.000336081
0.00108384
-0.000306397
0.000556556
0.00128571
-0.000305655
0.000687341
0.00138292
-0.000202837
0.000741542
0.00144541
-0.000105361
0.000747322
0.00148264
-3.24409e-05
0.00072686
0.00150557
1.79839e-05
0.000680317
0.00149923
7.44248e-05
0.000619831
0.00147529
0.000113409
0.000547293
0.0014212
0.000148769
0.000461076
0.00134471
0.00017579
0.000366367
0.00124084
0.000194983
0.000271218
0.00112213
0.000196522
0.000189204
0.000995385
0.000181464
0.000104499
0.000881542
0.000178179
2.34691e-05
0.000783654
0.000165157
-6.17571e-05
0.000705589
0.000159394
-0.000152965
0.000644372
0.000159222
-0.000235729
0.00058949
0.000158936
-0.00032339
0.000544053
0.000163514
-0.000403745
0.000494043
0.000161621
-0.000484717
0.000459038
0.000166394
-0.000550234
0.000427547
0.00016614
-0.000635762
0.000382284
0.000181165
-0.000734571
0.000355915
0.000198129
-0.000844901
0.000322965
0.000224729
-0.00097621
0.000314785
0.00024462
-0.00111802
0.000310497
0.000252821
-0.00126577
0.000320958
0.000243598
-0.00141485
0.000329265
0.000238387
-0.00152961
0.000318847
0.000211239
-0.00159915
0.000280046
0.000182989
-0.00159072
0.000227512
0.000115203
-0.00147534
0.000177443
2.17118e-05
-0.00123415
0.000151653
-8.88777e-05
-0.000890987
0.00018398
-0.000197545
-0.000508835
0.000298035
-0.000266234
-0.000218303
0.000457538
-0.000220182
-4.88853e-05
0.000572118
-0.000146138
0.000513539
-7.35818e-05
0.000109913
0.000738629
-0.000118345
0.00035634
0.00112555
-0.000288142
0.000595528
0.0013394
-0.000292875
0.000742861
0.00143027
-0.000194688
0.000802355
0.00147202
-8.61053e-05
0.000806273
0.00148297
-4.25019e-06
0.000779667
0.00147744
5.47418e-05
0.000732364
0.00144969
9.68456e-05
0.000665601
0.00140511
0.000136946
0.00058363
0.00133726
0.000165912
0.000488872
0.00124917
0.000190296
0.000385359
0.00114006
0.000204302
0.000279789
0.00102346
0.000204234
0.000188412
0.000903379
0.000183383
0.000106305
0.000798297
0.000165352
3.39118e-05
0.000703576
0.000152472
-4.05316e-05
0.000633563
0.000146469
-0.000120239
0.000572721
0.000151358
-0.000197379
0.00051543
0.0001512
-0.000268536
0.000461901
0.00015331
-0.000339587
0.000410237
0.000154858
-0.000402481
0.000374296
0.000147636
-0.000458581
0.000336834
0.000146813
-0.000524614
0.00029234
0.000155977
-0.0006074
0.000265642
0.000173058
-0.000707303
0.000228271
0.000194598
-0.000820599
0.000212617
0.000215465
-0.000953513
0.000218944
0.000224466
-0.00110491
0.000233922
0.000238434
-0.00125427
0.000236309
0.000242319
-0.00139869
0.00021546
0.000247801
-0.00151134
0.000173609
0.000219086
-0.00155901
0.000109568
0.00016562
-0.00150234
3.79115e-05
8.28613e-05
-0.00131074
-1.2659e-05
-2.72884e-05
-0.000997773
2.90738e-06
-0.000131896
-0.000592484
0.000123235
-0.000230489
-0.000245562
0.000362175
-0.000251559
-6.00223e-05
0.000529124
-0.000142544
0.000527049
-7.35324e-05
0.000111427
0.000718118
-9.09169e-05
0.00036732
0.00113056
-0.000260897
0.000620286
0.00135808
-0.00027165
0.0007809
0.00144618
-0.000176524
0.000847943
0.00147498
-7.00003e-05
0.00084576
0.00146238
2.27726e-05
0.000812076
0.0014358
7.53219e-05
0.000753628
0.00138594
0.000122194
0.000681284
0.00132557
0.000151882
0.000599403
0.00124455
0.00017459
0.000503982
0.00114626
0.000198337
0.000401438
0.00103736
0.000205236
0.000298845
0.000923511
0.000202546
0.00020361
0.000812826
0.000185788
0.000123117
0.000716898
0.000161893
5.08618e-05
0.000630566
0.000145265
-1.83869e-05
0.000562004
0.000140808
-8.59089e-05
0.000500998
0.000139245
-0.000148032
0.000437462
0.000140091
-0.000207138
0.000381934
0.000139073
-0.000271797
0.00033964
0.000135256
-0.00032393
0.000297081
0.000129348
-0.000372554
0.000258616
0.000126841
-0.00042586
0.00021569
0.000129956
-0.000489009
0.000184524
0.000144268
-0.000578558
0.000153211
0.000164609
-0.000673778
0.000129843
0.000177993
-0.000799884
0.000142777
0.000202273
-0.00093387
0.000142927
0.00022498
-0.00108641
0.000132977
0.000255873
-0.00124481
0.000110038
0.000263822
-0.00138648
6.23717e-05
0.000252904
-0.00147899
-8.3406e-06
0.000210423
-0.00147773
-0.000101353
0.000138
-0.00134838
-0.000179931
3.79235e-05
-0.00106897
-0.000202419
-7.4081e-05
-0.000679122
-9.25319e-05
-0.000174083
-0.000277793
0.000186767
-0.000225921
-6.18019e-05
0.000473222
-0.000160088
0.000538564
-7.33153e-05
0.000119816
0.000634772
-3.64694e-05
0.000384333
0.00108905
-0.000223015
0.000649499
0.00133809
-0.000245174
0.000828194
0.00142363
-0.000156146
0.000899326
0.00144008
-3.62307e-05
0.000894677
0.00141089
5.61405e-05
0.00085458
0.00136423
0.000111666
0.000795181
0.00129776
0.000147585
0.000721685
0.00122932
0.000169744
0.000634932
0.00114618
0.000185125
0.0005359
0.00105319
0.0001921
0.000426808
0.000946903
0.000199552
0.000317885
0.00084105
0.000191384
0.000218642
0.000735132
0.000176937
0.000139134
0.000640558
0.000155847
6.70677e-05
0.000560105
0.000142528
6.18111e-06
0.000490178
0.000132713
-4.4132e-05
0.000422419
0.000128893
-9.91736e-05
0.000369015
0.000123489
-0.000156846
0.0003205
0.000119106
-0.000207813
0.000275694
0.000114913
-0.000252721
0.000232276
0.000109714
-0.000295646
0.000192998
0.000108543
-0.000342979
0.000153812
0.00010921
-0.000393888
0.000117834
0.000117598
-0.000465133
8.4666e-05
0.00013979
-0.00054947
5.514e-05
0.000159039
-0.000647111
5.61868e-05
0.000184231
-0.00076735
4.42186e-05
0.000218948
-0.000910426
2.94989e-05
0.000246554
-0.00107126
4.33176e-06
0.000266545
-0.00123009
-4.54591e-05
0.000266661
-0.0013589
-0.000120864
0.000241333
-0.00141214
-0.000230789
0.000182676
-0.00134629
-0.000338421
9.2637e-05
-0.00113204
-0.000399112
-1.75608e-05
-0.000776328
-0.00032908
-0.00011916
-0.000352724
-5.87761e-05
-0.000178062
-6.74981e-05
0.00036582
-0.000177826
0.00053147
-6.04046e-05
0.000117648
0.000523676
-6.55268e-06
0.000368936
0.0010358
-0.000198033
0.000644878
0.00129753
-0.00023538
0.000837405
0.00138558
-0.000154472
0.00091845
0.00139281
-3.37773e-05
0.000912441
0.00134894
6.79619e-05
0.000869005
0.00128329
0.000124372
0.000795397
0.00121103
0.000160334
0.000706923
0.00113369
0.000184108
0.000616571
0.00103906
0.000197465
0.000525348
0.000941138
0.000203272
0.000432629
0.000839672
0.00019995
0.000341453
0.000741835
0.000190391
0.000258283
0.000651903
0.000166399
0.000186086
0.000567832
0.000144923
0.000120054
0.000494687
0.000131451
5.22075e-05
0.000428399
0.000129626
-1.46489e-05
0.000372272
0.000117003
-6.95277e-05
0.000318384
0.00010551
-0.000112747
0.000264891
9.88293e-05
-0.000153528
0.000220033
9.64416e-05
-0.000190708
0.000177902
9.15538e-05
-0.000230311
0.000139751
9.28493e-05
-0.000267938
0.000101655
8.97823e-05
-0.000316859
6.49264e-05
0.000101829
-0.000374162
2.5914e-05
0.000116054
-0.000452442
-7.647e-06
0.000141066
-0.000536318
-3.23308e-05
0.000172394
-0.000642491
-5.6551e-05
0.000206943
-0.00076518
-9.08446e-05
0.000243032
-0.000909618
-0.000124817
0.000273587
-0.00106661
-0.000177763
0.0002893
-0.0012162
-0.000249951
0.000278676
-0.00130953
-0.000371634
0.000234171
-0.00129848
-0.00050742
0.000157956
-0.00113281
-0.000627618
6.28355e-05
-0.000802107
-0.000617278
-4.25089e-05
-0.000387221
-0.000337945
-0.000135715
-5.86905e-05
0.000184306
-0.000147016
0.000513963
-4.1184e-05
0.000142303
0.000336344
4.50294e-05
0.000373634
0.000931212
-0.000126746
0.000654262
0.00120651
-0.000189605
0.000850375
0.00130056
-0.000111097
0.00094247
0.0012966
4.11597e-06
0.000938468
0.00124891
0.000104028
0.000895813
0.00117226
0.000153689
0.000831629
0.00108849
0.000186729
0.000763676
0.0010044
0.000197234
0.000686532
0.000917091
0.000199118
0.000598492
0.000834835
0.000194342
0.000499314
0.000753302
0.000185548
0.000396427
0.000672484
0.000172238
0.000298734
0.000597909
0.000151688
0.000216987
0.000524718
0.000124861
0.000145166
0.000458307
0.0001082
7.8496e-05
0.000390692
0.000104377
2.02286e-05
0.00032674
0.0001038
-2.52118e-05
0.000270909
9.29147e-05
-6.66036e-05
0.000221562
8.47209e-05
-0.000103291
0.000174823
8.18974e-05
-0.000137838
0.000133983
7.84658e-05
-0.000171622
9.56782e-05
7.78558e-05
-0.000208685
6.09399e-05
7.77784e-05
-0.000252843
2.04844e-05
8.85994e-05
-0.000303746
-2.11204e-05
9.79362e-05
-0.000361425
-6.10842e-05
0.000111117
-0.000426991
-0.000108251
0.000141485
-0.000511543
-0.000150869
0.00017887
-0.000620975
-0.000198743
0.00021733
-0.000760999
-0.000241062
0.00025627
-0.000921359
-0.000308975
0.000291572
-0.00109057
-0.000393938
0.0003132
-0.00121765
-0.000550751
0.000306198
-0.0012698
-0.000716466
0.000261193
-0.00117983
-0.000895643
0.000178051
-0.00091238
-0.000948228
6.3501e-05
-0.00047941
-0.000727397
-4.35181e-05
-9.27557e-05
-0.000110568
-9.17796e-05
0.000428108
-6.90063e-06
0.000112622
0.000213049
1.06724e-05
0.000329328
0.000853031
-0.000138525
0.000614692
0.00112718
-0.000206042
0.000826815
0.00122627
-0.000137829
0.000934344
0.00121279
-2.37209e-05
0.000955279
0.00115378
7.41975e-05
0.000918307
0.00106168
0.000147551
0.000855311
0.00098188
0.000169603
0.000775819
0.000905569
0.000178328
0.000684951
0.00082945
0.000178509
0.000591713
0.0007535
0.000174573
0.000497325
0.000680581
0.000167109
0.000407676
0.000608298
0.000153834
0.000322838
0.00054508
0.000137667
0.000245553
0.00048134
0.000120663
0.000183455
0.000423381
9.7024e-05
0.000131468
0.000360348
8.23304e-05
7.76552e-05
0.000301431
7.9122e-05
2.57735e-05
0.000241994
8.07976e-05
-1.3657e-05
0.00018566
7.53326e-05
-5.53018e-05
0.000144574
7.1893e-05
-8.78636e-05
9.71666e-05
6.93781e-05
-0.000121803
6.07096e-05
6.89077e-05
-0.000155781
2.29735e-05
7.1944e-05
-0.00019587
-1.93648e-05
7.99371e-05
-0.000247011
-5.60039e-05
8.60253e-05
-0.000303216
-9.70599e-05
9.218e-05
-0.000369047
-0.000151859
0.00010944
-0.000442967
-0.000216244
0.000139296
-0.000524045
-0.000293594
0.000175929
-0.000614226
-0.000371605
0.000220722
-0.000724387
-0.000471347
0.000272534
-0.000861745
-0.000577649
0.000321069
-0.00101813
-0.000738202
0.000343836
-0.00113591
-0.000931973
0.000333287
-0.00112741
-0.00117157
0.000267435
-0.000952536
-0.00128536
0.000162256
-0.000568451
-0.00115148
3.99975e-05
-0.000140084
-0.000515614
-2.33225e-05
0.000235168
5.2856e-05
8.24215e-05
0.000114946
1.56811e-05
0.000320196
0.000738515
-0.00012326
0.000593653
0.00103834
-0.000184618
0.000819526
0.00114671
-0.000146311
0.000938522
0.00113659
-4.27939e-05
0.000967428
0.00107398
5.08955e-05
0.000924217
0.000980056
0.000124834
0.000858664
0.000892833