/*--------------------------------*- C++ -*----------------------------------*\
| =========                 |                                                 |
| \\      /  F ield         | OpenFOAM: The Open Source CFD Toolbox           |
|  \\    /   O peration     | Version:  v1806                                 |
|   \\  /    A nd           | Web:      www.OpenFOAM.com                      |
|    \\/     M anipulation  |                                                 |
\*---------------------------------------------------------------------------*/
FoamFile
{
    version     2.0;
    format      ascii;
    class       vectorField;
    location    "0.109";
    object      currentcloudofpoints;
}
// * * * * * * * * * * * * * * * * * * * * * * * * * * * * * * * * * * * * * //


2409
(
(1.09121 1.24553 1.10262)
(0.852618 1.02761 1.11287)
(1.47013 1.13772 1.00064)
(1.13914 1.32459 0.77067)
(1.20609 1.43527 1.28916)
(1.19665 1.19978 0.993967)
(1.25472 1.31775 1.01295)
(0.643705 1.25133 0.82112)
(1.66701 1.13885 0.995381)
(1.18579 1.07294 0.699687)
(1.30468 1.24998 1.39484)
(1.4543 1.16553 1.08891)
(1.43851 1.32056 1.13333)
(1.23109 1.27656 1.21818)
(1.44323 1.24245 1.12463)
(1.46494 1.14993 1.05343)
(1.44046 1.18141 1.1042)
(1.22244 1.47772 1.02856)
(1.44716 1.31687 1.12135)
(1.39466 1.26477 1.15762)
(0.895658 0.958408 1.3063)
(0.525323 1.33991 1.24117)
(0.962219 1.36226 1.17485)
(1.09837 1.15459 1.23863)
(0.976199 0.954004 1.12996)
(0.572406 1.10363 1.41893)
(0.709163 1.06839 1.33646)
(0.952091 1.51587 1.40481)
(1.07458 1.26032 1.29339)
(1.46025 1.17659 0.907063)
(1.43829 1.22446 0.898725)
(1.22343 1.47995 0.742177)
(1.24051 1.38197 0.708277)
(1.46501 1.14992 0.945074)
(1.44374 1.19611 0.906524)
(1.35008 1.38234 0.811612)
(1.21101 1.47568 0.750401)
(1.17685 1.46724 0.707574)
(0.879631 1.37989 0.608038)
(0.541788 0.948032 0.821803)
(0.744646 1.03154 0.750002)
(0.942949 0.939017 0.820745)
(1.10422 1.32469 0.83308)
(1.01931 1.27026 0.704212)
(0.605165 0.93937 0.739763)
(1.04286 0.938869 0.723448)
(0.847084 0.953167 0.976948)
(1.27884 1.39418 1.16222)
(1.23017 1.2036 1.12495)
(1.25908 1.19931 1.15404)
(1.16628 1.22385 1.00943)
(1.22053 1.44805 1.34761)
(1.33524 1.23826 1.17133)
(1.19007 1.29459 1.11892)
(1.46118 1.33276 0.988247)
(1.14291 1.19686 1.14843)
(1.2562 1.14135 0.86642)
(1.0661 1.53314 0.570377)
(1.1055 1.625 0.713936)
(1.16675 1.29241 0.744684)
(1.02139 1.69869 1.00198)
(1.39832 1.37172 0.899265)
(1.08742 1.45334 0.863387)
(1.09073 1.38367 0.929905)
(1.18587 1.40962 0.770354)
(0.981438 1.02478 1.14134)
(0.928992 0.950421 1.12783)
(1.02401 1.29023 1.08289)
(1.08683 1.53364 1.029)
(0.977183 1.0516 1.1956)
(0.96604 0.982433 1.13344)
(0.834187 0.984721 1.12422)
(0.960283 1.41642 1.01254)
(0.964726 1.58751 1.00159)
(1.15419 1.52933 0.95189)
(1.55784 1.38961 1.16011)
(1.56476 1.36465 1.12341)
(1.50046 1.17725 0.998209)
(1.16373 1.27339 1.02968)
(1.50233 1.4322 1.09768)
(1.57721 1.36619 1.11732)
(1.51975 1.38891 1.16252)
(1.49555 1.15535 0.997032)
(0.575499 1.10488 1.22997)
(0.461174 1.06594 1.15963)
(0.671537 1.17598 1.47463)
(1.0763 1.30286 1.43916)
(1.11297 1.12711 1.52324)
(1.11348 1.01156 1.51232)
(1.32475 1.31722 1.40144)
(0.629708 1.38514 1.06654)
(0.550092 1.07114 1.23432)
(0.541408 1.29801 1.40348)
(0.935775 1.36296 1.39122)
(1.14495 1.01436 1.49037)
(1.16689 0.963976 1.36808)
(1.07669 1.37488 1.33735)
(1.36569 1.24006 1.3751)
(1.2663 1.20015 1.38877)
(1.29683 1.0868 1.28796)
(1.37876 1.08369 1.29231)
(1.43386 1.11443 1.28813)
(1.4766 1.096 1.26376)
(1.55509 1.10043 1.21914)
(1.63981 1.1282 1.13902)
(1.25433 1.27896 1.41786)
(1.24393 1.12359 1.31066)
(1.33846 1.07773 1.28767)
(1.41106 1.10041 1.28738)
(1.45114 1.10874 1.27732)
(1.5087 1.09272 1.23953)
(1.59609 1.11103 1.18645)
(1.65864 1.1296 1.07137)
(0.642038 1.2142 0.676122)
(0.551021 1.01619 0.817341)
(0.796309 1.1529 0.817477)
(0.952116 1.14416 0.620636)
(1.12096 1.03549 0.712732)
(1.08332 1.03303 0.478316)
(1.05992 1.05945 0.523313)
(0.62374 1.01717 0.867555)
(0.739404 1.14273 0.68507)
(0.648073 1.08066 0.801735)
(0.890507 1.07591 0.626727)
(1.17635 1.05171 0.527924)
(1.10147 0.95666 0.605989)
(1.08892 1.05764 0.485975)
(1.19837 1.10999 0.697717)
(1.63666 1.13101 0.856158)
(1.56038 1.10613 0.77189)
(1.48219 1.10011 0.72378)
(1.42962 1.12081 0.697716)
(1.37832 1.12121 0.708906)
(1.31609 1.1644 0.722079)
(1.24735 1.17313 0.646654)
(1.65368 1.13151 0.921698)
(1.59777 1.1161 0.808049)
(1.51602 1.0982 0.74882)
(1.4529 1.11122 0.708604)
(1.40633 1.12034 0.701979)
(1.34987 1.14092 0.723646)
(1.27703 1.16827 0.693157)
(1.19341 1.18378 0.62578)
(1.22263 1.61561 1.20074)
(0.899092 1.57546 1.21614)
(0.855868 1.67674 1.27329)
(1.02586 1.63482 1.36199)
(1.03969 1.42889 1.43144)
(1.05452 1.28879 1.46239)
(1.38905 1.21278 1.31562)
(1.22536 1.712 1.03604)
(0.953391 1.72432 1.21771)
(0.913139 1.52204 1.24962)
(0.891087 1.68483 1.30092)
(1.04416 1.53088 1.40722)
(1.05512 1.36652 1.50558)
(1.29991 1.12102 1.42548)
(1.35915 1.29053 1.29474)
(1.12176 1.73705 0.846499)
(0.932535 1.70036 0.805858)
(0.977656 1.62566 0.745012)
(1.0397 1.61702 0.590947)
(0.979315 1.47593 0.529779)
(1.05183 1.28026 0.473471)
(1.12214 1.23888 0.600896)
(1.16848 1.78906 0.881415)
(1.05565 1.7066 0.790024)
(0.954173 1.65682 0.783331)
(0.997469 1.60818 0.757084)
(1.03717 1.52158 0.538527)
(1.03968 1.40307 0.470387)
(1.1813 1.27428 0.5617)
(1.2004 1.14102 0.6743)
(0.643918 1.24085 0.852192)
(1.02484 1.67914 0.953909)
(0.986731 1.66848 1.06884)
(1.20785 1.582 0.888916)
(1.14715 1.47847 1.0524)
(1.13216 1.6554 1.01992)
(1.13704 1.26032 0.979357)
(0.674388 1.40529 0.910295)
(0.825278 1.52955 0.933147)
(0.952506 1.64155 1.01106)
(1.11375 1.22439 0.865649)
(1.20559 1.47267 1.23886)
(1.19135 1.38078 1.04342)
(1.14132 1.26994 0.947213)
(1.14009 1.26925 1.00861)
(1.26382 1.50088 1.04686)
(1.41608 1.45994 1.06226)
(1.40051 1.48217 1.06373)
(1.52222 1.42436 1.14162)
(1.60792 1.41337 1.03804)
(1.65693 1.3927 1.00158)
(1.69071 1.28594 0.994825)
(1.31398 1.4472 1.03267)
(1.24543 1.37013 1.17566)
(1.44353 1.45686 1.03829)
(1.43529 1.48699 1.08366)
(1.58754 1.41246 1.07657)
(1.63949 1.40338 1.01026)
(1.68292 1.32903 0.994598)
(1.68703 1.214 0.995211)
(1.31194 1.26765 0.804887)
(1.26834 1.1109 0.752496)
(1.16762 1.48672 0.723663)
(1.30251 1.26723 1.31788)
(1.25063 1.31212 1.24711)
(1.3108 1.18489 1.32947)
(0.615988 1.18005 0.844047)
(0.934049 1.11996 0.869905)
(0.674436 1.17805 0.676187)
(1.53006 1.10062 0.994025)
(1.50282 1.12328 0.997395)
(1.57838 1.08329 0.993314)
(1.27852 1.50763 1.2544)
(1.38298 1.61425 1.15421)
(1.31174 1.5096 1.35662)
(1.62986 1.35447 1.25945)
(1.21207 1.67949 1.20285)
(1.38444 1.17513 1.25797)
(1.65262 1.24415 1.21991)
(1.57252 1.32158 1.32156)
(1.16787 1.60883 1.2929)
(1.51916 1.67811 1.23845)
(1.55089 1.66549 1.15747)
(0.925913 1.56565 1.24911)
(1.52569 1.51314 1.26083)
(1.67123 1.35102 1.21527)
(1.3593 1.50862 1.06723)
(1.67494 1.3556 1.10657)
(1.43703 1.34754 1.29873)
(1.65227 1.39535 1.15613)
(1.08621 1.79848 1.20319)
(1.30989 1.16004 1.31143)
(0.940477 1.43005 1.05815)
(1.44631 1.46387 1.34808)
(1.51188 1.2036 1.31334)
(1.30802 1.65752 1.06958)
(0.959812 1.75017 1.23112)
(1.28175 1.41599 1.26163)
(1.46767 1.27743 1.29351)
(1.53189 1.38775 1.29335)
(1.1155 1.75346 1.06887)
(1.33839 1.17466 1.3536)
(1.68614 1.2558 1.09346)
(1.27424 1.45651 1.22315)
(1.05387 1.48004 1.13072)
(1.46172 1.36448 1.27369)
(1.46434 1.58368 1.23009)
(1.59997 1.41489 1.21725)
(1.27254 1.1423 1.29624)
(1.3563 1.11991 1.28596)
(1.3502 1.19286 1.34702)
(1.31216 1.17538 1.37401)
(1.26585 1.16483 1.32309)
(1.3942 1.14694 1.31289)
(1.41219 1.17426 1.31601)
(1.42104 1.27843 1.29274)
(1.42713 1.20788 1.30063)
(1.43742 1.2408 1.29305)
(1.44668 1.35741 1.28936)
(1.44643 1.21617 1.28622)
(1.46453 1.17003 1.28673)
(1.47697 1.33027 1.27083)
(1.49159 1.14393 1.28049)
(1.53302 1.13512 1.26154)
(1.47526 1.23611 1.30354)
(1.5999 1.15881 1.23093)
(1.64726 1.18481 1.17806)
(1.5771 1.20343 1.28571)
(1.67038 1.18852 1.12003)
(1.68354 1.19476 1.04601)
(1.67111 1.24484 1.15742)
(1.68988 1.27121 1.04575)
(1.26894 1.60636 1.15228)
(1.22164 1.67725 1.13972)
(1.10972 1.76276 1.10971)
(1.24179 1.68434 1.09346)
(1.27052 1.68457 1.02694)
(1.24169 1.40101 1.26286)
(1.3241 1.65276 1.0099)
(1.25354 1.63171 1.25536)
(1.56684 1.59937 1.11675)
(1.48484 1.58227 1.21561)
(1.23824 1.36552 1.16935)
(1.61404 1.40552 1.15207)
(1.54711 1.42005 1.20381)
(1.58546 1.64102 1.21784)
(1.64957 1.38986 1.07385)
(1.63037 1.40288 1.10348)
(1.64122 1.39272 1.18692)
(1.6835 1.31557 1.05176)
(1.66655 1.36798 1.053)
(1.66691 1.37419 1.1264)
(1.68325 1.29811 1.10168)
(1.19612 1.46591 1.27639)
(1.28393 1.61373 1.2526)
(1.33821 1.57456 1.15013)
(1.42874 1.64464 1.15234)
(1.39432 1.58739 1.12047)
(1.28027 1.64328 1.26576)
(1.35 1.62977 1.14254)
(1.41293 1.56308 1.04394)
(1.53046 1.67491 1.1555)
(1.26595 1.42968 1.1506)
(1.41142 1.33822 1.27296)
(1.39373 1.37649 1.3039)
(1.32439 1.17694 1.27758)
(1.41979 1.32823 1.28741)
(1.46257 1.49601 1.27838)
(1.44295 1.44416 1.2688)
(1.1913 1.45543 1.14226)
(1.05772 1.43795 1.26978)
(1.29073 1.53334 1.19661)
(1.02778 1.44654 1.07931)
(1.45416 1.58576 1.17101)
(1.63112 1.36975 1.23658)
(1.65569 1.35943 1.21414)
(1.6078 1.437 1.26714)
(1.63623 1.52262 1.21943)
(1.56449 1.37463 1.30355)
(1.57266 1.39771 1.3036)
(1.6074 1.33569 1.29278)
(1.65254 1.34223 1.23997)
(1.6295 1.32571 1.28458)
(1.66944 1.3701 1.18156)
(1.57206 1.47968 1.2818)
(1.48006 1.52124 1.3477)
(1.16265 1.73611 1.2359)
(1.17894 1.75069 1.16325)
(1.20045 1.69519 1.26404)
(1.05512 1.76924 1.11955)
(1.06872 1.77049 1.1613)
(0.907446 1.69757 1.15856)
(1.14465 1.71778 1.119)
(0.913604 1.60699 1.24859)
(0.89311 1.56584 1.26605)
(1.00474 1.7724 1.24015)
(0.90264 1.56319 1.19546)
(0.911177 1.68562 1.28762)
(0.898848 1.65618 1.16613)
(1.0499 1.56116 1.36793)
(1.03254 1.64662 1.27835)
(0.914749 1.68906 1.24816)
(0.999532 1.38047 1.29945)
(1.08536 1.36534 1.44493)
(1.01064 1.48156 1.16964)
(1.33532 1.14595 1.38994)
(1.36537 1.18173 1.30993)
(1.36564 1.21138 1.29723)
(1.33119 1.16616 1.32076)
(1.10419 1.3423 1.06913)
(1.13729 1.44902 1.21901)
(0.989625 1.65184 1.27569)
(1.31088 1.61271 1.01729)
(1.31763 1.60933 1.09876)
(1.15085 1.47505 1.10447)
(1.48754 1.63978 1.17448)
(1.67703 1.28967 1.16795)
(1.01847 1.41983 1.04018)
(1.02139 1.45832 1.07417)
(1.27713 1.52196 1.00892)
(1.25532 1.4529 1.1301)
(1.49714 1.61733 1.08578)
(1.66376 1.29541 1.22905)
(1.61098 1.27238 1.28922)
(1.53946 1.26859 1.32058)
(1.67884 1.34245 1.16753)
(1.54733 1.33721 1.3037)
(1.53353 1.47247 1.2712)
(1.51252 1.29618 1.29417)
(1.14872 1.64554 1.27482)
(1.42923 1.50118 1.37299)
(1.35977 1.57769 1.32178)
(1.47398 1.47595 1.3224)
(1.51835 1.50982 1.23737)
(1.49971 1.50362 1.21644)
(1.48335 1.41979 1.26798)
(1.50917 1.34465 1.26249)
(0.758301 1.56488 1.47789)
(0.682468 1.4482 1.40599)
(0.959129 1.18376 1.066)
(0.54867 1.23819 1.27265)
(0.698164 1.53104 1.28362)
(0.886762 1.50832 1.47761)
(0.589375 1.07435 1.29948)
(0.865799 1.60322 1.1863)
(1.18851 1.21966 1.52791)
(0.990788 1.23247 1.08804)
(0.573271 1.27745 1.25604)
(0.878456 1.52846 1.27901)
(0.927508 1.60803 1.44079)
(0.959785 1.43356 1.41839)
(1.02836 1.46311 1.47874)
(0.844695 1.67088 1.21273)
(0.477276 1.04334 1.20271)
(1.06521 1.29478 1.45959)
(0.597573 1.11856 1.14366)
(0.793292 1.39437 1.1414)
(0.939086 1.462 1.44514)
(0.837923 1.58644 1.23739)
(1.02739 1.42769 1.47914)
(0.789523 1.28076 1.23549)
(0.866868 1.34646 1.18861)
(0.881005 1.00689 1.2633)
(1.03553 1.18048 1.15849)
(0.659487 1.49674 1.42149)
(0.957805 1.43762 1.40437)
(0.783704 1.57693 1.42409)
(0.677152 1.3808 1.136)
(0.718138 1.36357 1.18576)
(0.827962 1.18169 1.05307)
(1.31095 1.29287 1.41711)
(0.772958 1.5262 1.06123)
(1.24456 1.49233 1.19892)
(0.965108 1.31061 1.14549)
(0.65175 1.20971 1.15396)
(0.629004 1.17355 1.04506)
(0.517928 1.12563 1.26178)
(0.643779 1.18161 1.24933)
(0.611037 1.06226 1.19322)
(0.475746 1.0854 1.22587)
(0.450942 1.0599 1.19095)
(0.634374 1.17673 1.25262)
(0.567926 0.970705 1.13492)
(0.593219 1.0147 1.20469)
(0.456491 1.06161 1.17489)
(1.07975 1.04298 1.54602)
(1.06888 1.35436 1.30294)
(1.13862 1.21702 1.53849)
(1.15117 1.0987 1.49858)
(1.00271 1.36443 1.45894)
(1.37473 1.31268 1.30386)
(1.33529 1.28674 1.29059)
(1.13467 1.31948 1.46848)
(0.772363 1.48854 1.25252)
(0.760601 1.50019 1.29369)
(0.691486 1.51674 1.24581)
(0.843813 1.54504 1.24387)
(0.744745 1.47654 1.30008)
(0.639619 1.41812 1.25136)
(0.674136 1.45369 1.27144)
(0.957278 1.65834 1.39376)
(0.919371 1.26072 1.30156)
(0.621593 1.41102 1.24368)
(0.893919 1.53122 1.30974)
(0.911681 1.20574 1.31808)
(0.544706 1.30142 1.20129)
(0.612977 1.13705 1.10633)
(0.592503 1.29381 1.09439)
(0.573513 1.33847 1.07055)
(0.909946 1.12074 1.23454)
(0.967369 0.995635 1.02904)
(0.726812 1.41603 1.12039)
(1.06103 1.64228 1.19592)
(0.870112 1.56767 1.26681)
(0.856103 1.59597 1.24352)
(0.976743 1.53324 1.33676)
(1.02111 1.6814 1.25016)
(0.793885 1.44926 1.41323)
(0.842047 1.60172 1.35574)
(1.25691 1.48156 1.22511)
(0.991535 1.48615 1.47894)
(1.03207 1.54062 1.4295)
(0.972106 1.47136 1.48493)
(0.90878 1.48776 1.49641)
(0.853184 1.56523 1.48778)
(0.821175 1.51878 1.49893)
(0.608783 1.37141 1.24437)
(1.12878 1.20161 1.54272)
(0.978656 1.40608 1.41455)
(0.972408 1.43093 1.44318)
(1.01382 1.3524 1.48429)
(0.866612 1.55649 1.41956)
(0.850113 1.56551 1.43078)
(0.897735 1.52678 1.42541)
(0.88461 1.54716 1.41396)
(0.831652 1.54249 1.40792)
(1.04185 1.52449 1.41903)
(1.00945 1.64264 1.38039)
(1.03235 1.45927 1.4449)
(1.03314 1.43549 1.45052)
(0.998764 1.4762 1.45729)
(0.960283 1.4845 1.46308)
(0.823449 1.66309 1.27104)
(0.828943 1.57692 1.1855)
(1.2818 1.16996 1.40687)
(1.05898 1.29 1.45896)
(1.00138 1.3399 1.48997)
(1.01467 1.35019 1.50974)
(1.33484 1.20714 1.41039)
(1.28233 1.22888 1.43941)
(1.15102 1.27199 1.52762)
(1.0215 1.3175 1.47189)
(1.03189 1.39684 1.49779)
(0.831282 1.01139 1.29554)
(0.577625 1.26324 1.26654)
(1.05966 1.12247 1.1967)
(0.869838 1.03772 1.22821)
(0.732685 1.25951 1.33146)
(1.09658 1.1868 1.10837)
(1.0295 1.20967 1.04165)
(0.515612 1.14445 1.29318)
(0.8925 1.56263 1.19722)
(1.08294 1.74904 1.2262)
(1.22248 1.60513 1.23361)
(1.05805 1.29897 1.14055)
(0.908701 1.54858 1.29854)
(0.82718 1.56756 1.45744)
(0.745177 1.53954 1.47019)
(0.64857 1.48401 1.32512)
(1.06853 1.14566 1.18191)
(0.702646 1.53393 1.459)
(0.856921 1.03427 1.14198)
(0.710751 1.51992 1.44142)
(0.689699 1.49915 1.01687)
(1.152 1.60245 1.20284)
(1.21047 1.5649 1.18145)
(0.816012 1.50784 1.05874)
(0.754979 1.3035 1.33945)
(0.739888 1.31758 1.16673)
(0.929015 1.3744 1.32926)
(0.834688 1.31631 1.28097)
(1.04066 1.62825 1.12447)
(0.816009 1.46152 1.0497)
(0.989125 1.29478 1.11715)
(0.877202 1.36164 1.03456)
(0.844456 1.50753 1.02216)
(0.588011 1.29416 1.18186)
(0.945786 1.44782 1.39434)
(0.70881 1.09085 1.36898)
(0.600276 1.30241 1.22793)
(0.967217 1.36924 1.38664)
(0.907309 1.51149 1.41262)
(0.896238 1.51893 1.45619)
(0.578894 1.39408 1.23009)
(0.946526 1.23828 1.04399)
(0.949769 1.2894 1.04832)
(0.829278 1.3807 1.02282)
(0.945584 1.34854 1.20052)
(0.611663 1.45935 1.346)
(0.635693 1.44834 1.21557)
(0.66905 1.43679 1.42962)
(0.742956 1.28604 1.3455)
(0.753475 1.33661 1.04871)
(0.821072 1.20579 1.29877)
(0.745787 1.21963 1.31179)
(0.697724 1.34708 1.21373)
(0.515582 1.26441 0.669424)
(0.904519 1.56614 0.73924)
(0.588614 1.13061 0.688172)
(0.481694 1.21012 0.698184)
(0.972691 1.4206 0.769114)
(0.765819 1.62182 0.677054)
(0.936104 1.66947 0.689948)
(0.841367 1.47826 0.624395)
(0.64705 1.22151 0.512095)
(0.8716 1.50922 0.768916)
(0.987811 1.33396 0.750725)
(0.93477 1.71052 0.648258)
(0.770044 1.64077 0.658824)
(0.583729 1.31931 0.726767)
(0.754263 1.24799 0.797096)
(0.901183 1.6045 0.799561)
(0.883215 1.54086 0.619554)
(0.49465 0.999428 0.877177)
(1.17064 1.19167 0.569604)
(1.00793 1.20479 0.960073)
(1.04146 1.11815 0.713356)
(0.792993 1.31719 0.850082)
(1.07229 1.16756 0.823589)
(1.07381 1.12419 0.961922)
(0.940145 1.63848 0.764758)
(0.606671 1.53591 0.683508)
(0.774247 1.24471 0.766686)
(1.06395 1.14485 0.948411)
(0.941168 1.48238 0.560221)
(0.799202 1.42002 0.898888)
(0.82864 1.39934 0.604608)
(1.0668 1.23929 0.880258)
(1.13856 1.68498 0.849758)
(0.637011 1.52087 0.586294)
(0.922131 1.54122 0.575839)
(1.19185 1.30985 0.592396)
(0.529779 1.38377 0.786111)
(0.539895 1.31007 0.719583)
(0.569649 1.1308 0.663977)
(0.568575 1.12372 0.682237)
(0.612555 1.1093 0.668557)
(0.607103 1.53514 0.641002)
(0.743269 1.58271 0.800128)
(0.468936 1.11665 0.694755)
(0.50963 1.37225 0.659893)
(0.615124 1.42842 0.538482)
(0.835701 1.50157 0.632626)
(0.849596 1.56298 0.641078)
(0.958723 1.41032 0.493784)
(0.823135 1.61323 0.646215)
(0.880176 1.5127 0.636521)
(0.963665 1.39565 0.50651)
(0.791847 1.56464 0.640896)
(0.9119 1.3322 0.740971)
(0.715742 1.60802 0.690701)
(0.760676 1.6367 0.691819)
(0.833996 1.59662 0.620259)
(0.760976 1.43353 0.62028)
(1.14359 1.25925 0.603636)
(1.2027 1.19742 0.655978)
(1.10557 1.31803 0.575814)
(0.880367 1.63768 0.784266)
(0.881613 1.61217 0.69657)
(0.942984 1.60792 0.661296)
(0.948295 1.61168 0.781821)
(0.942589 1.61903 0.808345)
(1.09283 1.46068 0.85594)
(1.04716 1.45622 0.864823)
(0.94946 1.64758 0.777051)
(0.955925 1.6382 0.810126)
(1.01876 1.67711 0.697997)
(0.954912 1.70533 0.720419)
(1.22679 1.61152 0.810173)
(1.08816 1.25941 0.520659)
(1.04712 1.10669 0.566578)
(0.902416 1.43556 0.577358)
(0.934876 1.44339 0.495853)
(1.10559 1.26744 0.5079)
(0.597591 1.43499 0.621918)
(0.61787 1.5538 0.771465)
(0.627548 1.06948 0.613083)
(0.783652 1.1027 0.967922)
(1.03367 1.18649 0.915586)
(1.10907 1.05107 0.511382)
(0.988702 1.26646 0.580778)
(1.13234 1.14572 0.578043)
(0.57286 1.35579 0.759338)
(0.743499 1.48933 0.789803)
(0.829343 1.49387 0.761213)
(0.643122 1.48412 0.822177)
(0.894909 1.58907 0.791869)
(0.867552 1.51893 0.675029)
(0.917003 1.51596 0.754092)
(0.850908 1.51862 0.782673)
(0.790643 1.46344 0.898454)
(0.643409 1.56736 0.734304)
(0.657362 1.5313 0.642583)
(0.705581 1.23395 0.850021)
(0.877955 1.29589 0.782576)
(0.81351 1.41401 0.610294)
(0.950244 1.3788 0.539124)
(0.899838 1.37781 0.574807)
(0.999759 1.29587 0.804698)
(0.855679 1.10543 0.613707)
(1.12263 1.13656 0.487462)
(1.00976 1.58685 0.739743)
(0.923356 1.62617 0.74672)
(0.976766 1.59052 0.722718)
(1.05633 1.60186 0.579977)
(0.9878 1.61368 0.724046)
(0.976391 1.61034 0.738419)
(0.998831 1.52556 0.543984)
(1.02192 1.52061 0.532759)
(0.981453 1.57358 0.566904)
(0.894625 1.66964 0.62702)
(0.926912 1.50051 0.573628)
(0.848394 1.62799 0.621189)
(0.78486 1.63185 0.770167)
(0.697106 1.61192 0.695131)
(0.909831 1.48704 0.603582)
(0.869078 1.55849 0.585431)
(0.83814 1.5977 0.6039)
(0.916228 1.45299 0.622519)
(0.94375 1.44934 0.581004)
(0.495292 1.14452 0.707509)
(0.511694 1.17934 0.72933)
(0.597398 1.17455 0.707637)
(0.492121 1.11125 0.61442)
(0.433816 1.13281 0.675653)
(1.00171 1.24901 0.969892)
(0.701282 1.14268 0.568746)
(1.00342 1.23494 0.963758)
(0.753861 1.12403 0.981455)
(0.947579 1.29951 0.76398)
(0.827349 1.2481 0.84326)
(0.630653 1.046 0.629922)
(1.00619 1.09366 0.98149)
(0.551035 1.06779 0.626759)
(0.445029 1.03633 0.746584)
(1.11556 1.70605 0.857124)
(1.15544 1.77516 0.900937)
(0.617756 1.06914 0.818211)
(0.762115 1.19422 0.720376)
(0.715044 1.20237 0.669304)
(0.725929 1.19565 0.776455)
(1.07865 1.09964 0.677756)
(1.0146 1.47044 0.913343)
(1.02656 1.47141 0.916516)
(0.976446 1.1039 0.863194)
(0.8674 1.45172 0.906458)
(0.754246 1.3355 0.66989)
(0.936871 1.1317 0.799446)
(0.895306 1.50385 0.94071)
(0.899899 1.45915 0.84608)
(1.0066 1.24339 0.861705)
(0.99566 1.52411 0.973658)
(0.988549 1.5992 0.954785)
(0.774047 1.40373 0.755174)
(1.09514 1.58334 0.920959)
(0.889523 1.2273 0.956794)
(0.735137 1.16692 0.670174)
(0.974577 1.21461 0.967383)
(1.08293 1.09647 0.702052)
(1.08318 1.13229 0.793886)
(0.92266 1.28988 0.809898)
(1.43378 1.62832 0.779382)
(1.33322 1.6927 0.823784)
(1.64209 1.37396 0.761075)
(1.02656 1.42507 0.764173)
(1.20112 1.77928 0.797028)
(1.64362 1.24539 0.773809)
(1.32972 1.2147 0.699844)
(1.28866 1.31059 0.723475)
(1.35117 1.73336 0.84815)
(1.25574 1.58569 0.767539)
(0.945427 1.66952 0.847114)
(1.45236 1.53223 0.751138)
(1.49246 1.43135 0.704204)
(1.25824 1.30903 0.697883)
(1.45853 1.46147 0.624227)
(1.30757 1.20497 0.636413)
(1.54194 1.24951 0.678679)
(1.00255 1.43008 0.869112)
(1.19436 1.53411 0.945779)
(1.68142 1.34417 0.885562)
(1.62526 1.453 0.899003)
(1.55147 1.37753 0.710337)
(1.38421 1.27321 0.690595)
(1.04284 1.70329 0.831583)
(1.26419 1.44089 0.890435)
(1.61625 1.45467 0.730822)
(1.41858 1.28943 0.694983)
(1.44468 1.31511 0.809144)
(1.21824 1.77811 0.903995)
(1.68275 1.23359 0.892669)
(1.22188 1.24024 0.603756)
(1.5792 1.54271 0.766654)
(1.57461 1.44552 0.917652)
(1.45051 1.28428 0.67406)
(0.966432 1.6695 0.789683)
(1.22029 1.55832 0.811858)
(1.68911 1.25353 0.942694)
(1.6788 1.18606 0.945308)
(1.66467 1.17986 0.870521)
(1.41015 1.66583 0.831162)
(1.33838 1.6927 0.802347)
(1.40688 1.6217 0.829771)
(1.38799 1.56809 0.914182)
(1.35964 1.59224 0.754853)
(1.45661 1.60328 0.781656)
(1.46699 1.6231 0.853926)
(1.36725 1.50805 0.640717)
(1.46637 1.58579 0.68922)
(1.50661 1.60638 0.751829)
(1.54339 1.56215 0.766371)
(1.55047 1.55633 0.701549)
(1.23978 1.45231 0.929091)
(1.30417 1.45919 0.864098)
(1.25804 1.74134 0.953998)
(1.08422 1.49104 1.001)
(1.34305 1.68105 1.00316)
(1.34234 1.45991 0.830659)
(1.43098 1.48626 0.754536)
(1.22426 1.52867 0.945892)
(1.44439 1.50388 0.740276)
(1.53453 1.49882 0.782362)
(1.43424 1.50338 0.813114)
(1.59611 1.41767 0.983355)
(1.56437 1.41861 0.961918)
(1.56455 1.50957 0.820278)
(1.61919 1.42618 0.955338)
(1.65322 1.40497 0.936906)
(1.6066 1.45165 0.915001)
(1.6782 1.35819 0.941567)
(1.68823 1.29474 0.933959)
(1.66327 1.39529 0.880777)
(1.68326 1.27461 0.880419)
(1.15705 1.19007 0.618646)
(1.17001 1.22789 0.616763)
(1.25323 1.20167 0.613743)
(1.09895 1.69401 0.835603)
(1.13956 1.74997 0.827544)
(1.19588 1.78854 0.849289)
(1.15899 1.77378 0.8452)
(0.978296 1.72122 0.804386)
(1.09977 1.73482 0.795025)
(1.33815 1.72435 0.944488)
(1.26048 1.7744 0.898455)
(1.27951 1.77185 0.824383)
(1.23276 1.7437 0.759838)
(1.63893 1.30718 0.757504)
(1.59103 1.30901 0.705984)
(1.59396 1.23746 0.716566)
(1.55537 1.15992 0.723533)
(1.60129 1.16363 0.761964)
(1.66857 1.28756 0.820267)
(1.66557 1.2336 0.828382)
(1.66439 1.35323 0.816919)
(1.64373 1.18105 0.813523)
(0.984957 1.66457 0.818734)
(0.996943 1.61097 0.771039)
(0.960519 1.65542 0.759588)
(0.972181 1.69291 0.829455)
(1.14158 1.52346 0.577528)
(1.12286 1.63116 0.641222)
(0.971406 1.66728 0.745234)
(1.06202 1.39694 0.661565)
(1.1231 1.4915 0.590183)
(1.10519 1.57533 0.624509)
(1.21403 1.26815 0.597053)
(1.28853 1.21424 0.588282)
(1.32233 1.26287 0.688109)
(1.26426 1.22059 0.615664)
(1.42517 1.34823 0.767701)
(1.342 1.52695 0.723861)
(1.21213 1.54147 0.743038)
(1.05733 1.42221 0.754673)
(1.29522 1.339 0.703627)
(1.32864 1.4773 0.699784)
(0.976267 1.40124 0.976662)
(1.07233 1.54816 0.611924)
(1.1975 1.41987 0.97127)
(1.17582 1.50006 0.889861)
(1.2908 1.55163 0.847481)
(1.35567 1.52407 0.678502)
(1.02113 1.65888 0.657275)
(1.2127 1.62518 0.794966)
(1.24909 1.37663 0.970868)
(1.0363 1.68475 0.805753)
(1.32244 1.24356 0.739133)
(1.32419 1.26052 0.754468)
(1.36842 1.23107 0.700024)
(1.27844 1.2774 0.759679)
(1.29197 1.23693 0.691545)
(1.29995 1.21467 0.684011)
(1.30132 1.18368 0.653054)
(1.33525 1.18066 0.702232)
(1.36786 1.16682 0.69442)
(1.3011 1.17702 0.668467)
(1.3441 1.31058 0.783148)
(1.49806 1.37822 0.784704)
(1.36806 1.29159 0.78663)
(1.40591 1.66597 0.937437)
(1.48915 1.43633 0.672298)
(0.984244 1.68407 0.812827)
(1.59443 1.49853 0.850014)
(1.53858 1.41426 0.684235)
(1.54719 1.41154 0.737825)
(1.53351 1.37592 0.772279)
(1.56789 1.40209 0.683876)
(1.55135 1.47421 0.661198)
(1.60517 1.49962 0.747308)
(1.5121 1.34323 0.725631)
(1.48437 1.25809 0.66414)
(1.53582 1.32842 0.693838)
(1.47218 1.17932 0.6854)
(1.50927 1.16162 0.700722)
(1.58061 1.36247 0.698906)
(1.46615 1.31358 0.765677)
(1.43672 1.2932 0.692185)
(1.42556 1.29523 0.781105)
(1.44541 1.20917 0.67648)
(1.42918 1.20328 0.680405)
(1.64855 1.41776 0.825511)
(1.63275 1.44905 0.81569)
(1.61709 1.47267 0.839163)
(1.62919 1.40233 0.745193)
(1.40161 1.28908 0.70033)
(1.39164 1.18291 0.685707)
(1.41049 1.19222 0.68488)
(0.989264 1.49387 1.32798)
(0.910024 0.936522 1.0671)
(0.984251 1.05084 1.32667)
(1.0855 1.30074 1.21911)
(1.14674 1.25231 1.34575)
(0.922321 1.11175 1.1081)
(0.847814 1.06539 1.30048)
(0.823807 1.0058 1.30635)
(0.838448 1.11887 1.15653)
(1.16613 1.35369 1.24366)
(1.01307 1.03954 1.42126)
(0.901172 1.19797 1.20504)
(1.35576 1.22297 1.14813)
(1.02695 1.07277 1.42178)
(1.16053 1.21666 1.05501)
(1.1459 1.24059 0.892348)
(1.13761 1.22047 0.976823)
(1.22739 1.22015 1.04054)
(1.41494 1.3848 1.14378)
(1.19743 1.11664 1.16434)
(0.53659 1.33891 1.29574)
(0.685388 1.18774 1.37228)
(0.573152 1.21117 1.41285)
(1.11594 1.10116 1.30728)
(0.662178 1.08334 1.37047)
(1.0034 1.03135 1.33876)
(1.02889 1.00314 1.36943)
(1.04975 1.08151 1.38969)
(1.0261 1.10993 1.41763)
(0.568523 1.31481 1.36324)
(0.517565 1.19367 1.38349)
(0.899676 1.15678 1.07729)
(1.05477 0.994049 1.11706)
(0.857672 0.983582 1.24677)
(0.941118 1.09226 1.31516)
(0.992686 1.24069 1.23396)
(0.957917 1.20597 1.28111)
(1.09753 1.07765 1.27032)
(1.0092 1.17134 1.13547)
(1.20026 1.12712 1.23394)
(1.32158 1.27128 1.35476)
(1.26627 1.19122 1.12335)
(1.13555 1.22043 1.05502)
(0.886717 1.10725 1.20008)
(1.10435 1.25257 1.16538)
(0.936383 1.18353 1.35857)
(1.18678 1.34979 1.22073)
(1.09743 1.2655 1.26567)
(0.94732 1.02487 1.3251)
(1.25743 1.3177 1.29769)
(1.30696 1.33791 1.34693)
(0.892797 1.07572 1.12337)
(0.836606 1.12517 1.3264)
(0.87336 0.994351 1.26907)
(0.87147 1.0068 1.13722)
(1.04099 1.07553 1.2497)
(1.03299 1.07838 1.25458)
(0.996626 1.08565 1.25424)
(0.952802 1.07152 1.29129)
(0.94232 1.41189 1.10392)
(0.985077 1.13627 1.28882)
(0.979264 1.37553 1.15381)
(0.894234 1.09285 1.31753)
(0.921623 1.44436 1.08449)
(1.15855 1.36106 1.33572)
(1.13184 1.26721 1.32547)
(0.951556 1.36745 1.12359)
(0.934787 1.4831 1.08886)
(0.967386 1.00855 1.30345)
(1.0474 0.992592 1.1448)
(1.01264 1.2172 1.19414)
(0.959489 1.1323 1.09934)
(1.35182 1.36126 1.00223)
(1.43159 1.4594 1.18886)
(1.4883 1.40183 1.20402)
(1.57201 1.55544 1.11306)
(1.52509 1.493 1.13445)
(1.33984 1.39616 1.04714)
(1.43468 1.40226 1.22788)
(1.49216 1.38052 1.21704)
(1.37955 1.38732 1.16102)
(1.49844 1.18661 1.05365)
(1.56011 1.50827 1.14399)
(1.36054 1.39314 1.04535)
(1.40709 1.49329 1.34161)
(1.23343 1.27239 0.989764)
(1.28926 1.42441 1.1298)
(1.5422 1.35034 1.16171)
(1.51202 1.35375 1.17357)
(1.47257 1.37357 1.21068)
(1.59602 1.5446 1.16766)
(1.5627 1.45878 1.16781)
(1.45163 1.4545 1.21561)
(1.49216 1.53825 1.11086)
(1.45175 1.42829 1.23136)
(1.4381 1.46322 1.19172)
(1.47699 1.50675 1.15627)
(1.44492 1.46049 1.23364)
(1.55298 1.46591 1.15919)
(1.20387 1.26127 1.0032)
(1.21859 1.2805 1.01157)
(1.42172 1.40784 0.96004)
(1.3683 1.2433 0.950922)
(1.29941 1.24621 0.968323)
(1.44932 1.4053 1.19094)
(1.48498 1.19606 1.07205)
(1.51399 1.32506 1.06857)
(1.48589 1.1784 1.07254)
(1.49489 1.15845 1.03514)
(1.33207 1.42756 1.06563)
(1.27832 1.46246 1.02732)
(1.24166 1.49122 1.30323)
(1.38699 1.47089 1.29655)
(1.5522 1.54399 1.16033)
(1.30935 1.42669 1.08899)
(1.29466 1.36234 1.13122)
(1.34086 1.43361 1.14696)
(1.29248 1.22046 1.16532)
(1.35919 1.41663 1.17537)
(1.29549 1.37838 1.18445)
(1.34811 1.4491 1.1261)
(1.40394 1.40384 1.05444)
(1.41542 1.23227 1.09805)
(1.38719 1.42639 1.12245)
(1.3413 1.48822 1.35704)
(1.53042 1.53453 1.151)
(1.51756 1.54504 1.16803)
(1.28746 1.27168 0.981284)
(1.44889 1.32793 1.07526)
(1.27752 1.43942 1.0224)
(1.2559 1.32639 1.12514)
(1.31614 1.43634 1.01228)
(1.41409 1.47654 1.34631)
(1.38655 1.37865 1.07768)
(1.43902 1.47738 1.28773)
(1.49824 1.17649 1.02642)
(1.51897 1.38145 1.13809)
(1.51843 1.38662 1.14745)
(1.39899 1.50784 1.27723)
(1.56368 1.53465 1.10313)
(1.56178 1.35897 1.15672)
(1.52167 1.37983 1.20756)
(1.56415 1.57368 1.20781)
(1.51477 1.38877 1.19418)
(1.25465 1.37272 0.813634)
(1.53272 1.39982 1.04047)
(1.36962 1.46717 0.747548)
(1.36769 1.37394 0.966747)
(1.50003 1.43445 0.79326)
(1.55981 1.38573 1.07327)
(1.22081 1.18855 0.819529)
(1.55398 1.3895 0.898566)
(1.20087 1.1812 0.819836)
(1.20942 1.4675 0.924881)
(1.51339 1.23761 0.969172)
(1.2036 1.38541 0.736195)
(1.58476 1.33668 1.04061)
(1.21737 1.26221 0.941206)
(1.40702 1.31227 0.913626)
(1.0205 1.35492 0.967742)
(1.14546 1.24873 0.964928)
(1.237 1.17574 0.878742)
(1.34408 1.24851 0.931351)
(1.23106 1.19806 0.830108)
(1.00982 1.40752 0.708491)
(1.11854 1.34633 0.954204)
(1.12601 1.23116 0.669744)
(1.15847 1.18539 0.738532)
(1.24412 1.38498 0.864884)
(1.21837 1.36925 0.787953)
(1.34292 1.42111 0.935938)
(1.55781 1.37616 0.89094)
(1.30142 1.53185 0.814881)
(1.28192 1.535 0.806333)
(1.33538 1.49423 0.829972)
(1.17188 1.16171 0.737196)
(1.26066 1.34387 0.808003)
(1.15147 1.4015 0.939442)
(1.28209 1.29476 0.985414)
(1.22997 1.32201 0.892422)
(1.33305 1.34948 0.910864)
(1.47432 1.4382 0.749652)
(1.32654 1.30217 0.981057)
(1.19307 1.3984 0.740296)
(1.25298 1.36442 0.845246)
(1.31619 1.411 0.968176)
(1.38957 1.43057 0.778885)
(1.37732 1.43107 0.751313)
(1.56714 1.38564 1.00979)
(1.12794 1.53407 0.938924)
(1.5799 1.35151 0.984682)
(1.37322 1.43318 0.814647)
(1.47496 1.45742 0.903319)
(1.47598 1.29756 0.927639)
(1.46205 1.46109 0.853148)
(1.18041 1.50824 0.922233)
(1.25485 1.392 1.00654)
(1.52342 1.40924 1.13362)
(1.53688 1.38927 1.04863)
(1.48181 1.18134 0.940057)
(1.4712 1.19532 0.926548)
(1.31453 1.44454 0.767043)
(1.5762 1.35329 1.08194)
(1.57585 1.38141 1.07987)
(1.56214 1.39145 0.917289)
(1.46961 1.4632 0.754349)
(1.50307 1.18957 0.974792)
(1.53588 1.38593 1.14725)
(1.55223 1.38345 1.13212)
(1.57642 1.36086 1.05488)
(1.488 1.16194 0.960116)
(1.58733 1.34696 0.982621)
(1.06689 1.27238 0.656937)
(0.649664 1.34151 0.631658)
(0.928485 1.35279 0.839192)
(0.763015 1.45313 0.672256)
(1.05912 1.32919 0.777356)
(1.20671 1.19347 0.774102)
(0.49502 0.978777 0.746562)
(0.942643 1.13971 0.770761)
(0.721807 1.30972 0.891091)
(0.986195 1.19109 0.804421)
(1.1798 1.31903 0.626156)