/*--------------------------------*- C++ -*----------------------------------*\
| =========                 |                                                 |
| \\      /  F ield         | OpenFOAM: The Open Source CFD Toolbox           |
|  \\    /   O peration     | Version:  v1806                                 |
|   \\  /    A nd           | Web:      www.OpenFOAM.com                      |
|    \\/     M anipulation  |                                                 |
\*---------------------------------------------------------------------------*/
FoamFile
{
    version     2.0;
    format      ascii;
    class       volScalarField;
    location    "0.109";
    object      p;
}
// * * * * * * * * * * * * * * * * * * * * * * * * * * * * * * * * * * * * * //

dimensions      [0 2 -2 0 0 0 0];


internalField   nonuniform List<scalar> 
64000
(
-0.000145104
-0.119333
-0.251928
-0.309431
-0.32961
-0.33629
-0.340011
-0.345447
-0.348963
-0.371007
-0.384813
-0.427504
-0.448788
-0.533953
-0.582712
-0.685645
-0.715142
-0.881395
-0.844149
-1.15654
-0.979619
-1.16356
-1.10154
-1.25363
-1.18983
-1.25507
-1.21563
-1.2581
-1.27808
-1.33892
-1.4272
-1.55916
-1.69395
-1.81285
-1.92735
-2.00483
-2.07859
-2.10165
-2.12404
-2.1219
-0.124904
-0.247565
-0.306106
-0.325493
-0.333874
-0.33162
-0.329976
-0.329626
-0.327497
-0.344099
-0.345865
-0.38461
-0.409917
-0.460614
-0.495563
-0.569569
-0.626875
-0.833152
-0.817856
-1.11504
-0.884862
-1.05432
-1.02213
-1.15629
-1.09442
-1.16089
-1.14073
-1.2008
-1.23852
-1.32832
-1.40937
-1.51404
-1.65673
-1.76573
-1.8855
-1.96193
-2.03891
-2.0756
-2.10696
-2.11246
-0.295567
-0.329563
-0.345678
-0.340997
-0.338878
-0.334886
-0.331131
-0.328269
-0.304662
-0.329935
-0.329779
-0.366244
-0.394865
-0.463898
-0.564393
-0.688126
-0.724528
-0.89635
-0.891926
-1.23798
-1.05479
-1.26191
-1.28606
-1.47163
-1.45024
-1.54843
-1.55057
-1.61694
-1.63342
-1.68229
-1.72018
-1.77038
-1.81937
-1.87492
-1.94185
-1.99274
-2.04914
-2.07625
-2.10347
-2.1129
-0.384056
-0.392399
-0.394575
-0.378262
-0.346261
-0.32786
-0.308554
-0.280038
-0.294066
-0.294502
-0.316196
-0.340158
-0.463939
-0.543013
-0.621223
-0.740857
-0.829066
-1.01493
-1.06763
-1.4406
-1.29226
-1.50487
-1.58164
-1.79146
-1.79703
-1.90219
-1.90608
-1.95548
-1.95061
-1.96251
-1.96158
-1.94988
-1.95346
-1.96099
-1.98784
-2.01001
-2.05484
-2.06533
-2.09785
-2.11352
-0.408233
-0.394168
-0.391031
-0.357403
-0.346994
-0.328149
-0.309956
-0.279262
-0.301443
-0.330768
-0.38186
-0.467867
-0.549279
-0.623475
-0.767825
-0.918355
-1.03058
-1.23439
-1.281
-1.69277
-1.57595
-1.77333
-1.86334
-2.08923
-2.10353
-2.20696
-2.20346
-2.23603
-2.21539
-2.20427
-2.16665
-2.14354
-2.10644
-2.08777
-2.0425
-2.03646
-2.05036
-2.08272
-2.10322
-2.12258
-0.443317
-0.418108
-0.415849
-0.394752
-0.366442
-0.356935
-0.39504
-0.331382
-0.401406
-0.45487
-0.528698
-0.604223
-0.698366
-0.810218
-0.91247
-1.06221
-1.17329
-1.31112
-1.48511
-1.84379
-1.79202
-1.94711
-2.05411
-2.24866
-2.26574
-2.35927
-2.3499
-2.37977
-2.34507
-2.33707
-2.28329
-2.23765
-2.18349
-2.16208
-2.09707
-2.04217
-2.07092
-2.09267
-2.11954
-2.14338
-0.48104
-0.441654
-0.461581
-0.465233
-0.48192
-0.493852
-0.546755
-0.498347
-0.558848
-0.602361
-0.666043
-0.76029
-0.843842
-0.965944
-1.06439
-1.21461
-1.31501
-1.52668
-1.52611
-1.97177
-1.97452
-2.06496
-2.14256
-2.31914
-2.34018
-2.43021
-2.43262
-2.46645
-2.44722
-2.44234
-2.38618
-2.34047
-2.25852
-2.20522
-2.13458
-2.07037
-2.07571
-2.10276
-2.1296
-2.15516
-0.508992
-0.478256
-0.504833
-0.533822
-0.567981
-0.643255
-0.590456
-0.60793
-0.683562
-0.742913
-0.808927
-0.889055
-0.964515
-1.04906
-1.13998
-1.27005
-1.36371
-1.53887
-1.60775
-1.842
-2.04078
-2.05407
-2.14902
-2.29229
-2.35254
-2.43948
-2.46658
-2.5156
-2.51483
-2.52492
-2.48877
-2.43597
-2.36971
-2.28652
-2.24164
-2.12639
-2.11239
-2.12566
-2.15481
-2.18105
-0.542844
-0.507739
-0.549425
-0.59164
-0.655719
-0.72252
-0.667017
-0.750352
-0.780756
-0.877593
-0.917031
-0.98875
-1.00896
-1.08201
-1.12667
-1.22554
-1.29398
-1.4363
-1.55135
-1.67952
-1.9933
-2.00101
-2.09029
-2.21927
-2.32908
-2.42161
-2.4756
-2.53541
-2.5643
-2.59325
-2.55644
-2.51378
-2.44259
-2.34314
-2.27932
-2.18285
-2.11779
-2.12866
-2.14871
-2.17893
-0.593132
-0.564085
-0.609317
-0.667427
-0.76262
-0.758709
-0.793217
-0.846642
-0.890817
-0.939726
-0.985179
-1.01753
-1.02592
-1.04226
-1.04649
-1.09315
-1.12551
-1.20639
-1.29144
-1.33116
-1.72775
-1.74337
-1.98408
-2.10448
-2.28234
-2.38175
-2.46924
-2.5493
-2.60735
-2.64167
-2.64322
-2.59569
-2.52071
-2.42864
-2.35043
-2.25165
-2.15948
-2.15291
-2.16589
-2.20036
-0.647212
-0.616322
-0.673267
-0.748048
-0.810537
-0.839573
-0.891127
-0.938049
-0.961487
-0.989518
-0.989658
-0.998706
-0.987046
-0.990389
-0.94327
-0.958011
-0.961811
-1.02537
-1.08357
-1.09262
-1.46992
-1.49395
-1.86232
-1.99472
-2.20557
-2.33309
-2.43608
-2.55033
-2.62087
-2.67758
-2.67754
-2.64981
-2.57059
-2.45423
-2.35094
-2.26945
-2.1576
-2.12288
-2.1379
-2.17159
-0.723518
-0.694417
-0.750704
-0.826281
-0.872157
-0.931787
-0.988286
-1.02442
-1.03438
-1.031
-0.987979
-0.958889
-0.912072
-0.852755
-0.863773
-0.802688
-0.798225
-0.852792
-0.905515
-0.932854
-1.28801
-1.29717
-1.72658
-1.86009
-2.1092
-2.25329
-2.40031
-2.52314
-2.62795
-2.6995
-2.7247
-2.70343
-2.66008
-2.56462
-2.42574
-2.30092
-2.17557
-2.1415
-2.13134
-2.17663
-0.803732
-0.768968
-0.822632
-0.879908
-0.955113
-1.01375
-1.06287
-1.07912
-1.07591
-1.0344
-0.957923
-0.893141
-0.769943
-0.733354
-0.646656
-0.628671
-0.583855
-0.657524
-0.686858
-0.768111
-1.07874
-1.10947
-1.54971
-1.69236
-1.97638
-2.13961
-2.31709
-2.47376
-2.58797
-2.68486
-2.7217
-2.75317
-2.66505
-2.55626
-2.41836
-2.31599
-2.13605
-2.08018
-2.06976
-2.10939
-0.892913
-0.848165
-0.889063
-0.954269
-1.02763
-1.09363
-1.12767
-1.13109
-1.08415
-1.02115
-0.91685
-0.798128
-0.661454
-0.529494
-0.450421
-0.39252
-0.369399
-0.431442
-0.451647
-0.582908
-0.831603
-0.905918
-1.28768
-1.48297
-1.78987
-2.00449
-2.21509
-2.38991
-2.54491
-2.65982
-2.78715
-2.75582
-2.67462
-2.56958
-2.43201
-2.29943
-2.18362
-2.05532
-2.02035
-2.07261
-0.988054
-0.937475
-0.978004
-1.03643
-1.11983
-1.17434
-1.19258
-1.16746
-1.08702
-0.992618
-0.83552
-0.668035
-0.479082
-0.327519
-0.175883
-0.10727
-0.0875272
-0.152287
-0.119481
-0.390677
-0.491348
-0.679292
-0.967914
-1.23394
-1.56169
-1.79264
-2.0369
-2.24574
-2.42498
-2.64473
-2.67561
-2.66981
-2.62073
-2.51798
-2.38474
-2.22991
-2.11114
-2.01418
-1.94617
-1.98086
-1.05085
-0.997742
-1.02552
-1.07894
-1.15163
-1.20635
-1.22956
-1.19339
-1.08974
-0.949263
-0.735987
-0.527913
-0.269218
-0.0723859
0.0905239
0.195132
0.257409
0.187124
0.179233
-0.0598939
-0.133816
-0.383517
-0.689608
-0.980869
-1.29342
-1.58074
-1.8378
-2.08842
-2.40187
-2.50037
-2.57302
-2.59804
-2.56559
-2.48612
-2.35237
-2.20491
-2.03589
-1.96251
-1.81549
-1.86699
-1.13455
-1.08872
-1.11503
-1.16287
-1.23212
-1.29337
-1.30961
-1.25174
-1.10819
-0.911926
-0.660593
-0.381092
-0.0879561
0.179876
0.385294
0.548994
0.609228
0.6486
0.616664
0.443389
0.207658
-0.0706141
-0.393383
-0.692996
-1.0059
-1.29315
-1.54892
-1.92665
-2.08725
-2.23739
-2.34527
-2.39355
-2.40082
-2.34542
-2.24229
-2.09158
-1.94085
-1.84428
-1.81952
-1.77125
-1.18324
-1.11872
-1.12755
-1.1549
-1.21239
-1.25577
-1.28883
-1.20597
-1.0344
-0.791192
-0.484168
-0.145979
0.233144
0.563848
0.855037
1.08514
1.22737
1.26495
1.08243
0.898135
0.58146
0.312424
-0.0162512
-0.346047
-0.655339
-0.975376
-1.22943
-1.57002
-1.82295
-2.0061
-2.13138
-2.19748
-2.22011
-2.18546
-2.09861
-1.96086
-1.79218
-1.65816
-1.57421
-1.54474
-1.30465
-1.2689
-1.27267
-1.2801
-1.31569
-1.35104
-1.36905
-1.25869
-1.00178
-0.718348
-0.415821
-0.0662786
0.357213
0.869485
1.24681
1.60872
1.74416
1.79475
1.67051
1.51265
1.11704
0.861842
0.489316
0.161434
-0.168596
-0.51095
-0.881817
-1.07072
-1.33549
-1.54019
-1.7258
-1.84852
-1.95145
-1.96321
-1.94314
-1.82193
-1.7002
-1.54658
-1.47518
-1.43717
-1.76691
-1.74164
-1.72627
-1.71933
-1.77202
-1.80219
-1.81383
-1.55458
-1.13487
-0.712948
-0.249598
0.267067
0.841789
1.37547
1.74847
2.07384
2.31418
2.41976
2.36085
2.14494
1.82182
1.43523
1.09656
0.747303
0.363084
0.04821
-0.417848
-0.680838
-0.96334
-1.16363
-1.32551
-1.42253
-1.47398
-1.47459
-1.42442
-1.33565
-1.21144
-1.17493
-1.0852
-1.23936
-1.79977
-1.82503
-1.80792
-1.81527
-1.84711
-1.85971
-1.84926
-1.542
-0.963658
-0.417253
0.159337
0.769871
1.43863
1.95185
2.3108
2.60668
2.85921
3.04316
3.05385
2.87144
2.5053
2.07553
1.77975
1.46436
1.10715
0.701368
0.27237
-0.00907798
-0.222058
-0.419957
-0.718243
-0.982803
-1.25265
-1.36449
-1.42432
-1.33189
-1.22063
-1.09276
-0.960319
-0.888004
-1.81038
-1.7715
-1.73589
-1.69109
-1.65965
-1.60532
-1.53787
-1.25587
-0.636061
-0.0591998
0.565847
1.2594
1.93519
2.43737
2.82179
3.11873
3.33248
3.57373
3.68981
3.57028
3.20264
2.77657
2.51473
2.14243
1.71858
1.25445
0.879617
0.586618
0.327929
0.228574
0.102379
0.0645448
-0.00966688
-0.075444
-0.190383
-0.277352
-0.361589
-0.466362
-0.584413
-0.702707
-1.90335
-1.8408
-1.81248
-1.74255
-1.68184
-1.58398
-1.44506
-1.15532
-0.490344
0.180631
0.901232
1.6866
2.34686
2.84929
3.24355
3.54705
3.76066
3.92489
4.18907
4.15189
3.90031
3.36238
3.02126
2.58407
2.104
1.72954
1.34563
1.04246
0.724817
0.527538
0.354861
0.247395
0.125852
0.173219
0.322571
0.510533
0.661713
0.849772
0.988659
1.05922
-1.99406
-1.91225
-1.85671
-1.73957
-1.63595
-1.4882
-1.30849
-0.975942
-0.359702
0.402763
1.18907
1.96956
2.60558
3.1189
3.52548
3.8359
4.05816
4.20316
4.43469
4.5885
4.38825
3.92579
3.39821
3.01097
2.47999
2.12606
1.72956
1.43998
1.12948
0.940822
0.746113
0.689635
0.635676
0.696978
0.70928
0.806554
0.884541
1.02043
1.08289
0.913382
-2.1568
-2.10719
-1.99973
-1.85011
-1.71335
-1.5331
-1.31077
-0.960144
-0.400082
0.401389
1.25845
2.03863
2.65352
3.17118
3.59116
3.91027
4.14962
4.30103
4.45087
4.75261
4.61763
4.16385
3.75888
3.16843
2.71123
2.38908
2.01192
1.73833
1.42758
1.24368
1.01772
0.926869
0.796936
0.813137
0.78642
0.881453
0.939402
1.10761
1.25968
1.21845
-2.32871
-2.26158
-2.1718
-1.96957
-1.81986
-1.59458
-1.38036
-0.983133
-0.471358
0.28517
1.09676
1.83993
2.46207
2.97462
3.37051
3.69631
3.94021
4.14365
4.28864
4.72866
4.67339
4.18575
3.79908
3.38517
2.89855
2.52813
2.20732
1.99251
1.72139
1.57665
1.39933
1.36958
1.28348
1.33517
1.28737
1.36018
1.35155
1.43457
1.48844
1.39726
-2.58887
-2.51893
-2.44518
-2.21353
-2.03675
-1.82206
-1.61627
-1.20008
-0.70535
-0.0150114
0.706891
1.3825
1.95185
2.42255
2.80445
3.11914
3.3838
3.56847
3.93061
4.52777
4.54081
4.1193
3.7154
3.39028
2.99422
2.62459
2.26509
2.11408
1.86168
1.75347
1.55515
1.4917
1.3367
1.351
1.26797
1.36977
1.40481
1.57128
1.69969
1.78361
-2.85911
-2.77166
-2.75007
-2.49627
-2.29545
-2.07076
-1.85677
-1.48291
-1.03734
-0.433119
0.188207
0.794364
1.28987
1.72564
2.07254
2.38291
2.59626
2.91937
3.21447
3.87428
4.11798
3.90601
3.5312
3.28417
2.9607
2.69196
2.35549
2.23426
2.02593
1.94617
1.79094
1.78083
1.64513
1.64548
1.46389
1.46158
1.31881
1.37616
1.36034
1.32433
-3.2326
-3.16613
-3.11094
-2.96912
-2.7027
-2.51592
-2.27419
-1.95647
-1.5656
-1.04962
-0.526094
-0.0166878
0.415254
0.795512
1.12885
1.3557
1.59635
1.96593
2.30698
2.96801
3.41731
3.34586
3.18777
3.01705
2.80364
2.62902
2.42601
2.31951
2.20631
2.18812
2.10862
2.14819
2.03187
2.09374
1.93049
1.9956
1.86847
1.99955
1.9663
2.03263
-3.56144
-3.50454
-3.45673
-3.37166
-3.12747
-2.93633
-2.70285
-2.42164
-2.11686
-1.69967
-1.29179
-0.870163
-0.522247
-0.178268
0.0765935
0.268791
0.769495
1.04045
1.34364
1.93183
2.51759
2.58503
2.61398
2.61837
2.59474
2.56375
2.49468
2.49475
2.3571
2.42679
2.34961
2.42848
2.34677
2.45343
2.28718
2.41928
2.28599
2.5074
2.48581
2.60493
-4.02647
-3.99811
-3.93367
-3.89966
-3.72828
-3.46542
-3.27614
-3.05148
-2.82541
-2.5114
-2.18276
-1.85025
-1.55293
-1.26534
-1.11097
-0.660412
-0.307661
-0.0412757
0.224189
0.743885
1.42901
1.66425
1.86915
2.05779
2.24159
2.33667
2.43148
2.51347
2.43668
2.46304
2.42796
2.56788
2.46082
2.68456
2.49628
2.72556
2.61267
2.94462
2.98679
3.20912
-4.36361
-4.33968
-4.32466
-4.30451
-4.30883
-3.92879
-3.77257
-3.592
-3.45166
-3.21433
-2.99773
-2.72452
-2.49717
-2.38645
-2.02801
-1.62609
-1.33736
-1.06878
-0.851558
-0.441353
0.393654
0.774052
1.14538
1.47789
1.85026
2.07208
2.22387
2.50906
2.45913
2.53441
2.51423
2.68029
2.62458
2.87785
2.74307
3.07551
2.91264
3.39246
3.45651
3.88773
-4.86664
-4.86609
-4.85607
-4.80306
-4.84645
-4.63436
-4.39057
-4.26592
-4.18269
-4.0137
-3.8449
-3.66662
-3.61959
-3.24179
-2.93877
-2.69577
-2.46313
-2.19597
-1.94816
-1.608
-0.663627
-0.0994415
0.424873
0.902571
1.36891
1.70167
1.96385
2.34352
2.36116
2.5416
2.46552
2.73849
2.58301
2.97382
2.7836
3.26829
3.12758
3.71615
3.87567
4.5738
-5.14792
-5.13471
-5.16275
-5.12194
-5.13872
-5.12242
-4.84191
-4.73927
-4.73285
-4.61797
-4.58341
-4.5244
-4.19521
-3.99295
-3.77017
-3.57795
-3.40064
-3.15898
-2.87933
-2.48197
-1.43143
-0.784612
-0.169171
0.394971
0.97285
1.40067
1.74634
2.17883
2.28782
2.49768
2.49436
2.76202
2.68363
3.04182
2.90119
3.49649
3.34915
4.25078
4.3348
5.49513
-5.64316
-5.67506
-5.66581
-5.664
-5.63883
-5.6955
-5.43024
-5.31982
-5.32418
-5.40097
-5.25169
-4.99954
-4.89541
-4.715
-4.54374
-4.40425
-4.25802
-4.00537
-3.69498
-3.20917
-2.04783
-1.37576
-0.72703
-0.0985585
0.565073
1.13285
1.51883
2.00593
2.21722
2.40324
2.42891
2.74867
2.57161
3.11423
2.78167
3.53323
3.29048
4.52573
4.64839
6.41145
-5.82575
-5.77443
-5.83556
-5.79851
-5.83304
-5.85624
-5.74135
-5.59577
-5.70105
-5.50567
-5.55763
-5.52091
-5.45219
-5.3171
-5.20629
-5.01349
-4.87227
-4.62358
-4.27929
-3.69655
-2.52021
-1.84286
-1.13641
-0.417904
0.299477
0.982204
1.32971
1.88071
2.12316
2.38222
2.40211
2.77612
2.55095
3.18925
2.90985
3.73848
3.42607
5.12384
5.13991
8.03484
-6.30974
-6.38912
-6.33789
-6.33128
-6.28354
-6.21871
-6.19899
-6.02558
-5.93227
-5.91008
-5.95356
-5.92876
-5.91146
-5.84169
-5.76084
-5.61653
-5.38905
-5.10855
-4.74482
-4.03457
-2.96743
-2.26124
-1.46071
-0.676848
0.0336979
0.811032
1.16665
1.80057
2.09877
2.33624
2.30815
2.78405
2.45808
3.21076
2.71941
3.82843
3.22049
5.29483
5.5494
9.73873
-6.89118
-6.44293
-6.54178
-6.26513
-6.34285
-6.16872
-6.28624
-5.92002
-6.01949
-6.00242
-6.08579
-6.10503
-6.13133
-6.08981
-6.03735
-5.89312
-5.74154
-5.39923
-5.1731
-4.17943
-3.11634
-2.41076
-1.529
-0.772405
-0.0758156
0.719068
1.03728
1.72623
1.99577
2.33423
2.26628
2.80938
2.56026
3.38672
2.93905
4.39469
3.85218
6.59104
6.92933
14.3093
-6.88669
-7.14181
-6.97781
-6.98791
-6.62239
-6.65537
-6.45946
-6.18088
-6.08355
-6.10791
-6.22458
-6.24403
-6.27573
-6.2506
-6.20771
-6.07857
-5.93414
-5.58578
-5.14764
-4.2411
-3.32035
-2.63865
-1.64855
-0.854422
-0.165631
0.685017
1.00524
1.74104
2.05635
2.3441
2.27168
2.79985
2.44696
3.34719
2.81027
4.33656
3.73083
7.38718
9.03168
18.6706
-9.50811
-6.72573
-7.07452
-6.70971
-6.65783
-6.4798
-6.44437
-6.19326
-6.13721
-6.14241
-6.22754
-6.26857
-6.32406
-6.30288
-6.27787
-6.16784
-6.05386
-5.739
-5.18948
-4.20877
-3.26968
-2.53295
-1.43937
-0.705136
-0.116232
0.624797
0.819477
1.52367
1.8778
2.26935
2.25151
2.89832
2.61339
3.53929
3.22278
5.18938
5.49367
11.5166
16.5835
31.745
-0.133381
-0.253115
-0.31528
-0.344043
-0.350926
-0.351702
-0.351377
-0.358222
-0.35298
-0.38975
-0.378777
-0.451044
-0.474596
-0.554911
-0.601197
-0.714513
-0.73962
-0.909385
-0.895766
-1.28694
-1.05525
-1.19206
-1.20098
-1.3299
-1.2758
-1.33593
-1.31004
-1.36921
-1.39878
-1.47391
-1.53393
-1.63367
-1.76767
-1.86081
-1.96621
-2.03179
-2.09967
-2.12651
-2.14755
-2.13823
-0.267974
-0.321468
-0.352011
-0.360451
-0.350805
-0.348063
-0.333968
-0.343691
-0.314634
-0.35261
-0.339979
-0.397781
-0.432799
-0.484668
-0.513237
-0.617107
-0.667981
-0.862354
-0.852669
-1.17674
-1.03478
-1.16423
-1.16271
-1.29964
-1.26219
-1.34573
-1.33611
-1.40795
-1.44713
-1.51922
-1.58863
-1.6752
-1.7426
-1.82562
-1.93661
-2.00227
-2.07057
-2.09735
-2.12293
-2.12293
-0.359715
-0.375545
-0.38076
-0.369628
-0.356398
-0.342819
-0.329661
-0.319618
-0.311057
-0.367087
-0.34888
-0.385471
-0.41207
-0.485185
-0.558377
-0.707115
-0.761359
-0.948488
-0.969364
-1.31789
-1.23503
-1.4153
-1.4856
-1.66945
-1.66206
-1.76663
-1.76894
-1.83549
-1.85368
-1.88619
-1.89152
-1.8941
-1.92139
-1.96013
-1.98985
-2.02175
-2.08053
-2.09943
-2.12198
-2.12602
-0.425526
-0.42421
-0.420003
-0.391338
-0.362362
-0.340563
-0.329406
-0.327594
-0.298004
-0.309821
-0.321039
-0.367767
-0.444977
-0.557138
-0.643042
-0.795205
-0.879772
-1.09098
-1.15616
-1.52724
-1.51199
-1.71679
-1.8154
-2.00987
-2.01235
-2.11097
-2.10326
-2.13946
-2.12841
-2.11994
-2.09249
-2.05396
-2.02361
-2.00697
-2.02886
-2.04101
-2.08289
-2.09164
-2.11885
-2.12853
-0.434922
-0.425821
-0.40469
-0.386675
-0.37376
-0.362197
-0.359469
-0.320539
-0.309382
-0.341178
-0.386734
-0.478895
-0.566597
-0.678788
-0.798509
-0.972269
-1.08199
-1.30316
-1.40164
-1.73976
-1.73133
-1.93732
-2.04777
-2.23292
-2.22842
-2.32813
-2.32216
-2.36562
-2.32181
-2.28633
-2.22255
-2.18975
-2.15237
-2.11095
-2.06733
-2.06541
-2.08215
-2.10322
-2.12579
-2.14106
-0.465808
-0.449438
-0.434184
-0.434735
-0.396782
-0.394704
-0.413389
-0.380638
-0.396905
-0.454301
-0.5277
-0.614462
-0.711393
-0.837202
-0.952639
-1.12566
-1.24823
-1.44005
-1.54737
-1.89529
-1.90927
-2.08654
-2.18861
-2.36378
-2.3706
-2.44015
-2.42989
-2.43409
-2.42695
-2.38093
-2.32186
-2.26274
-2.20511
-2.18554
-2.11985
-2.08301
-2.10732
-2.12492
-2.14609
-2.16858
-0.498105
-0.480068
-0.494222
-0.48798
-0.48511
-0.491329
-0.550426
-0.508795
-0.54321
-0.601266
-0.668925
-0.770527
-0.862812
-0.982838
-1.10135
-1.2454
-1.36693
-1.57166
-1.65068
-1.96668
-2.01445
-2.15023
-2.21716
-2.37877
-2.3904
-2.47206
-2.47533
-2.50517
-2.46558
-2.44947
-2.38434
-2.32318
-2.25653
-2.20015
-2.15573
-2.10189
-2.10931
-2.13301
-2.15543
-2.17954
-0.531229
-0.523128
-0.546896
-0.566023
-0.577668
-0.633912
-0.62544
-0.608695
-0.685005
-0.752865
-0.820066
-0.908848
-0.987426
-1.08796
-1.17372
-1.30419
-1.3979
-1.56531
-1.64821
-1.88007
-2.01024
-2.10249
-2.17274
-2.32262
-2.38122
-2.47092
-2.51346
-2.54531
-2.54326
-2.51176
-2.46233
-2.41777
-2.34757
-2.2899
-2.23994
-2.17773
-2.15996
-2.17472
-2.18858
-2.21362
-0.570825
-0.560475
-0.597447
-0.630574
-0.651427
-0.742444
-0.676924
-0.767107
-0.808124
-0.880221
-0.930996
-0.989684
-1.03034
-1.10942
-1.16494
-1.25334
-1.31483
-1.44689
-1.55101
-1.71782
-1.90938
-1.99077
-2.09716
-2.24077
-2.34914
-2.45655
-2.51937
-2.57527
-2.56823
-2.56485
-2.52953
-2.50307
-2.45319
-2.32718
-2.27589
-2.19238
-2.16717
-2.16298
-2.18379
-2.20754
-0.621728
-0.610615
-0.65597
-0.688454
-0.783886
-0.751615
-0.807783
-0.884948
-0.924673
-0.983469
-1.00056
-1.03542
-1.04272
-1.06598
-1.09292
-1.13791
-1.15568
-1.22095
-1.28984
-1.415
-1.65636
-1.73955
-1.98239
-2.12647
-2.30703
-2.42805
-2.52646
-2.57817
-2.62429
-2.64167
-2.65205
-2.63807
-2.56487
-2.51104
-2.38693
-2.27634
-2.20687
-2.20851
-2.20725
-2.23772
-0.679687
-0.669211
-0.730364
-0.796716
-0.824797
-0.846442
-0.913777
-0.948627
-0.972106
-0.989344
-1.0297
-1.02922
-0.993455
-0.99604
-0.966146
-1.00818
-1.00273
-1.03775
-1.06792
-1.13454
-1.3745
-1.47933
-1.8613
-2.02783
-2.23946
-2.37967
-2.48565
-2.58548
-2.636
-2.71222
-2.73868
-2.67292
-2.60597
-2.46931
-2.40615
-2.29505
-2.17897
-2.17498
-2.17832
-2.20575
-0.757309
-0.750058
-0.817363
-0.883001
-0.893771
-0.948901
-0.994596
-1.04134
-1.05106
-1.03387
-0.97064
-0.971726
-0.934993
-0.874551
-0.834837
-0.844662
-0.848326
-0.874905
-0.900508
-0.962512
-1.18328
-1.27771
-1.70669
-1.8969
-2.13804
-2.29938
-2.44302
-2.52184
-2.68369
-2.77353
-2.76687
-2.80104
-2.72551
-2.66547
-2.53003
-2.41836
-2.21951
-2.17533
-2.17943
-2.21338
-0.84067
-0.824174
-0.894092
-0.939401
-1.00312
-1.04678
-1.07928
-1.06181
-1.0953
-1.03929
-0.963795
-0.894706
-0.725637
-0.769053
-0.629762
-0.657559
-0.652483
-0.685657
-0.707229
-0.791776
-0.997338
-1.09174
-1.54113
-1.7326
-2.00888
-2.19288
-2.36461
-2.59592
-2.69932
-2.75949
-2.86865
-2.82021
-2.73298
-2.57508
-2.44031
-2.34173
-2.24502
-2.10237
-2.12437
-2.14602
-0.924557
-0.893077
-0.94971
-1.01309
-1.086
-1.14314
-1.16327
-1.14725
-1.08727
-1.00264
-0.933419
-0.804108
-0.66619
-0.480126
-0.469574
-0.424252
-0.432851
-0.460849
-0.483182
-0.595678
-0.763306
-0.896514
-1.26688
-1.51557
-1.82719
-2.0486
-2.29924
-2.51437
-2.66267
-2.83902
-2.84332
-2.8185
-2.73707
-2.62607
-2.43445
-2.31468
-2.2077
-2.09317
-2.035
-2.11964
-1.02049
-0.980495
-1.03394
-1.09756
-1.18387
-1.23601
-1.25556
-1.21254
-1.12221
-1.0031
-0.83386
-0.643675
-0.476258
-0.336767
-0.170472
-0.189029
-0.14598
-0.171516
-0.184909
-0.342918
-0.451565
-0.653272
-0.953404
-1.22779
-1.58266
-1.81483
-2.14646
-2.39151
-2.61847
-2.70515
-2.74997
-2.75123
-2.69083
-2.57392
-2.39823
-2.24156
-2.11708
-2.09132
-1.97852
-2.02918
-1.08272
-1.03784
-1.08314
-1.14771
-1.22819
-1.26778
-1.26951
-1.23887
-1.12094
-0.970281
-0.74599
-0.52682
-0.25382
-0.0348588
0.0664003
0.142772
0.197418
0.180715
0.156467
0.0371758
-0.105276
-0.342239
-0.64348
-0.935431
-1.28913
-1.58469
-1.94884
-2.26217
-2.45527
-2.58013
-2.66298
-2.6853
-2.64629
-2.55338
-2.38614
-2.2194
-2.0494
-1.98057
-1.85898
-1.902
-1.17594
-1.14611
-1.1876
-1.24939
-1.31872
-1.33918
-1.3617
-1.29822
-1.1545
-0.946801
-0.682967
-0.410831
-0.078447
0.213557
0.445282
0.591787
0.582182
0.672019
0.670663
0.516597
0.282864
0.00983165
-0.30332
-0.595316
-0.940178
-1.36126
-1.67812
-1.96659
-2.17845
-2.3456
-2.44919
-2.4951
-2.49211
-2.42211
-2.29053
-2.12445
-1.96235
-1.85132
-1.83127
-1.84134
-1.19832
-1.17156
-1.19618
-1.25256
-1.28614
-1.33211
-1.35292
-1.27692
-1.0945
-0.852782
-0.537012
-0.203635
0.193546
0.565179
0.897325
1.16864
1.26767
1.29746
1.18138
1.0022
0.73674
0.434942
0.0820371
-0.25734
-0.565709
-1.00475
-1.31462
-1.64064
-1.92342
-2.10846
-2.23806
-2.30379
-2.32442
-2.28428
-2.16521
-2.03101
-1.81604
-1.67568
-1.62241
-1.60919
-1.37728
-1.38448
-1.39662
-1.42259
-1.40357
-1.45271
-1.48504
-1.37057
-1.09709
-0.777522
-0.439413
-0.0562508
0.391176
0.911314
1.36207
1.73201
1.84738
1.87719
1.80404
1.61493
1.31499
0.98408
0.57304
0.22843
-0.0828118
-0.439602
-0.828941
-1.15448
-1.45476
-1.6746
-1.85001
-1.96093
-2.04659
-2.0488
-1.99509
-1.85695
-1.71399
-1.53837
-1.51464
-1.51403
-1.85662
-1.78494
-1.76872
-1.7799
-1.76446
-1.82154
-1.82112
-1.56607
-1.13418
-0.694929
-0.222916
0.295428
0.87299
1.44341
1.8765
2.26076
2.50686
2.54668
2.42469
2.30558
1.98696
1.60882
1.18748
0.802055
0.472087
0.0810206
-0.286977
-0.616623
-0.944835
-1.1795
-1.37517
-1.50012
-1.59669
-1.61407
-1.54338
-1.47613
-1.28935
-1.15337
-1.11302
-1.16612
-1.92733
-1.88063
-1.87674
-1.87615
-1.89344
-1.9041
-1.8827
-1.56168
-0.964462
-0.410339
0.174473
0.804312
1.49583
2.06353
2.46114
2.79033
3.0692
3.24715
3.21938
2.91794
2.70278
2.29062
1.86602
1.5659
1.04973
0.688125
0.31794
0.0652736
-0.155558
-0.360952
-0.631206
-0.867511
-1.12647
-1.28277
-1.3712
-1.30394
-1.19522
-1.04431
-0.957958
-0.953562
-1.85333
-1.82017
-1.79648
-1.75799
-1.74619
-1.68487
-1.61745
-1.30542
-0.667077
-0.0618675
0.591112
1.31269
2.04948
2.60275
3.0138
3.33016
3.5926
3.84477
3.93828
3.75745
3.34172
3.01664
2.55323
2.16305
1.6861
1.27778
0.882026
0.594447
0.364259
0.22193
0.0600842
-0.00829823
-0.0767488
-0.104944
-0.166371
-0.225426
-0.269383
-0.280314
-0.401757
-0.694345
-1.8962
-1.88858
-1.84104
-1.78122
-1.72054
-1.62844
-1.5019
-1.18756
-0.512677
0.194861
0.957585
1.78353
2.51895
3.06599
3.47762
3.79972
4.04645
4.28435
4.51439
4.43613
4.10077
3.62136
3.28606
2.80861
2.21873
1.80227
1.38487
1.06915
0.763657
0.585756
0.394982
0.285825
0.169574
0.193898
0.310965
0.479844
0.613132
0.790449
0.938526
0.973262
-2.00932
-1.94263
-1.85724
-1.75483
-1.65506
-1.54164
-1.33331
-0.995926
-0.378212
0.413219
1.25365
2.1078
2.81817
3.36847
3.79947
4.13868
4.39725
4.58546
4.84478
4.90881
4.68989
4.27782
3.60847
3.131
2.64478
2.22473
1.81645
1.49005
1.17598
0.974935
0.777113
0.72113
0.660558
0.732802
0.765452
0.862049
0.948978
1.08502
1.22715
1.07412
-2.16396
-2.1111
-1.98645
-1.84069
-1.70855
-1.53504
-1.30888
-0.938135
-0.363363
0.447521
1.34053
2.18749
2.89025
3.44443
3.89036
4.23727
4.50447
4.69129
4.85652
5.04509
4.93477
4.60402
4.10893
3.36748
2.86699
2.54222
2.11589
1.82172
1.49508
1.29226
1.05908
0.9624
0.836018
0.84986
0.819319
0.903915
0.959575
1.13908
1.30066
1.2889
-2.33116
-2.27524
-2.15901
-1.95353
-1.78715
-1.58211
-1.34588
-0.930638
-0.396185
0.371516
1.21707
2.0291
2.70532
3.26909
3.71434
4.06944
4.33589
4.51955
4.64622
4.85082
4.95439
4.62719
4.18244
3.66762
3.10478
2.69634
2.3469
2.06868
1.81699
1.63927
1.47024
1.42947
1.34095
1.39261
1.34169
1.41751
1.40275
1.50984
1.6029
1.52029
-2.59254
-2.52981
-2.44678
-2.2091
-2.02453
-1.80003
-1.56622
-1.13995
-0.626825
0.0781149
0.837752
1.57226
2.20641
2.75683
3.19635
3.54411
3.80484
3.98118
4.12782
4.44136
4.75863
4.52061
4.09545
3.70747
3.27029
2.79774
2.45593
2.22098
1.96018
1.81885
1.63559
1.57582
1.4227
1.42651
1.32455
1.41495
1.41628
1.58974
1.71144
1.77932
-2.85242
-2.7779
-2.73452
-2.4965
-2.27504
-2.05033
-1.84056
-1.42918
-0.961129
-0.34335
0.300229
0.940363
1.51725
2.01282
2.41213
2.73885
2.9826
3.18594
3.37518
3.99717
4.29151
4.16398
3.86061
3.5441
3.23386
2.91537
2.54497
2.34805
2.11202
2.00527
1.88225
1.84525
1.69309
1.69573
1.50965
1.53047
1.36414
1.4267
1.44515
1.41351
-3.24232
-3.16803
-3.12293
-2.9636
-2.69293
-2.47427
-2.25366
-1.92838
-1.51589
-0.997289
-0.456346
0.103842
0.588198
1.01243
1.36864
1.65772
1.92288
2.16041
2.40644
3.0269
3.56853
3.53093
3.39073
3.22694
3.00802
2.8354
2.61883
2.44219
2.32809
2.2905
2.16066
2.16171
2.02255
2.07841
1.88875
1.96584
1.80595
1.99392
1.96229
2.0422
-3.57313
-3.50068
-3.47386
-3.37518
-3.12453
-2.87875
-2.68398
-2.39817
-2.08799
-1.67087
-1.23743
-0.792445
-0.411811
-0.0530239
0.243237
0.530686
0.832211
1.09448
1.57803
2.01365
2.62567
2.70656
2.73351
2.74697
2.73568
2.70911
2.64575
2.60018
2.49532
2.49255
2.39095
2.46439
2.33978
2.44126
2.25208
2.3955
2.20311
2.52483
2.44842
2.62801
-4.04762
-3.99635
-3.9644
-3.92088
-3.75057
-3.45493
-3.26845
-3.05301
-2.83331
-2.488
-2.16711
-1.81936
-1.50911
-1.20636
-0.938359
-0.610589
-0.330434
-0.101894
0.289404
0.834603
1.39158
1.72673
1.94097
2.12724
2.3243
2.45428
2.52187
2.6146
2.54001
2.5781
2.4554
2.57139
2.45886
2.69115
2.43274
2.68178
2.46596
2.90486
2.85475
3.20335
-4.38526
-4.35265
-4.34935
-4.31796
-4.2926
-3.95052
-3.77589
-3.60935
-3.50209
-3.25517
-3.02534
-2.74993
-2.52401
-2.27339
-1.97408
-1.66867
-1.43206
-0.991719
-0.779292
-0.317182
0.336941
0.807002
1.18352
1.51879
1.88456
2.14542
2.30489
2.56478
2.58794
2.61
2.55554
2.71845
2.5914
2.87238
2.70508
2.99468
2.7112
3.27531
3.17949
3.73246
-4.89766
-4.9095
-4.87903
-4.87298
-4.88017
-4.68325
-4.42578
-4.29476
-4.22948
-4.08009
-3.91313
-3.70148
-3.55675
-3.30503
-3.14919
-3.05642
-2.75871
-2.26707
-1.97274
-1.51753
-0.677092
-0.0767225
0.442814
0.893629
1.39181
1.77309
2.02747
2.38157
2.46634
2.60152
2.52296
2.74977
2.59368
2.98095
2.63557
3.17813
2.83778
3.47017
3.35567
4.20105
-5.18951
-5.19508
-5.20672
-5.15561
-5.23521
-5.16302
-4.91411
-4.77235
-4.78508
-4.72219
-4.63493
-4.4857
-4.35765
-4.35698
-4.17095
-3.85265
-3.54526
-3.36398
-3.07917
-2.55364
-1.52495
-0.798288
-0.174901
0.367357
0.965056
1.44586
1.79078
2.23351
2.38536
2.56342
2.5557
2.80191
2.7022
3.03452
2.82394
3.27153
2.99612
3.87161
3.46983
4.83585
-5.68238
-5.7232
-5.71728
-5.72802
-5.70117
-5.76905
-5.54562
-5.36925
-5.38145
-5.38106
-5.36206
-5.28795
-5.29006
-5.03084
-4.90751
-4.71553
-4.44657
-4.25375
-4.02934
-3.41891
-2.34187
-1.49208
-0.77823
-0.138141
0.550031
1.14304
1.53102
2.04729
2.25462
2.47247
2.46164
2.796
2.57666
3.11308
2.71484
3.3682
2.82685
3.83635
3.51534
5.39777
-5.85803
-5.86859
-5.92776
-5.83894
-5.9084
-5.93752
-5.90092
-5.65532
-5.72074
-5.66662
-5.71094
-5.81751
-5.70193
-5.64393
-5.55476
-5.3457
-5.09214
-4.92205
-4.59287
-3.8463
-2.78834
-1.90327
-1.16375
-0.448277
0.257465
0.941211
1.3441
1.94718
2.19466
2.43782
2.41269
2.8278
2.57335
3.21199
2.77186
3.66094
2.95129
4.34231
3.49312
6.77078
-6.3396
-6.46777
-6.38072
-6.41651
-6.35899
-6.36101
-6.36703
-6.097
-6.10654
-6.10232
-6.24081
-6.17068
-6.1509
-6.07687
-5.98715
-5.82231
-5.67033
-5.33393
-4.89923
-4.10322
-3.10061
-2.36801
-1.49911
-0.734747
-0.0263927
0.755281
1.17343
1.86573
2.13637
2.40732
2.33371
2.7882
2.43764
3.17243
2.61226
3.68248
2.85396
4.5918
3.58604
8.63314
-6.86581
-6.46142
-6.58519
-6.32976
-6.424
-6.27464
-6.48154
-6.14543
-6.2163
-6.24351
-6.28841
-6.34118
-6.36668
-6.33432
-6.28984
-6.11266
-6.06898
-5.72715
-5.27006
-4.23774
-3.27233
-2.53132
-1.63032
-0.846001
-0.165323
0.679123
1.05464
1.79692
2.10228
2.40986
2.30603
2.85569
2.51029
3.32658
2.80896
4.19415
3.59823
6.09523
6.12376
13.9852
-6.72024
-7.16866
-7.0583
-7.10848
-6.84326
-6.78121
-6.68588
-6.4013
-6.3703
-6.40115
-6.51922
-6.48115
-6.51049
-6.51586
-6.48751
-6.37219
-6.31607
-5.93498
-5.55841
-4.48658
-3.54042
-2.73513
-1.8195
-0.958837
-0.246866
0.640562
1.00467
1.79311
2.05793
2.39095
2.27471
2.80188
2.41123
3.35384
2.75841
4.30016
3.85773
7.51765
9.69131
21.2794
-9.45474
-6.69624
-7.00608
-6.69813
-6.69348
-6.58306
-6.56671
-6.34369
-6.31913
-6.35589
-6.474
-6.50821
-6.56771
-6.53929
-6.55451
-6.50683
-6.42092
-6.09161
-5.58279
-4.417
-3.42587
-2.60981
-1.62234
-0.779747
-0.159307
0.623769
0.824735
1.56735
1.93247
2.3053
2.24511
2.92317
2.60684
3.58235
3.241
5.26724
5.91247
12.1631
19.6762
37.9653
-0.297034
-0.335964
-0.36151
-0.373458
-0.368514
-0.360301
-0.36722
-0.357303
-0.364808
-0.369433
-0.406898
-0.444557
-0.487901
-0.557796
-0.618156
-0.665333
-0.812394
-0.962857
-0.96371
-1.29899
-0.991321
-1.25704
-1.24137
-1.37378
-1.3073
-1.33616
-1.29657
-1.3351
-1.3645
-1.44453
-1.52753
-1.63296
-1.73128
-1.87305
-1.98385
-2.06455
-2.13254
-2.14332
-2.16394
-2.16479
-0.360793
-0.376003
-0.390342
-0.385566
-0.370412
-0.348857
-0.346121
-0.330346
-0.339048
-0.353961
-0.368173
-0.38992
-0.41201
-0.466024
-0.508007
-0.618379
-0.703104
-0.886226
-0.893293
-1.22051
-1.0623
-1.2492
-1.3021
-1.45099
-1.40527
-1.44836
-1.4267
-1.47875
-1.52023
-1.60826
-1.67688
-1.75702
-1.8447
-1.86815
-1.97615
-2.0278
-2.09301
-2.11551
-2.13955
-2.1406
-0.402457
-0.405516