/*--------------------------------*- C++ -*----------------------------------*\
| =========                 |                                                 |
| \\      /  F ield         | OpenFOAM: The Open Source CFD Toolbox           |
|  \\    /   O peration     | Version:  v1806                                 |
|   \\  /    A nd           | Web:      www.OpenFOAM.com                      |
|    \\/     M anipulation  |                                                 |
\*---------------------------------------------------------------------------*/
FoamFile
{
    version     2.0;
    format      ascii;
    class       volVectorField;
    location    "0.016";
    object      U_0;
}
// * * * * * * * * * * * * * * * * * * * * * * * * * * * * * * * * * * * * * //

dimensions      [0 1 -1 0 0 0 0];


internalField   nonuniform List<vector> 
64000
(
(-0.00188258 -0.00549287 0.000981744)
(0.0112663 -0.0071986 0.000732214)
(0.0267217 -0.00591009 0.00276252)
(0.0318729 -0.00569028 0.00337111)
(0.0250917 -0.00353055 0.00448835)
(0.0187789 -0.00352703 0.00515411)
(0.0166461 -0.00480883 0.00513742)
(0.0135923 -0.00634471 0.00505933)
(0.00981184 -0.00768198 0.00523918)
(0.00518453 -0.00777193 0.00496457)
(-0.00598331 -0.00643079 0.00477992)
(-0.025208 -0.00339402 0.00535352)
(-0.0478136 -0.00281334 0.00470234)
(-0.0768803 -0.00122526 0.00501429)
(-0.109131 0.000835825 0.00638327)
(-0.147096 0.0057311 0.00471201)
(-0.190183 0.00724826 0.00513874)
(-0.231403 0.000627327 0.0086459)
(-0.273495 -0.00790924 0.00592624)
(-0.284736 -0.0145666 -0.00376524)
(-0.319737 -0.0377837 -0.0389075)
(-0.243564 -0.0211972 -0.0300863)
(-0.108886 -0.0242671 -0.0361773)
(-0.0928018 -0.0124696 -0.0410077)
(-0.0836224 -0.00320416 -0.0522933)
(-0.0726866 0.00472921 -0.0652622)
(-0.0567531 0.0143669 -0.0723)
(-0.0332876 0.024887 -0.0677494)
(0.00124708 0.0386381 -0.0521263)
(0.0458764 0.0516934 -0.0339977)
(0.0886156 0.0403104 -0.0323409)
(0.122971 0.0351634 -0.0218642)
(0.136922 0.023211 -0.01042)
(0.131885 0.0104971 -0.00163413)
(0.113153 0.00239053 0.0034964)
(0.0878718 -0.00404807 0.00532957)
(0.0627714 -0.00640486 0.00761004)
(0.0415828 -0.00548849 0.00816351)
(0.0226057 -0.00390529 0.00810056)
(0.00605007 -0.00276566 0.00688149)
(-0.000932055 -0.0124497 0.00198104)
(0.0144107 -0.0203106 0.00033031)
(0.0376318 -0.0180737 0.000781158)
(0.0495126 -0.0144294 0.0011857)
(0.046105 -0.00549086 0.0016495)
(0.0378023 -0.00030108 0.000947748)
(0.0334547 0.00239603 -0.000267847)
(0.027247 0.00674475 -0.00104911)
(0.0189131 0.0130253 -0.00486857)
(0.00734685 0.0253249 -0.00224572)
(-0.014759 0.0310726 -0.00491587)
(-0.0540593 0.0398918 0.00152065)
(-0.10311 0.0507827 -0.00113263)
(-0.161344 0.0650805 -0.00484388)
(-0.22598 0.0732353 -0.0103072)
(-0.303984 0.0785949 -0.0262066)
(-0.399553 0.0860255 -0.0413376)
(-0.49041 0.092906 -0.053629)
(-0.567987 0.10067 -0.0692216)
(-0.622653 0.112225 -0.0898115)
(-0.654278 0.104965 -0.116602)
(-0.565021 0.143527 -0.127361)
(-0.429108 0.156463 -0.148959)
(-0.385221 0.190612 -0.161871)
(-0.354975 0.218021 -0.170705)
(-0.310367 0.238411 -0.179229)
(-0.252399 0.255649 -0.181507)
(-0.181272 0.267891 -0.171974)
(-0.0990839 0.279446 -0.149563)
(-0.0353941 0.281566 -0.122808)
(0.0302847 0.270573 -0.0786882)
(0.0988697 0.240469 -0.0509857)
(0.130687 0.194518 -0.0401266)
(0.143706 0.14851 -0.0284313)
(0.134766 0.103792 -0.0146383)
(0.111334 0.0669766 -0.00635307)
(0.0864106 0.0420352 -0.00204635)
(0.06196 0.0276827 -0.00028939)
(0.0374404 0.0188607 0.00140358)
(0.0120049 0.00974377 0.00350695)
(0.000182643 -0.0233758 0.0032742)
(0.0178269 -0.0320891 -0.000191507)
(0.0446378 -0.026588 -0.000161395)
(0.0603831 -0.0168612 0.000364858)
(0.056919 0.00054706 -0.00126319)
(0.0427586 0.0182127 -0.00268508)
(0.0338212 0.0328607 -0.00427673)
(0.0230007 0.0511903 -0.00743763)
(0.00944617 0.0715841 -0.00234658)
(-0.0208345 0.0889291 -0.00434313)
(-0.0688021 0.103645 -0.00870007)
(-0.124496 0.126373 -0.0123174)
(-0.19058 0.149268 -0.0184292)
(-0.27677 0.172019 -0.0289567)
(-0.374845 0.194537 -0.0371828)
(-0.469511 0.211315 -0.0474579)
(-0.562429 0.234055 -0.0580233)
(-0.646574 0.264872 -0.069564)
(-0.716408 0.298554 -0.0835753)
(-0.762655 0.334418 -0.100765)
(-0.77649 0.364676 -0.118089)
(-0.669858 0.40139 -0.120823)
(-0.514877 0.429805 -0.130863)
(-0.450439 0.467073 -0.133573)
(-0.413299 0.496863 -0.130875)
(-0.366045 0.516032 -0.12935)
(-0.3094 0.524641 -0.125109)
(-0.242165 0.520222 -0.113888)
(-0.169205 0.505782 -0.0948911)
(-0.0997062 0.476993 -0.0728015)
(-0.0434595 0.455788 -0.0501542)
(-0.00135997 0.409797 -0.02783)
(0.0340344 0.355309 -0.0112763)
(0.0579623 0.293164 -0.00605153)
(0.0635884 0.227072 -0.00898736)
(0.0617479 0.169103 -0.00745149)
(0.0558838 0.121786 -0.00669519)
(0.0464826 0.0875939 -0.00415736)
(0.0330617 0.0602678 -0.000779503)
(0.012139 0.0306949 0.00288324)
(3.63718e-05 -0.0317653 0.00204839)
(0.0203968 -0.0388153 -0.00118038)
(0.0497494 -0.0270129 -0.00160113)
(0.0669915 -0.00757797 0.00048195)
(0.0649795 0.0153709 -0.00367897)
(0.0446341 0.0442339 -0.00410727)
(0.0269157 0.069172 -0.00611151)
(0.00649533 0.10042 -0.000302162)
(-0.028965 0.126148 -0.00593119)
(-0.0777365 0.148422 -0.00968009)
(-0.129513 0.177197 -0.0148255)
(-0.196302 0.212375 -0.022967)
(-0.278075 0.245887 -0.0267763)
(-0.363104 0.276022 -0.0323522)
(-0.451252 0.312655 -0.0392549)
(-0.536415 0.349117 -0.0451929)
(-0.615043 0.387014 -0.0488475)
(-0.682564 0.425483 -0.0515291)
(-0.735223 0.463388 -0.0547397)
(-0.768014 0.502778 -0.0597081)
(-0.769695 0.536333 -0.0625031)
(-0.652553 0.563766 -0.0513802)
(-0.488051 0.584357 -0.049374)
(-0.41773 0.601849 -0.0427436)
(-0.385261 0.612413 -0.0320444)
(-0.34888 0.612323 -0.0260643)
(-0.308352 0.600373 -0.0220762)
(-0.260192 0.575522 -0.0160805)
(-0.206931 0.543538 -0.00638353)
(-0.156215 0.501205 0.000843997)
(-0.111867 0.454388 0.00478182)
(-0.0742279 0.405806 0.0060887)
(-0.0479244 0.357383 0.00505593)
(-0.0290344 0.306761 0.00249356)
(-0.0141547 0.256094 -0.00151422)
(-0.00200379 0.20905 -0.0034474)
(0.00959365 0.164672 -0.00523015)
(0.0176322 0.127054 -0.00623059)
(0.0199735 0.0897221 -0.00260623)
(0.00977802 0.043593 0.00303431)
(0.000699402 -0.0383672 0.00134457)
(0.0250516 -0.0389543 -0.00328939)
(0.0593089 -0.020212 -0.000893202)
(0.0737509 0.00928522 -0.00312798)
(0.0677595 0.0399726 -0.00411896)
(0.0409449 0.0737817 -0.00346556)
(0.015475 0.107958 0.00159625)
(-0.0175216 0.147538 -0.00292383)
(-0.0651246 0.183219 -0.00648439)
(-0.116469 0.223197 -0.01171)
(-0.171087 0.265001 -0.015756)
(-0.233694 0.301777 -0.0207438)
(-0.306598 0.343068 -0.0222109)
(-0.381082 0.386205 -0.0249062)
(-0.45487 0.42615 -0.0260695)
(-0.52305 0.465567 -0.023997)
(-0.583963 0.506263 -0.0183406)
(-0.635752 0.546939 -0.0102412)
(-0.672634 0.587716 -0.00160787)
(-0.693376 0.625685 -0.000314691)
(-0.692145 0.654576 0.00174063)
(-0.57594 0.676054 0.0189236)
(-0.414467 0.682907 0.022583)
(-0.348946 0.667412 0.0296414)
(-0.327199 0.649729 0.0377163)
(-0.309756 0.623177 0.0421219)
(-0.292682 0.588283 0.0438118)
(-0.266641 0.545835 0.0436484)
(-0.23688 0.499824 0.0390265)
(-0.209055 0.45245 0.0323338)
(-0.182726 0.405206 0.0229471)
(-0.1588 0.35678 0.0161269)
(-0.131273 0.309657 0.0101867)
(-0.103444 0.267582 0.00397973)
(-0.0793975 0.232615 -0.00140771)
(-0.0566474 0.201063 -0.00533635)
(-0.0341737 0.170635 -0.00786177)
(-0.0138113 0.13995 -0.00818283)
(0.00388913 0.103307 -0.00262667)
(0.00641237 0.0461345 0.0034917)
(0.00243614 -0.041814 0.000299165)
(0.0305544 -0.0334666 -0.00368638)
(0.0677945 -0.00315794 -0.00482158)
(0.0815398 0.0324361 -0.00415316)
(0.0690227 0.070473 -0.00738947)
(0.0355645 0.108146 -8.15655e-05)
(0.00537317 0.152908 0.00167233)
(-0.031061 0.200635 -0.00274238)
(-0.0797208 0.250539 -0.00646762)
(-0.129055 0.300256 -0.0099031)
(-0.181643 0.348026 -0.0116852)
(-0.236859 0.388074 -0.0109019)
(-0.291343 0.42671 -0.00825822)
(-0.349781 0.462176 -0.010064)
(-0.409045 0.498989 -0.00519718)
(-0.458828 0.537397 -0.00181144)
(-0.501696 0.579448 0.0058088)
(-0.536403 0.617272 0.0141863)
(-0.563195 0.651093 0.0181323)
(-0.583927 0.676025 0.0204745)
(-0.582099 0.700359 0.0292487)
(-0.47348 0.738188 0.0507096)
(-0.340734 0.718917 0.0520697)
(-0.296978 0.658402 0.0564962)
(-0.287792 0.603249 0.0633665)
(-0.289627 0.553426 0.0659178)
(-0.29241 0.504394 0.0643109)
(-0.287583 0.455755 0.0608562)
(-0.273587 0.404983 0.05585)
(-0.257537 0.360211 0.0470383)
(-0.243416 0.321961 0.0324149)
(-0.227403 0.287319 0.0171134)
(-0.20586 0.256488 0.00744876)
(-0.173668 0.225599 0.00145866)
(-0.136021 0.19867 -0.00428309)
(-0.100108 0.178604 -0.00794606)
(-0.0647014 0.159081 -0.0100317)
(-0.0329906 0.138418 -0.00956538)
(-0.00462954 0.106029 -0.00418893)
(0.00468038 0.0423138 0.00372023)
(0.00332877 -0.0383496 -0.00143486)
(0.0398813 -0.0126958 -0.00607097)
(0.0811241 0.0222696 -0.011492)
(0.0883588 0.0626897 -0.0090207)
(0.0701838 0.103128 -0.00688251)
(0.0360213 0.150191 -0.000577433)
(0.00886094 0.203225 0.00195126)
(-0.0253854 0.257347 -0.00229541)
(-0.0698115 0.315022 -0.00397573)
(-0.113499 0.36773 -0.00555287)
(-0.159536 0.416161 -0.00510562)
(-0.205921 0.455932 -0.00240071)
(-0.252744 0.490731 0.00188652)
(-0.295049 0.51786 0.00453993)
(-0.33123 0.545733 0.00785358)
(-0.360617 0.570679 0.0140791)
(-0.390899 0.595675 0.0193478)
(-0.423666 0.623189 0.0256457)
(-0.451728 0.638496 0.0283778)
(-0.465546 0.6564 0.030732)
(-0.44108 0.689669 0.0417511)
(-0.367634 0.730144 0.0552905)
(-0.312042 0.68559 0.0540571)
(-0.297733 0.60589 0.0536191)
(-0.288972 0.525883 0.0536159)
(-0.294859 0.465604 0.0537695)
(-0.309207 0.417579 0.0522499)
(-0.318676 0.37507 0.0499757)
(-0.317722 0.332352 0.0441243)
(-0.307527 0.293658 0.0332616)
(-0.297046 0.26159 0.0209933)
(-0.284977 0.234033 0.0112585)
(-0.265168 0.215366 0.000418053)
(-0.234547 0.200405 -0.004385)
(-0.189172 0.186338 -0.00834628)
(-0.138671 0.172635 -0.0125855)
(-0.0899572 0.160503 -0.0146076)
(-0.046679 0.144801 -0.0128119)
(-0.0101124 0.113397 -0.00622543)
(0.00417895 0.043258 0.00315436)
(0.00890562 -0.0305786 -0.000325517)
(0.046106 0.0145075 -0.0172494)
(0.0862696 0.0530567 -0.018536)
(0.0951247 0.0946828 -0.0144714)
(0.0790046 0.140446 -0.00941827)
(0.0500336 0.195378 -0.00126963)
(0.0241438 0.256084 0.00233364)
(-0.00268114 0.308656 0.00153121)
(-0.0398171 0.364855 0.000400378)
(-0.0782769 0.415844 0.000984203)
(-0.117783 0.456856 0.00199377)
(-0.156132 0.491281 0.00655099)
(-0.190541 0.518996 0.0103476)
(-0.222812 0.538854 0.0145385)
(-0.252382 0.550136 0.0197934)
(-0.276085 0.553354 0.0247583)
(-0.292123 0.554555 0.0264323)
(-0.31843 0.561497 0.0211663)
(-0.343688 0.565446 0.0212567)
(-0.342768 0.589863 0.027645)
(-0.322655 0.624663 0.0381614)
(-0.30402 0.635448 0.043713)
(-0.309365 0.592763 0.0420663)
(-0.325236 0.528613 0.0382278)
(-0.324926 0.450975 0.0334673)
(-0.324045 0.38562 0.032028)
(-0.337318 0.342522 0.0326148)
(-0.353155 0.307209 0.0336473)
(-0.358649 0.273175 0.0317323)
(-0.352887 0.23921 0.0214507)
(-0.346689 0.208614 0.0114834)
(-0.333343 0.184454 0.00368315)
(-0.311077 0.17088 -0.00431432)
(-0.278889 0.167065 -0.00806928)
(-0.233084 0.169437 -0.0122454)
(-0.175446 0.169429 -0.0152597)
(-0.111721 0.16394 -0.018331)
(-0.0577193 0.152084 -0.0163421)
(-0.0137994 0.121444 -0.00912431)
(0.003586 0.0455577 0.00251897)
(0.0113784 -0.0147758 -0.00220382)
(0.0529263 0.0429653 -0.0242428)
(0.0940456 0.0900932 -0.0254654)
(0.106318 0.133717 -0.0213744)
(0.0975121 0.183482 -0.0128314)
(0.0772008 0.240537 -0.00719501)
(0.053074 0.300651 0.00352796)
(0.0274018 0.353698 0.00667966)
(0.00134396 0.399268 0.00804179)
(-0.0326548 0.437746 0.00910379)
(-0.0666373 0.472562 0.0128512)
(-0.0957352 0.499601 0.0164842)
(-0.126291 0.515311 0.0189243)
(-0.155024 0.518922 0.0215479)
(-0.181184 0.512947 0.0229853)
(-0.199956 0.501617 0.0230716)
(-0.213195 0.493627 0.0177973)
(-0.237419 0.477794 0.00989547)
(-0.249811 0.488981 0.0162254)
(-0.241965 0.51588 0.0246176)
(-0.246483 0.533333 0.0297374)
(-0.270726 0.529876 0.0313408)
(-0.313631 0.50554 0.0285053)
(-0.35916 0.463324 0.0238556)
(-0.375008 0.403058 0.0189583)
(-0.366844 0.334769 0.0163623)
(-0.368333 0.290603 0.0182313)
(-0.383242 0.259097 0.0206711)
(-0.394141 0.230186 0.0211767)
(-0.393871 0.198359 0.0143288)
(-0.388193 0.168346 0.0029606)
(-0.374778 0.148825 -0.00307124)
(-0.3493 0.135529 -0.00766588)
(-0.312603 0.13494 -0.0133005)
(-0.26239 0.142002 -0.0143863)
(-0.202996 0.157811 -0.0173348)
(-0.133628 0.163186 -0.0195364)
(-0.0679929 0.159005 -0.0192477)
(-0.0169476 0.129672 -0.011559)
(0.00348995 0.0496732 0.00188766)
(0.00842558 0.00483771 -0.00737327)
(0.0520445 0.0809431 -0.0314914)
(0.10227 0.133717 -0.0323196)
(0.122354 0.180233 -0.0251889)
(0.122838 0.228659 -0.0174855)
(0.109321 0.282721 -0.00838963)
(0.0906125 0.335718 -0.00212978)
(0.0668078 0.384333 0.0069109)
(0.0377707 0.420733 0.0174746)
(0.0148221 0.448238 0.0215668)
(-0.00791592 0.470933 0.0242804)
(-0.0368324 0.482025 0.0250843)
(-0.0668645 0.487985 0.024519)
(-0.0963552 0.478371 0.0233133)
(-0.122447 0.460113 0.0198864)
(-0.137691 0.4417 0.0141123)
(-0.156187 0.425068 0.00375722)
(-0.169108 0.417259 0.00691968)
(-0.164414 0.437306 0.0147311)
(-0.174923 0.450562 0.0186881)
(-0.205796 0.452941 0.0220089)
(-0.250637 0.45074 0.022044)
(-0.315087 0.43959 0.0187203)
(-0.383683 0.414696 0.0151631)
(-0.422013 0.377055 0.0127585)
(-0.413872 0.314427 0.0108016)
(-0.396808 0.255532 0.0109401)
(-0.403282 0.220877 0.0122344)
(-0.416424 0.193736 0.0113561)
(-0.422177 0.167514 0.00777287)
(-0.418063 0.137412 0.0135004)
(-0.406183 0.113092 0.0159989)
(-0.384974 0.099678 0.0118279)
(-0.349152 0.0990754 0.004667)
(-0.293552 0.110232 -0.0133815)
(-0.225915 0.130635 -0.0179191)
(-0.14916 0.1562 -0.0200361)
(-0.0761592 0.158897 -0.0189581)
(-0.019702 0.136119 -0.0130034)
(0.00354316 0.0528549 0.00165895)
(0.00584946 0.0198492 -0.0109018)
(0.0528689 0.121573 -0.0374394)
(0.113384 0.182366 -0.037946)
(0.142118 0.228352 -0.0267523)
(0.150871 0.273254 -0.0197846)
(0.144866 0.318562 -0.0100416)
(0.129587 0.363298 -0.00157269)
(0.106677 0.400722 0.005712)
(0.0826494 0.430372 0.0122036)
(0.0600363 0.454405 0.0278825)
(0.0358145 0.463335 0.0345159)
(0.0160547 0.462594 0.0363565)
(-0.0120112 0.451278 0.0284785)
(-0.047471 0.431215 0.0218802)
(-0.0727048 0.411001 0.0128644)
(-0.0890359 0.394958 0.00315239)
(-0.0991383 0.382457 -0.000171535)
(-0.10099 0.391465 0.00689568)
(-0.110798 0.397135 0.0105728)
(-0.1403 0.394187 0.0148122)
(-0.179005 0.393047 0.0179039)
(-0.232282 0.393254 0.0172176)
(-0.308597 0.386253 0.0139115)
(-0.386426 0.369152 0.0123524)
(-0.442122 0.349234 0.0105547)
(-0.45534 0.306941 0.00985472)
(-0.428858 0.235358 0.00964549)
(-0.413946 0.187294 0.00748203)
(-0.421895 0.159375 0.00483802)
(-0.435082 0.131564 0.0195421)
(-0.444114 0.10079 0.0271955)
(-0.436787 0.0729879 0.0285006)
(-0.414401 0.0547357 0.0194985)
(-0.379129 0.0553507 0.0109063)
(-0.32442 0.0692867 0.00196733)
(-0.246902 0.0972478 -0.0171442)
(-0.16319 0.13207 -0.0206026)
(-0.0855962 0.155075 -0.0195863)
(-0.0205126 0.139788 -0.013713)
(0.0031092 0.0562576 0.00128203)
(0.00409322 0.0375777 -0.0138865)
(0.0549069 0.165171 -0.0431574)
(0.125104 0.232117 -0.0424979)
(0.163038 0.274631 -0.0274474)
(0.179034 0.312985 -0.0161676)
(0.177964 0.348747 -0.00905482)
(0.166732 0.382679 -0.00359924)
(0.147104 0.408677 0.00641827)
(0.126734 0.432111 0.0133325)
(0.106413 0.447447 0.0212067)
(0.0826828 0.451134 0.0269578)
(0.0557669 0.44424 0.0356489)
(0.0243856 0.421722 0.0311496)
(-0.00315248 0.397548 0.0201462)
(-0.0233558 0.384715 0.00605935)
(-0.0375925 0.377886 -0.000743322)
(-0.0447068 0.3701 0.00222342)
(-0.0570664 0.368157 0.00543582)
(-0.0823205 0.358164 0.00939108)
(-0.115333 0.351353 0.0137125)
(-0.154251 0.34783 0.0167828)
(-0.210717 0.346669 0.0156087)
(-0.293344 0.336886 0.0126877)
(-0.372286 0.322245 0.012904)
(-0.431576 0.308925 0.0107129)
(-0.470922 0.289436 0.00758639)
(-0.456896 0.236715 0.00789131)
(-0.420073 0.164491 0.0073558)
(-0.417801 0.127257 0.0115889)
(-0.437308 0.0924836 0.0218578)
(-0.451889 0.0603125 0.0323685)
(-0.454647 0.0356808 0.0485711)
(-0.439291 0.0151753 0.0502924)
(-0.408529 0.00547092 0.035093)
(-0.355947 0.019392 0.0237504)
(-0.276644 0.051693 0.00479345)
(-0.177717 0.0966811 -0.0227608)
(-0.0876732 0.138257 -0.0205853)
(-0.0235028 0.138046 -0.0140788)
(0.00319857 0.0578855 0.00068798)
(0.00306277 0.0549639 -0.0171838)
(0.0570365 0.206452 -0.049159)
(0.134966 0.278832 -0.0482146)
(0.181982 0.316951 -0.0289713)
(0.205876 0.344829 -0.0129178)
(0.209631 0.369787 -0.00312477)
(0.199439 0.39394 0.00152103)
(0.183936 0.412647 0.00458535)
(0.169536 0.429269 0.00772916)
(0.14854 0.435304 0.0168845)
(0.123068 0.430285 0.0201263)
(0.0955807 0.417814 0.0245147)
(0.0632737 0.402546 0.0261566)
(0.0421995 0.391979 0.0142828)
(0.0305097 0.388209 0.00320746)
(0.00803395 0.374929 -0.000323761)
(-0.0130035 0.360692 0.00425949)
(-0.0331127 0.341906 0.00641621)
(-0.061071 0.327333 0.00998286)
(-0.092261 0.316528 0.0138413)
(-0.127715 0.308187 0.0169377)
(-0.184928 0.302111 0.0152045)
(-0.269292 0.28723 0.0130144)
(-0.343867 0.27368 0.0136814)
(-0.397527 0.263131 0.0107871)
(-0.444066 0.254899 0.00735078)
(-0.466114 0.234005 0.00762094)
(-0.434271 0.162099 0.0100064)
(-0.407921 0.0983947 0.015133)
(-0.425685 0.0555629 0.027796)
(-0.442962 0.0212901 0.0412395)
(-0.453449 -0.0140615 0.0330889)
(-0.456996 -0.0453416 0.0220406)
(-0.436428 -0.0652819 0.012135)
(-0.388516 -0.0554149 0.00311375)
(-0.30898 -0.0130741 0.003722)
(-0.201588 0.0501472 -0.00202004)
(-0.0975898 0.109365 -0.0285163)
(-0.0227203 0.131903 -0.0135397)
(0.00287506 0.0594957 -0.000334745)
(0.00215159 0.0679049 -0.0196672)
(0.0585724 0.239923 -0.0535845)
(0.142904 0.317142 -0.0535055)
(0.196272 0.350549 -0.0326675)
(0.226475 0.368397 -0.0123721)
(0.236647 0.381483 0.00131915)
(0.232744 0.394706 0.00712257)
(0.221364 0.410886 0.0115276)
(0.206318 0.421786 0.0118589)
(0.183618 0.42204 0.0129492)
(0.159743 0.416476 0.0132295)
(0.137538 0.410675 0.0168994)
(0.116691 0.406605 0.0170953)
(0.100828 0.401295 0.00769214)
(0.0706526 0.388504 -0.00117885)
(0.033344 0.361419 0.00128121)
(0.00623273 0.343442 0.00421443)
(-0.0182864 0.318 0.00815802)
(-0.0421701 0.299635 0.0108172)
(-0.0698135 0.283018 0.0141145)
(-0.10023 0.2687 0.0169576)
(-0.156683 0.255505 0.0146421)
(-0.238964 0.236929 0.0135575)
(-0.305633 0.224022 0.014183)
(-0.35189 0.214295 0.0115783)
(-0.394236 0.2079 0.00976868)
(-0.437642 0.197964 0.0115251)
(-0.43926 0.163746 0.0104125)
(-0.407002 0.075124 0.0182823)
(-0.402393 0.0202574 0.0219369)
(-0.42396 -0.0237177 0.0211202)
(-0.45148 -0.072857 0.0170677)
(-0.464542 -0.116931 0.00980004)
(-0.451732 -0.143288 -0.000894057)
(-0.405657 -0.145487 -0.0107122)
(-0.331082 -0.0982133 -0.0171027)
(-0.22549 -0.0184243 -0.00911737)
(-0.108203 0.0690994 -0.0179404)
(-0.0247095 0.117899 -0.0170361)
(0.00260015 0.0612778 -0.00171288)
(0.000975222 0.0744282 -0.0173551)
(0.0580037 0.263756 -0.0527775)
(0.14661 0.345158 -0.0542618)
(0.206912 0.373905 -0.0334857)
(0.243364 0.382861 -0.01173)
(0.258388 0.384938 0.00390867)
(0.263103 0.389623 0.010554)
(0.258229 0.400567 0.0130028)
(0.243392 0.411535 0.0127114)
(0.223035 0.41913 0.0123805)
(0.207509 0.423708 0.0120577)
(0.193386 0.42442 0.0138392)
(0.166865 0.417906 0.0150459)
(0.134671 0.398251 0.00189362)
(0.0924918 0.36756 -0.0041408)
(0.0528577 0.340193 0.000652899)
(0.0222055 0.317391 0.00333415)
(-0.00496824 0.294577 0.00933869)
(-0.0250655 0.269711 0.0113904)
(-0.0486387 0.24729 0.0139267)
(-0.0744881 0.226244 0.0157903)
(-0.128721 0.204422 0.0132012)
(-0.205364 0.186015 0.013478)
(-0.263724 0.17528 0.0141498)
(-0.303257 0.166577 0.011667)
(-0.341879 0.159898 0.0111479)
(-0.383211 0.150883 0.00533731)
(-0.421938 0.141159 0.00258396)
(-0.40939 0.083517 0.00856959)
(-0.380229 -0.00135683 0.00730259)
(-0.397893 -0.0630651 0.00929632)
(-0.428509 -0.119513 0.00878683)
(-0.449793 -0.169626 0.00262442)
(-0.452004 -0.209409 -0.00860107)
(-0.415444 -0.225322 -0.018959)
(-0.344781 -0.197674 -0.0342709)
(-0.24762 -0.109934 -0.0306156)
(-0.126056 0.0118313 -0.00399731)
(-0.0271817 0.0900875 -0.0251806)
(0.00361472 0.061505 -0.00370021)
(4.38888e-05 0.0856581 -0.0135394)
(0.0557747 0.283996 -0.0501996)
(0.145878 0.368441 -0.0530812)
(0.211494 0.393338 -0.0333135)
(0.253922 0.393358 -0.0108138)
(0.277098 0.386459 0.00497855)
(0.292144 0.383731 0.00975235)
(0.297028 0.395973 0.0113788)
(0.291455 0.41382 0.0105551)
(0.277056 0.4284 0.0101674)
(0.260022 0.434824 0.0106589)
(0.236386 0.426824 0.0121351)
(0.198372 0.403639 0.0141989)
(0.154616 0.375981 0.00544388)
(0.108084 0.341728 -0.0048298)
(0.0686728 0.316448 -0.00150544)
(0.0385302 0.288467 0.00239394)
(0.00930224 0.267225 0.00789382)
(-0.0121006 0.237501 0.0117464)
(-0.0311137 0.209549 0.0132351)
(-0.0552748 0.181535 0.0138875)
(-0.103385 0.154396 0.012215)
(-0.169023 0.139312 0.0135966)
(-0.220167 0.130988 0.0145665)
(-0.25566 0.124275 0.0117054)
(-0.290241 0.117128 0.0094134)
(-0.326848 0.109361 0.000265018)
(-0.365684 0.0961748 0.000193821)
(-0.396489 0.0774098 -0.000778209)
(-0.384737 -0.00112731 -0.000889266)
(-0.37284 -0.0777848 0.000815124)
(-0.396019 -0.145349 0.00380647)
(-0.421722 -0.207361 0.000834155)
(-0.435098 -0.260326 -0.00825972)
(-0.415044 -0.290602 -0.0210436)
(-0.354721 -0.282398 -0.0373745)
(-0.256266 -0.211148 -0.0490997)
(-0.142227 -0.0689446 -0.0328867)
(-0.0348278 0.0516473 -0.0194332)
(0.00861499 0.0592722 -0.00655027)
(-0.0055697 0.0947898 -0.0177089)
(0.0455462 0.300485 -0.0505855)
(0.138847 0.390786 -0.0541795)
(0.210295 0.415217 -0.0353184)
(0.260218 0.41016 -0.0121186)
(0.291968 0.397739 0.0013322)
(0.32479 0.391221 0.00715795)
(0.347577 0.409267 0.00833565)
(0.344967 0.426368 0.00844657)
(0.325475 0.434066 0.00936218)
(0.29914 0.430088 0.00967754)
(0.263389 0.410269 0.0102735)
(0.219193 0.379638 0.0108767)
(0.171958 0.347096 0.010072)
(0.124601 0.315945 0.00152245)
(0.0835745 0.291603 -0.00501582)
(0.0522712 0.262226 0.000572496)
(0.0228669 0.236592 0.00522385)
(-0.00125197 0.208024 0.0111168)
(-0.0192674 0.175587 0.0125354)
(-0.0406529 0.145178 0.0127988)
(-0.0786713 0.118376 0.0117272)
(-0.133216 0.105308 0.0135219)
(-0.179209 0.0972707 0.0154236)
(-0.212198 0.0908528 0.0133212)
(-0.244587 0.0837079 0.00744025)
(-0.282051 0.0726386 0.00281162)
(-0.318748 0.0601623 0.00551269)
(-0.356027 0.0429929 0.00401261)
(-0.367112 0.00332039 0.000940548)
(-0.358402 -0.0885093 -0.00668239)
(-0.367549 -0.154155 -0.00157065)
(-0.386472 -0.224477 -0.00109323)
(-0.402778 -0.293191 -0.00827496)
(-0.395921 -0.349019 -0.0228398)
(-0.356576 -0.364906 -0.0431051)
(-0.273219 -0.313277 -0.0587442)
(-0.161119 -0.164738 -0.0478045)
(-0.0388626 0.0025616 -0.00794431)
(0.0122606 0.0545277 -0.0106591)
(-0.00821247 0.151509 -0.0203384)
(0.0391839 0.362938 -0.0465332)
(0.132076 0.459235 -0.0511967)
(0.207027 0.483272 -0.0344263)
(0.264329 0.47248 -0.0117939)
(0.308671 0.451593 -0.000839047)
(0.362994 0.436985 0.00596998)
(0.396258 0.443425 0.00751141)
(0.387455 0.446187 0.00835111)
(0.36168 0.438958 0.00948319)
(0.326968 0.421718 0.00986382)
(0.283533 0.393822 0.00915512)
(0.234459 0.360998 0.00869662)
(0.186742 0.326258 0.00846384)
(0.142192 0.294557 0.00705811)
(0.0988162 0.268751 -2.67728e-05)
(0.0644267 0.243057 -0.00347587)
(0.03607 0.213267 0.00243763)
(0.00964326 0.186195 0.00805379)
(-0.00929484 0.153447 0.0117381)
(-0.0264715 0.123383 0.0117815)
(-0.0561931 0.0971544 0.0109629)
(-0.101645 0.0829464 0.0125969)
(-0.143659 0.0748851 0.0155837)
(-0.174146 0.0670944 0.0149626)
(-0.207094 0.0565944 0.00522763)
(-0.239819 0.0461544 0.00682189)
(-0.271737 0.0376046 0.00754457)
(-0.312544 0.0208483 0.00686563)
(-0.354824 -0.00282449 0.00553822)
(-0.345979 -0.0692751 0.00447633)
(-0.329498 -0.17146 -0.00980134)
(-0.353999 -0.25563 -0.0122522)
(-0.378586 -0.339571 -0.0168273)
(-0.381402 -0.418553 -0.0266114)
(-0.348819 -0.464643 -0.0444907)
(-0.266515 -0.435353 -0.0669754)
(-0.169646 -0.287457 -0.0717996)
(-0.0487284 -0.0727646 -0.0335533)
(0.0147803 0.0392344 -0.00825312)
(-0.0132311 0.274457 -0.0229838)
(0.0278235 0.489661 -0.0432168)
(0.118541 0.591316 -0.0489403)
(0.194537 0.61935 -0.0341491)
(0.257643 0.608636 -0.013177)
(0.31157 0.581876 -0.00306784)
(0.380982 0.547055 0.00586715)
(0.424583 0.512568 0.00728768)
(0.413252 0.486077 0.00771966)
(0.381067 0.457141 0.00891706)
(0.342063 0.423664 0.00930445)
(0.296784 0.387467 0.00860106)
(0.247628 0.350756 0.00769278)
(0.199048 0.316043 0.0064651)
(0.155791 0.283424 0.00628872)
(0.116315 0.253848 0.00578703)
(0.0787329 0.229027 -0.000280247)
(0.0475964 0.201071 -0.00154492)
(0.0208213 0.172738 0.00411879)
(-0.000222054 0.142869 0.00934672)
(-0.0156073 0.11094 0.0106109)
(-0.038264 0.0836261 0.010365)
(-0.074429 0.0660726 0.0114894)
(-0.112519 0.0578943 0.0141034)
(-0.144756 0.0501116 0.0127223)
(-0.174403 0.0374538 0.0101498)
(-0.201639 0.0288098 0.0104522)
(-0.232551 0.0159779 0.0105116)
(-0.267957 0.000821077 0.0110068)
(-0.306922 -0.0157483 0.00891344)
(-0.350097 -0.0441532 0.00441183)
(-0.350029 -0.14331 0.00427877)
(-0.333055 -0.265077 -0.00624047)
(-0.350346 -0.375535 -0.0140906)
(-0.359785 -0.474695 -0.023802)
(-0.338207 -0.549097 -0.0388189)
(-0.259515 -0.555574 -0.0621809)
(-0.16296 -0.436398 -0.0735449)
(-0.045627 -0.166385 -0.0522837)
(0.0173709 0.0209654 -0.00883711)
(-0.013606 0.312431 -0.0176619)
(0.0223792 0.542735 -0.0427728)
(0.109234 0.657431 -0.0509487)
(0.188276 0.699284 -0.040327)
(0.255012 0.69636 -0.0232352)
(0.305029 0.671544 -0.0143218)
(0.361928 0.631506 -0.00364738)
(0.405801 0.56977 -8.52056e-05)
(0.405682 0.518311 0.00209588)
(0.378313 0.472604 0.00504116)
(0.342805 0.427669 0.00696736)
(0.30148 0.384295 0.00773956)
(0.256139 0.343722 0.00748546)
(0.211205 0.307463 0.00624789)
(0.168289 0.274924 0.00555898)
(0.129139 0.24428 0.00542411)
(0.0940604 0.215598 0.00584612)
(0.0609817 0.188513 0.000788387)
(0.031533 0.160848 0.000784003)
(0.00746746 0.13389 0.00572146)
(-0.00889602 0.102334 0.00937619)
(-0.0256247 0.0734228 0.00994618)
(-0.0523777 0.0519642 0.0109866)
(-0.0837058 0.0413782 0.0122711)
(-0.1161 0.0328227 0.0105106)
(-0.145279 0.0243206 0.0117875)
(-0.170887 0.013636 0.012541)
(-0.198364 0.00131435 0.0138037)
(-0.227006 -0.0112947 0.0146035)
(-0.260741 -0.0288981 0.0123592)
(-0.307088 -0.0536849 0.00784033)
(-0.351694 -0.0943059 0.00434326)
(-0.358609 -0.195801 0.00339021)
(-0.349821 -0.316819 -0.00227537)
(-0.348227 -0.44343 -0.0111078)
(-0.330709 -0.559007 -0.0249383)
(-0.26009 -0.618766 -0.0466663)
(-0.145487 -0.551238 -0.0629041)
(-0.0258693 -0.290062 -0.0647215)
(0.0207241 -0.000838674 0.0014256)
(0.000731056 0.291902 0.00083135)
(0.0381329 0.516227 -0.0311071)
(0.111185 0.638271 -0.0410701)
(0.187962 0.689378 -0.0349536)
(0.254317 0.690155 -0.0200039)
(0.30529 0.6658 -0.0124634)
(0.350417 0.630095 -0.00386882)
(0.3846 0.57591 -0.00167025)
(0.390482 0.517411 -0.00127822)
(0.368405 0.467526 0.000990352)
(0.336844 0.419 0.00394009)
(0.30071 0.372304 0.00639422)
(0.261244 0.329295 0.00786918)
(0.220462 0.29159 0.00808063)
(0.180556 0.257481 0.00768587)
(0.142069 0.225872 0.00703653)
(0.105587 0.193417 0.00639469)
(0.0733916 0.163699 0.00610414)
(0.044541 0.138721 0.00478128)
(0.017105 0.116867 0.00385573)
(-0.00265261 0.0919458 0.00800011)
(-0.0170258 0.063321 0.00986783)
(-0.0356189 0.0409049 0.0110276)
(-0.0602294 0.0258285 0.0112694)
(-0.088275 0.0147659 0.0121211)
(-0.116135 0.00762271 0.0128048)
(-0.140847 5.66389e-05 0.0144845)
(-0.16397 -0.00874834 0.0155893)
(-0.190217 -0.0204096 0.0163091)
(-0.220579 -0.0384587 0.0158415)
(-0.259059 -0.0641988 0.0122495)
(-0.301634 -0.0970537 0.00817479)
(-0.328566 -0.145201 0.00355596)
(-0.34527 -0.2325 -0.000473971)
(-0.358728 -0.351098 -0.00350991)
(-0.354229 -0.4843 -0.0110934)
(-0.294072 -0.583915 -0.0256694)
(-0.18212 -0.573871 -0.0459131)
(-0.0267911 -0.354854 -0.0522991)
(0.0408925 0.00732987 -0.0165229)
(0.0040251 0.287424 0.00386005)
(0.0402717 0.488081 -0.0241646)
(0.10853 0.609838 -0.0329035)
(0.183566 0.664812 -0.0291214)
(0.249403 0.669463 -0.0140646)
(0.301663 0.644483 -0.00738735)
(0.344246 0.606108 -6.61667e-05)
(0.368396 0.559188 0.00104412)
(0.372548 0.502031 -0.000506045)
(0.35698 0.448251 -0.000430814)
(0.32844 0.398296 0.00172882)
(0.296805 0.349688 0.0048885)
(0.263353 0.304255 0.00806813)
(0.22801 0.264074 0.0103312)
(0.190016 0.227148 0.0114934)
(0.150353 0.188237 0.0118536)
(0.114691 0.150509 0.0122874)
(0.0864637 0.122814 0.0122246)
(0.0619994 0.103789 0.0106712)
(0.0349381 0.0887159 0.00910582)
(0.00904045 0.0747316 0.00748215)
(-0.00717288 0.0532214 0.0106932)
(-0.021307 0.0321037 0.0113683)
(-0.0409715 0.0150397 0.0118885)
(-0.0637867 0.00171077 0.012706)
(-0.0862279 -0.00668151 0.0143858)
(-0.108114 -0.012294 0.015273)
(-0.131231 -0.0194311 0.0161452)
(-0.156218 -0.0307726 0.0171271)
(-0.184867 -0.0480017 0.0179908)
(-0.218888 -0.0733485 0.01807)
(-0.250526 -0.107506 0.0172724)
(-0.270786 -0.149671 0.0127691)
(-0.295289 -0.218237 0.00894165)
(-0.32881 -0.317171 0.0066784)
(-0.350281 -0.442148 0.000414629)
(-0.323804 -0.550172 -0.0137677)
(-0.230408 -0.57225 -0.0329502)
(-0.0646121 -0.370847 -0.0452504)
(0.0296211 0.0272411 -0.012919)
(0.00757563 0.26272 0.00540387)
(0.0435734 0.446261 -0.0183817)
(0.106328 0.569637 -0.0268156)
(0.17919 0.629518 -0.0251397)
(0.243541 0.640373 -0.0125225)
(0.294962 0.617747 -0.00501272)
(0.337106 0.578314 0.00176284)
(0.357288 0.531714 0.00373643)
(0.355959 0.479817 0.00174749)
(0.341288 0.425724 8.84293e-05)
(0.317282 0.373775 0.00068919)
(0.289091 0.323155 0.00341521)
(0.261022 0.273909 0.00746492)
(0.230234 0.228206 0.0113353)
(0.191421 0.184621 0.0143266)
(0.150724 0.14035 0.0181458)
(0.123279 0.103437 0.0209)
(0.107025 0.081991 0.020053)
(0.0876186 0.0695541 0.0171694)
(0.0619753 0.0586225 0.0151726)
(0.0328821 0.0504683 0.013299)
(0.00926717 0.0403933 0.0108774)
(-0.00594443 0.0237654 0.0124021)
(-0.0227543 0.00497675 0.0120143)
(-0.040956 -0.00806797 0.0123037)
(-0.0585252 -0.0180726 0.0134962)
(-0.0775825 -0.0267127 0.0147495)