/*--------------------------------*- C++ -*----------------------------------*\
| =========                 |                                                 |
| \\      /  F ield         | OpenFOAM: The Open Source CFD Toolbox           |
|  \\    /   O peration     | Version:  v1806                                 |
|   \\  /    A nd           | Web:      www.OpenFOAM.com                      |
|    \\/     M anipulation  |                                                 |
\*---------------------------------------------------------------------------*/
FoamFile
{
    version     2.0;
    format      ascii;
    class       surfaceScalarField;
    location    "0.0635";
    object      phi;
}
// * * * * * * * * * * * * * * * * * * * * * * * * * * * * * * * * * * * * * //

dimensions      [0 3 -1 0 0 0 0];
oriented        oriented;


internalField   nonuniform List<scalar> 
187200
(
7.04179e-06
2.14761e-06
-9.19065e-06
4.58403e-05
-1.86485e-05
-2.01499e-05
6.73951e-05
-9.24165e-06
-1.2313e-05
8.71845e-05
-9.6455e-06
-1.01438e-05
0.000103807
-6.30314e-06
-1.03197e-05
0.000121227
-5.12262e-06
-1.22977e-05
0.000136517
-7.98038e-07
-1.4491e-05
0.00015275
5.44508e-07
-1.67773e-05
0.000166084
4.7039e-06
-1.80378e-05
0.00017771
6.02568e-06
-1.76512e-05
0.000188852
7.72669e-06
-1.88694e-05
0.00019463
1.33263e-05
-1.91044e-05
0.000184821
2.15978e-05
-1.17886e-05
0.000154996
3.70337e-05
-7.20903e-06
0.000109429
4.38863e-05
1.68011e-06
6.84372e-05
2.96655e-05
1.13261e-05
1.27993e-05
3.15604e-05
2.40772e-05
-4.20812e-05
4.73913e-05
7.48882e-06
-0.000141376
9.99743e-05
-6.80201e-07
-0.000267689
0.000133848
-7.53434e-06
-0.000504183
0.000218863
1.76299e-05
-0.000682224
0.000232199
-5.41573e-05
-0.000799688
0.000278166
-0.000160703
-0.000838766
0.000306792
-0.000267713
-0.000818525
0.000338193
-0.000358434
-0.000748616
0.000367829
-0.000437739
-0.000637506
0.000391388
-0.000502499
-0.000502273
0.000408243
-0.000543475
-0.000335038
0.00039734
-0.000564575
-0.000174136
0.000383834
-0.000544735
-4.30181e-05
0.000340075
-0.000471193
3.94972e-05
0.000298662
-0.000381177
7.05542e-05
0.000234193
-0.00026525
6.23139e-05
0.000174567
-0.000166327
3.65726e-05
0.000120869
-9.51281e-05
1.466e-05
8.07767e-05
-5.88644e-05
1.01562e-06
5.53391e-05
-4.16949e-05
-5.10252e-06
4.28288e-05
-3.67105e-05
-6.84406e-06
3.28532e-05
-3.11116e-05
2.25899e-05
-2.94339e-05
5.7106e-06
1.26415e-05
-1.62044e-05
4.45059e-05
-2.95179e-05
-2.79256e-05
8.50145e-05
-2.41229e-05
-2.56273e-05
0.000115855
-1.49235e-05
-2.55621e-05
0.000137333
-2.80024e-06
-2.49813e-05
0.000154237
7.38212e-06
-2.94081e-05
0.000161559
2.74397e-05
-3.55596e-05
0.000164803
3.88716e-05
-4.15707e-05
0.000158008
6.33033e-05
-5.18041e-05
0.000140105
8.2874e-05
-5.89462e-05
9.77666e-05
0.000125166
-7.5101e-05
3.51573e-05
0.000167015
-9.10797e-05
-4.94349e-05
0.000203937
-9.7747e-05
-0.000150131
0.000245697
-0.000107967
-0.000275134
0.000300091
-0.000131202
-0.000459426
0.000376864
-0.000162907
-0.000641459
0.000452695
-0.000239102
-0.000834083
0.000537276
-0.000297261
-0.00100335
0.000636652
-0.000367407
-0.00115697
0.000732106
-0.000444644
-0.00129957
0.000856971
-0.000495504
-0.00139295
0.000932935
-0.000607358
-0.00143997
0.0010382
-0.000713013
-0.00142456
0.00108804
-0.000796654
-0.00133876
0.00113314
-0.000880744
-0.00119414
0.00115953
-0.000936326
-0.00100063
0.00116432
-0.000966451
-0.000773266
0.0011434
-0.000962524
-0.000537662
0.00108261
-0.000920876
-0.000312061
0.00100552
-0.00084729
-0.000119769
0.000875755
-0.000727973
3.93309e-05
0.000735671
-0.000596109
0.000121904
0.000583468
-0.000431847
0.000147163
0.000456147
-0.000306839
0.00013304
0.00033652
-0.000201528
0.000102771
0.000249309
-0.000138263
6.97792e-05
0.000186769
-9.8438e-05
4.35766e-05
0.00014647
-7.74386e-05
1.71341e-05
0.0001168
-5.75042e-05
8.03621e-05
-4.06382e-05
1.91176e-05
5.69712e-06
-1.21731e-05
5.69748e-05
-3.40599e-05
-3.33149e-05
9.7692e-05
-2.51282e-05
-3.97118e-05
0.00012656
-2.82659e-06
-4.09648e-05
0.000142611
2.8575e-05
-4.74261e-05
0.000147933
5.86172e-05
-5.6557e-05
0.000139797
0.000101185
-6.56091e-05
0.000123253
0.000138481
-8.30654e-05
9.41462e-05
0.000200991
-0.00010858
3.72194e-05
0.000268944
-0.000129143
-4.68823e-05
0.000351895
-0.000142628
-0.000148724
0.000433221
-0.000164365
-0.00030357
0.000537909
-0.000179126
-0.00048339
0.000646523
-0.000221007
-0.000685898
0.000755815
-0.000253216
-0.000872283
0.000867467
-0.000304219
-0.00103684
0.000974382
-0.000357135
-0.00118556
0.00109713
-0.000411128
-0.00132106
0.00123534
-0.000463187
-0.00144658
0.00137581
-0.000518187
-0.00155933
0.00151246
-0.000542749
-0.00162285
0.00159427
-0.000597811
-0.00163377
0.00170065
-0.000651533
-0.00159594
0.00172906
-0.000678852
-0.00149956
0.00175101
-0.000714243
-0.00135929
0.0017428
-0.000723544
-0.00118293
0.00170128
-0.000713319
-0.000982232
0.0016242
-0.000681494
-0.000771661
0.00150632
-0.000634275
-0.000552009
0.00135954
-0.00057367
-0.000368638
0.00118597
-0.000493587
-0.000208782
0.001004
-0.000428181
-9.28108e-05
0.000805301
-0.000337804
-1.07434e-05
0.000643469
-0.000269389
2.84062e-05
0.000495351
-0.00019798
4.30271e-05
0.000386624
-0.000151935
4.3543e-05
0.000307043
-0.00012079
3.42891e-05
0.000255157
-9.94334e-05
1.56036e-05
0.000205823
-7.03373e-05
0.000136538
-4.05719e-05
2.02595e-05
2.73567e-06
-1.72978e-05
5.83376e-05
-2.6056e-05
-4.60819e-05
9.84291e-05
-6.8697e-06
-5.83497e-05
0.000121363
3.96898e-05
-6.54506e-05
0.000125446
9.66549e-05
-7.21623e-05
0.000114055
0.000155455
-8.54464e-05
9.31704e-05
0.000232813
-0.000110745
5.49886e-05
0.000312828
-0.000136165
-2.49668e-07
0.000424597
-0.000168369
-8.08148e-05
0.000537148
-0.000187639
-0.000195873
0.000669819
-0.000202867
-0.000345335
0.00080133
-0.000218648
-0.000508851
0.000932373
-0.000230948
-0.000666102
0.00105055
-0.000246779
-0.000819105
0.00117739
-0.000268576
-0.000962484
0.00130504
-0.000294195
-0.0010965
0.00142824
-0.000319843
-0.00121552
0.00155068
-0.00033453
-0.00132172
0.00168286
-0.000341326
-0.00141871
0.00180697
-0.000334172
-0.00151925
0.00190613
-0.000293127
-0.00157796
0.00194466
-0.000291683
-0.00158758
0.00200655
-0.000296276
-0.00156108
0.00198284
-0.000280281
-0.00148639
0.00195763
-0.000281302
-0.00138352
0.00190605
-0.000266118
-0.0012572
0.00182307
-0.000248099
-0.00111574
0.00171098
-0.000228245
-0.000962477
0.00156178
-0.000208729
-0.00079712
0.0013981
-0.000203912
-0.000620159
0.00121223
-0.000203217
-0.000447136
0.00103103
-0.000200056
-0.000295481
0.000850151
-0.000196505
-0.000172112
0.000708201
-0.000188101
-8.73171e-05
0.000578651
-0.000168095
-2.89309e-05
0.00047666
-0.000148422
7.3103e-06
0.000403998
-0.000133195
2.06759e-05
0.00035045
-0.000108658
1.69152e-05
0.000286599
-7.70151e-05
0.000191275
-3.78221e-05
2.04409e-05
1.83255e-05
-3.60307e-05
5.98849e-05
1.08308e-05
-7.63309e-05
0.00010202
4.17987e-05
-9.08039e-05
0.000120341
0.000120379
-9.90096e-05
0.000117062
0.000204841
-0.000104907
8.83581e-05
0.000304128
-0.00011997
5.00899e-05
0.000421804
-0.000150723
1.14605e-05
0.000534926
-0.000183469
-3.63818e-05
0.000681024
-0.000208585
-0.000115344
0.000832526
-0.000216416
-0.000214207
0.000985787
-0.000217105
-0.000324562
0.0011248
-0.000213118
-0.000455575
0.00126714
-0.000203754
-0.000596533
0.00139493
-0.000203418
-0.000735588
0.00151377
-0.000197322
-0.000857031
0.00161782
-0.000191336
-0.000959691
0.00170561
-0.000174701
-0.00104058
0.0017747
-0.000143124
-0.00113069
0.00185646
-8.34935e-05
-0.00121943
0.00192264
-2.69436e-05
-0.00133793
0.00196574
5.89008e-05
-0.00140301
0.00191867
9.10676e-05
-0.00143029
0.00193281
0.000101025
-0.00143535
0.00187755
0.00011035
-0.0014052
0.00183206
9.54264e-05
-0.00135931
0.00177212
8.80343e-05
-0.00129527
0.00168356
7.5465e-05
-0.0012251
0.00157983
6.09743e-05
-0.00113075
0.00144523
2.22052e-05
-0.00101233
0.00130237
-2.26851e-05
-0.000867629
0.00114049
-7.29724e-05
-0.000704136
0.000991004
-0.000123468
-0.000541302
0.000839469
-0.000152152
-0.000383645
0.000722344
-0.0001718
-0.000248102
0.000623059
-0.000179951
-0.000136271
0.000529502
-0.000164673
-5.54415e-05
0.000469912
-0.000146743
-5.45274e-06
0.000421818
-0.000121357
9.28844e-06
0.000352955
-8.10973e-05
0.000234703
-3.41397e-05
1.54268e-05
6.46021e-05
-6.17035e-05
6.02555e-05
7.9862e-05
-0.00011386
0.000108914
0.000132764
-0.000139624
0.000128221
0.00023821
-0.000137139
0.000122302
0.000351406
-0.000140646
8.40779e-05
0.000491525
-0.000149173
5.99786e-05
0.000633259
-0.000187356
2.20154e-05
0.000786614
-0.000213726
-2.71094e-05
0.000952727
-0.000222578
-9.243e-05
0.00110606
-0.000208212
-0.000166135
0.00124942
-0.000189932
-0.000251712
0.00137746
-0.000167079
-0.000340008
0.00149527
-0.000139832
-0.000424528
0.0015897
-0.000110247
-0.000505767
0.00167262
-7.76089e-05
-0.00057894
0.00172893
-3.79328e-05
-0.000676309
0.00177054
3.24313e-05
-0.00077945
0.00178536
9.24756e-05
-0.000874217
0.00178784
0.000163392
-0.000960674
0.0017718
0.000237304
-0.0010833
0.00179391
0.000294458
-0.00117795
0.00170083
0.000312485
-0.00124022
0.00168403
0.000311044
-0.00128994
0.00161534
0.000311931
-0.00131188
0.00156083
0.000293164
-0.00132258
0.00150529
0.000277523
-0.00131967
0.00143392
0.000246739
-0.00130733
0.00135712
0.000210381
-0.00127144
0.00125765
0.000151683
-0.00118947
0.00115654
6.38652e-05
-0.00107756
0.00103924
-1.06543e-05
-0.000919757
0.000926432
-9.32307e-05
-0.000745024
0.000815922
-0.000151186
-0.000557409
0.000719897
-0.000185167
-0.000381195
0.000650166
-0.000203321
-0.00023203
0.000569715
-0.000189378
-0.000110885
0.000520115
-0.000171349
-3.16939e-05
0.000477821
-0.000135194
5.6228e-06
0.00040387
-8.82316e-05
0.000273144
-3.28187e-05
1.74711e-05
0.000142725
-9.55938e-05
8.50733e-05
0.000182071
-0.000169811
0.000133813
0.000267792
-0.000183767
0.0001544
0.000390428
-0.000172804
0.000145752
0.000525029
-0.000164975
0.000109169
0.000698747
-0.00017064
9.67186e-05
0.000848471
-0.000202763
7.46704e-05
0.00102082
-0.000212157
5.3705e-05
0.00117015
-0.000196455
9.4815e-06
0.00131352
-0.00016324
-4.87881e-05
0.00143715
-0.000129461
-0.000117765
0.00153911
-9.26725e-05
-0.00018857
0.001621
-5.4934e-05
-0.00026185
0.00167232
-9.34299e-06
-0.000331851
0.00169967
4.29439e-05
-0.000395821
0.00169884
9.40569e-05
-0.000459027
0.00168067
0.000153081
-0.000529889
0.00163773
0.0002185
-0.000632502
0.00159798
0.000292473
-0.0007378
0.00152466
0.000352432
-0.000858956
0.00151404
0.000401019
-0.000991755
0.00141039
0.000423238
-0.00106636
0.00135433
0.000404302
-0.001161
0.00131763
0.000392349
-0.00122989
0.00127378
0.000355943
-0.00129338
0.00124382
0.000324967
-0.00134246
0.00120264
0.000280349
-0.00137632
0.00115981
0.00023117
-0.00138712
0.00110316
0.000165285
-0.00134042
0.00104229
6.75439e-05
-0.00125672
0.000962814
-7.27108e-06
-0.00112207
0.000878088
-8.63106e-05
-0.000941343
0.000794271
-0.000159073
-0.000727516
0.000705278
-0.000199207
-0.000499748
0.00066083
-0.000238432
-0.000319362
0.000613003
-0.000223675
-0.000160393
0.000563865
-0.000202719
-5.49584e-05
0.000529889
-0.000157503
4.52378e-07
0.000451149
-0.000102689
0.00030965
-3.60543e-05
2.83706e-05
0.000240711
-0.000126356
0.000115546
0.000310883
-0.000215987
0.000181639
0.000428104
-0.000226405
0.000209058
0.000562311
-0.000199302
0.000194932
0.000716992
-0.000177838
0.000185297
0.000888719
-0.000180337
0.000189203
0.00104069
-0.000196124
0.000184176
0.00121046
-0.000184619
0.000162299
0.00134321
-0.000151188
0.000121419
0.00146158
-0.000107175
7.24485e-05
0.00155495
-6.88268e-05
1.54988e-05
0.00161741
-2.13563e-05
-4.72713e-05
0.00165124
3.25361e-05
-0.000111466
0.00164985
8.66626e-05
-0.00017456
0.001624
0.000138768
-0.000240166
0.0015708
0.000193646
-0.000306228
0.00150203
0.000244697
-0.000379162
0.00142243
0.000288232
-0.000469651
0.00134973
0.000338737
-0.000577029
0.00125889
0.000373146
-0.000684468
0.00121718
0.000404299
-0.000842588
0.00115843
0.000410087
-0.000946067
0.0010692
0.000388613
-0.00107386
0.00107799
0.000367432
-0.0011812
0.0010474
0.00033372
-0.00127743
0.00104103
0.000299023
-0.00135992
0.00102565
0.00025949
-0.00142679
0.0010053
0.000221379
-0.00146546
0.000979789
0.000162049
-0.00145335
0.000937599
9.25807e-05
-0.00139482
0.000883044
2.12403e-05
-0.00128039
0.000814898
-5.12345e-05
-0.00109781
0.000750665
-0.000138981
-0.00088778
0.000688773
-0.000193524
-0.000639834
0.000646315
-0.000233431
-0.000412234
0.000639959
-0.000254558
-0.00021599
0.000593929
-0.000226309
-7.96288e-05
0.000574131
-0.000180603
-6.26836e-06
0.000493044
-0.000115255
0.000343792
-4.04094e-05
4.7328e-05
0.000348834
-0.000155451
0.000155445
0.000462472
-0.000259705
0.000249547
0.00060095
-0.000266948
0.000291433
0.000741571
-0.000221147
0.000287633
0.000905272
-0.000184479
0.000285027
0.00106316
-0.000171832
0.000278053
0.00121069
-0.000163028
0.000283067
0.00134926
-0.00014381
0.000274464
0.00145811
-0.000106301
0.000241412
0.00155039
-5.57626e-05
0.00019711
0.00160161
-2.3534e-06
0.00014232
0.00162042
5.1785e-05
7.55273e-05
0.00161246
0.00010557
7.67074e-06
0.00156581
0.0001519
-6.02629e-05
0.00149539
0.000196543
-0.000132192
0.00140486
0.000237871
-0.000207435
0.00130693
0.000270348
-0.000283861
0.00120658
0.000292272
-0.000371355
0.00112341
0.000313808
-0.000480395
0.0010372
0.000330731
-0.000586537
0.000980987
0.000342339
-0.000739335
0.000966539
0.000344685
-0.000882641
0.000882233
0.000330269
-0.00101918
0.00090665
0.000307872
-0.00115036
0.000891004
0.000287577
-0.00126355
0.000897547
0.000256675
-0.0013691
0.000893129
0.000238069
-0.001458
0.000890397
0.000203796
-0.00152539
0.000872
0.000175174
-0.00154936
0.000838332
0.000123238
-0.00151292
0.000789514
5.70964e-05
-0.00141105
0.000736652
-2.36275e-05
-0.00123517
0.000678992
-0.000104204
-0.00100927
0.000635225
-0.00017235
-0.000745371
0.000604208
-0.000221797
-0.000490601
0.00063257
-0.000247381
-0.000269168
0.000617364
-0.000244869
-0.000102095
0.000605434
-0.000198376
-1.47134e-05
0.000535285
-0.000129622
0.000376371
-4.72921e-05
6.54719e-05
0.000452547
-0.000169185
0.000199561
0.000618415
-0.000290032
0.000319283
0.000773815
-0.000292587
0.000375826
0.000916515
-0.000231486
0.000389561
0.00106701
-0.000175474
0.000385046
0.00120602
-0.000138354
0.000377119
0.0013392
-0.000120582
0.000372355
0.00144833
-9.43089e-05
0.000362829
0.00152535
-5.77127e-05
0.000345334
0.00157314
-5.25442e-06
0.000306488
0.00159708
4.33704e-05
0.000236048
0.00158433
0.000106532
0.000167007
0.0015294
0.000152104
9.30525e-05
0.00144659
0.000193178
1.66327e-05
0.00134672
0.000225089
-6.36565e-05
0.00123586
0.000249287
-0.000145521
0.00112668
0.000262107
-0.000228768
0.00102536
0.000264472
-0.000323104
0.000950906
0.000266845
-0.000434078
0.000883309
0.000264866
-0.000555301
0.000833644
0.000268566
-0.000684821
0.000825588
0.000270471
-0.000847546
0.000773671
0.000271286
-0.000977335
0.000777655
0.000258785
-0.00111476
0.00077367
0.000254755
-0.00123119
0.00078317
0.000230814
-0.00134873
0.000782023
0.000228647
-0.00145819
0.000781205
0.000218651
-0.00154538
0.000757277
0.000201909
-0.00159471
0.000727141
0.000160526
-0.00158523
0.000689738
9.02919e-05
-0.00150412
0.000649829
5.71524e-06
-0.00134958
0.000609343
-8.48911e-05
-0.00112457
0.000574645
-0.000164438
-0.000859123
0.000542424
-0.000203659
-0.000568569
0.000573503
-0.000231486
-0.000319489
0.000612962
-0.000244678
-0.000127026
0.000618791
-0.00020582
-2.26624e-05
0.000567359
-0.000136439
0.000405195
-5.14858e-05
7.99766e-05
0.000548921
-0.00017635
0.000242753
0.000766408
-0.000310769
0.000388274
0.000937175
-0.000308882
0.000463722
0.00107369
-0.000232627
0.000493113
0.00120166
-0.00016404
0.000488595
0.0013176
-0.000107053
0.000479236
0.00142489
-7.63291e-05
0.000462864
0.0015042
-3.94949e-05
0.00043513
0.00155689
-3.79862e-06
0.000400602
0.00157758
3.00866e-05
0.000365928
0.00155455
7.72081e-05
0.000310044
0.00150487
0.000135338
0.00023396
0.00142946
0.00017602
0.000146796
0.00132279
0.00021096
6.11614e-05
0.00120307
0.000229286
-2.70159e-05
0.00108646
0.000237579
-0.000115952
0.00097972
0.000235901
-0.000210933
0.000890205
0.000230134
-0.000312111
0.000828665
0.000223419
-0.000418321
0.000773177
0.000216343
-0.00053204
0.000734461
0.000212902
-0.000637893
0.000714923
0.000216517
-0.000796588
0.000701757
0.000230609
-0.000922021
0.000675061
0.000228027
-0.00105252
0.000668677
0.000235491
-0.00117588
0.000671368
0.000235165
-0.00130091
0.000672201
0.000234847
-0.00142825
0.000660479
0.000248069
-0.0015384
0.000640883
0.00022654
-0.00161106
0.000616839
0.000182963
-0.00163703
0.000584991
0.000130714
-0.00158752
0.000559836
4.0489e-05
-0.00144994
0.000522722
-5.09613e-05
-0.00121472
0.000498112
-0.000158688
-0.000931736
0.000473882
-0.000214442
-0.000631331
0.000503178
-0.000230081
-0.000366903
0.000569302
-0.000220768
-0.000150072
0.000620957
-0.000218997
-2.93283e-05
0.000588479
-0.000141862
0.000434269
-5.84017e-05
9.24948e-05
0.000626838
-0.000170411
0.000281549
0.000896308
-0.000318954
0.000452256
0.00108092
-0.000314456
0.000546428
0.00120387
-0.000224344
0.000586835
0.00130804
-0.000146782
0.000587986
0.00139526
-7.88177e-05
0.000575624
0.00147391
-3.66592e-05
0.000546798
0.0015262
6.82526e-06
0.000506913
0.00155336
4.34134e-05
0.00045448
0.00154139
8.86263e-05
0.000397705
0.00150149
0.000109833
0.000331288
0.00142389
0.000147396
0.000262815
0.00131511
0.000182827
0.000179123
0.00119889
0.00020759
8.90989e-05
0.00107673
0.000216367
-3.49538e-06
0.000964961
0.000214089
-9.46578e-05
0.000865842
0.00020504
-0.00019357
0.000791046
0.000198071
-0.000297665
0.000741541
0.00019122
-0.000404786
0.000695127
0.00018517
-0.000506647
0.000655328
0.000180995
-0.000605046
0.000628641
0.00018468
-0.000728331
0.000622141
0.000202901
-0.000842629
0.000580687
0.000208673
-0.000962139
0.000562155
0.000226032
-0.00108237
0.000558728
0.000232868
-0.00121911
0.000548075
0.000260871
-0.00135802
0.000538829
0.000260555
-0.00148402
0.000524627
0.000242259
-0.00158795
0.000510779
0.000209988
-0.00163411
0.000497
0.000134151
-0.00161609
0.000479479
6.23351e-05
-0.00151668
0.0004453
-2.19901e-05
-0.00132579
0.000420989
-0.000113763
-0.00103487
0.00040644
-0.000223477
-0.000702243
0.000422759
-0.000252209
-0.000401257
0.000493796
-0.000225479
-0.000173177
0.00059043
-0.000197553
-3.66854e-05
0.000596848
-0.000144861
0.000458754
-6.11701e-05
0.00010052
0.000685397
-0.00015908
0.000311761
0.00100274
-0.000317669
0.00050772
0.0011951
-0.00031013
0.000621338
0.00130429
-0.000214045
0.00066866
0.00138697
-0.000126252
0.000675145
0.00144715
-5.83711e-05
0.000659739
0.00149413
-4.81485e-06
0.000623781
0.00151703
4.51256e-05
0.000571588
0.00151781
8.77387e-05
0.000504451
0.00148685
0.000121682
0.000429225
0.00142402
0.000152691
0.000348632
0.00133159
0.000172898
0.000268992
0.00121572
0.000179031
0.000188405
0.00108876
0.000190714
0.000100059
0.000970414
0.00019466
1.23325e-05
0.000864483
0.000188205
-7.91878e-05
0.000778452
0.000178911
-0.00018114
0.000716748
0.000176251
-0.000275524
0.000664387
0.000171539
-0.000374034
0.000621496
0.000172141
-0.000464289
0.000578159
0.000167424
-0.000554671
0.000548419
0.000170604
-0.000640944
0.000527789
0.000180625
-0.000740165
0.000485022
0.000194886
-0.000849761
0.000460275
0.000211476
-0.000969507
0.00043868
0.000239794
-0.00110701
0.000428821
0.000256757
-0.00125093
0.00042117
0.00026158
-0.00139435
0.000415605
0.000252441
-0.0015141
0.000416581
0.000213945
-0.00160494
0.000412374
0.00017547
-0.00162103
0.000390179
0.000105385
-0.00156756
0.000347246
4.4581e-05
-0.00140757
0.00031029
-4.92835e-05
-0.00114226
0.0003001
-0.000158971
-0.000793827
0.000326745
-0.000252421
-0.000452144
0.000411394
-0.000259281
-0.00019526
0.000525095
-0.000191548
-4.40132e-05
0.000591888
-0.000146287
0.000482109
-6.73685e-05
0.000105069
0.000720725
-0.000140397
0.000335954
0.00107834
-0.00030649
0.000555884
0.00128015
-0.000304986
0.000686127
0.00137631
-0.000202263
0.000740233
0.00143786
-0.000105004
0.000745353
0.00147363
-3.16012e-05
0.000725001
0.00149592
1.85654e-05
0.000678641
0.00148861
7.4787e-05
0.000619176
0.00146438
0.000112895
0.000547721
0.00141038
0.000147923
0.000462566
0.00133463
0.000174548
0.00036829
0.00123219
0.000193673
0.000273627
0.0011156
0.000194776
0.00019212
0.000990045
0.000180223
0.000106711
0.000878742
0.000177081
2.6364e-05
0.00078151
0.00016332
-6.16703e-05
0.000705567
0.000160919
-0.000152636
0.000645479
0.000162235
-0.000240316
0.000590467
0.0001616
-0.000328304
0.000546465
0.000163019
-0.000408238
0.000497665
0.000160429
-0.000482847
0.00046317
0.000159859
-0.000546796
0.00043083
0.000160908
-0.000627971
0.000388974
0.000177222
-0.000724935
0.000362547
0.000194692
-0.000835562
0.00032645
0.000222857
-0.00096609
0.000314384
0.000244964
-0.00110732
0.000309686
0.000252708
-0.00125531
0.000319334
0.000244264
-0.00140511
0.000327261
0.000239121
-0.0015209
0.000315691
0.000212473
-0.00159198
0.000275952
0.000185301
-0.00158585
0.000222312
0.000118813
-0.00147322
0.000171696
2.59642e-05
-0.00123415
0.000145244
-8.42215e-05
-0.000892683
0.000178943
-0.000193662
-0.000510608
0.000293865
-0.000264546
-0.000219672
0.000453835
-0.000219674
-4.91599e-05
0.00056727
-0.000145893
0.000505361
-7.24124e-05
0.000108205
0.000732157
-0.000119638
0.000353787
0.00112261
-0.000289849
0.000592207
0.00133615
-0.000294418
0.000738742
0.00142551
-0.00019573
0.000798538
0.0014659
-8.78289e-05
0.000801854
0.00147483
-4.5119e-06
0.000775887
0.00146821
5.36738e-05
0.000729012
0.00143977
9.57125e-05
0.000662809
0.00139577
0.000134815
0.000581047
0.00132787
0.000164273
0.000487015
0.00124044
0.000188223
0.000385099
0.00113249
0.000201614
0.000281738
0.00101731
0.000201659
0.000191955
0.000898251
0.000181579
0.000111504
0.000794823
0.00016437
4.15425e-05
0.000699996
0.000151476
-3.73642e-05
0.000635289
0.000149185
-0.000119587
0.000575099
0.000152603
-0.000199363
0.000517495
0.000152749
-0.00026859
0.000462263
0.000153429
-0.000339161
0.000417744
0.000150492
-0.000400847
0.000380662
0.000144194
-0.000456819
0.000343407
0.000143395
-0.000520598
0.000300166
0.000152587
-0.000598835
0.000271324
0.000169459
-0.000699981
0.000235473
0.000192123
-0.000811856
0.000211683
0.000214576
-0.000945118
0.000217979
0.000224968
-0.00109657
0.000231816
0.000238973
-0.0012455
0.000232409
0.000243775
-0.00138983
0.000210272
0.000249756
-0.00150285
0.000167375
0.000221595
-0.00155183
0.000102446
0.000168843
-0.00149765
3.07879e-05
8.67272e-05
-0.00130949
-2.03579e-05
-2.25525e-05
-0.000997983
-4.20566e-06
-0.00012836
-0.000593078
0.000116797
-0.000227837
-0.000245591
0.000356994
-0.000250646
-5.98881e-05
0.000523835
-0.000142267
0.00051759
-7.21162e-05
0.000111455
0.000708778
-8.80764e-05
0.000366995
0.0011265
-0.000259433
0.000619054
0.00135446
-0.000270366
0.000779182
0.00144104
-0.000175659
0.000846229
0.00146886
-7.00088e-05
0.000842636
0.00145547
2.29458e-05
0.000809079
0.00142776
7.40092e-05
0.000751413
0.00137718
0.000120254
0.000680984
0.00131691
0.000149285
0.000601837
0.00123545
0.000171566
0.000509595
0.00113898
0.000193701
0.000408432
0.00103164
0.00020202
0.000305909
0.000920094
0.000199733
0.000209663
0.000810517
0.000183979
0.000127065
0.000717269
0.000160152
5.0205e-05
0.000632453
0.000144403
-1.85086e-05
0.000562
0.000142003
-8.15003e-05
0.000496456
0.000141635
-0.000142726
0.000438571
0.00014015
-0.000208094
0.000390843
0.000136789
-0.000271021
0.000347293
0.000133378
-0.000322827
0.000304199
0.00012827
-0.000371442
0.000265846
0.000126175
-0.000423909
0.000223317
0.000129316
-0.000482677
0.000189352
0.000140741
-0.00057147
0.000160155
0.00016411
-0.000667208
0.000129894
0.000177528
-0.000792891
0.000140238
0.000203423
-0.00092729
0.000139601
0.000226614
-0.00108023
0.000128015
0.000257333
-0.0012388
0.000103331
0.000265516
-0.00138061
5.38058e-05
0.000255371
-0.00147384
-1.85988e-05
0.000214277
-0.00147427
-0.000111828
0.000143051
-0.00134746
-0.000191033
4.38651e-05
-0.00107064
-0.000213233
-6.77921e-05
-0.000681751
-0.000104179
-0.000167916
-0.000279057
0.000177195
-0.000222897
-6.17656e-05
0.000465618
-0.000159074
0.000527893
-7.20675e-05
0.000116651
0.000630863
-3.87354e-05
0.000379103
0.00109123
-0.000227181
0.00064282
0.00133977
-0.000249033
0.000820801
0.00142335
-0.000160294
0.000893091
0.00143695
-4.03815e-05
0.000889049
0.00140602
5.34894e-05
0.000851691
0.00135802
0.000107097
0.00079437
0.0012918
0.000142703
0.00072108
0.00122604
0.000164161
0.000632251
0.00114464
0.00017964
0.000530571
0.00105338
0.000187281
0.000421192
0.000945827
0.000195186
0.000314209
0.000838461
0.000188616
0.000219783
0.00073004
0.000174903
0.000146511
0.000634885
0.000155656
7.93751e-05
0.000555562
0.000144028
1.51577e-05
0.000490255
0.000135964
-4.68562e-05
0.000427464
0.000131006
-0.000105628
0.000375193
0.00012215
-0.000159
0.000326096
0.000118119
-0.000206907
0.000281802
0.000113399
-0.00025252
0.000239173
0.000110639
-0.000295541
0.000200092
0.000108774
-0.000342915
0.000160831
0.00010986
-0.000393699
0.000124522
0.000115613
-0.000461017
8.77089e-05
0.000139763
-0.000548043
5.25798e-05
0.000164339
-0.000643428
4.74265e-05
0.000188196
-0.000762331
3.56985e-05
0.000222805
-0.000903429
1.90258e-05
0.000250087
-0.00106195
-7.3459e-06
0.000269201
-0.00121948
-5.7548e-05
0.000268886
-0.00134836
-0.000132692
0.00024297
-0.00140423
-0.000241094
0.000185134
-0.00134184
-0.000349836
9.64137e-05
-0.00113156
-0.0004134
-1.01093e-05
-0.000776976
-0.000343982
-0.000114784
-0.000355832
-6.92262e-05
-0.000174723
-6.7892e-05
0.000353349
-0.000175672
0.000518372
-5.83717e-05
0.000118269
0.000515209
-2.61518e-06
0.000366843
0.00103636
-0.000193708
0.000641702
0.00129739
-0.000232477
0.000832861
0.00138446
-0.000152272
0.000912844
0.00139038
-3.34087e-05
0.00090517
0.00134755
6.61488e-05
0.00085865
0.00128234
0.000122198
0.00078367
0.00120903
0.000157743
0.000698355
0.00112953
0.000181824
0.000615588
0.00103225
0.000195154
0.00053289
0.000935877
0.000200198
0.00044658
0.000835419
0.000196718
0.000358661
0.000739475
0.000186906
0.000277123
0.000651183
0.000160395
0.000201042
0.000570462
0.000140504
0.000128447
0.00049926
0.000128898
5.31656e-05
0.00043473
0.000130806
-1.37294e-05
0.000377387
0.000116972
-6.87337e-05
0.000324092
0.000106106
-0.000112268
0.000270751
9.88795e-05
-0.000152442
0.00022524
9.67357e-05
-0.000190526
0.000183827
9.34307e-05
-0.000229687
0.000145992
9.32603e-05
-0.000268572
0.000107686
9.20284e-05
-0.000315158
6.96428e-05
0.000101465
-0.000371567
2.74995e-05
0.000116618
-0.000450146
-9.1902e-06
0.000140349
-0.000534876
-4.24711e-05
0.000174627
-0.000643292
-6.33416e-05
0.000207456
-0.000769568
-9.85647e-05
0.000243867
-0.000913658
-0.000139735
0.000276479
-0.00106909
-0.000196921
0.000294806
-0.00121532
-0.000273084
0.000286619
-0.00130645
-0.000393078
0.000243114
-0.0012984
-0.000526575
0.000168691
-0.00112969
-0.000661352
7.92379e-05
-0.000798822
-0.000648052
-2.67932e-05
-0.000383975
-0.000355027
-0.000129046
-5.7227e-05
0.000170543
-0.000143942
0.000500082
-3.8938e-05
0.00013794
0.000337239
4.00294e-05
0.000366962
0.000941225
-0.000133882
0.000645001
0.00121423
-0.000194884
0.000840082
0.00130672
-0.000117337
0.000932466
0.00129922
-1.23019e-06
0.000933041
0.00124931
9.76641e-05
0.000896513
0.00117088
0.000147994
0.000839001
0.00108748
0.000179063
0.000774239
0.00100604
0.000188257
0.000694316
0.000921962
0.00019021
0.000601821
0.000841922
0.000186449
0.000499345
0.000759161
0.000178735
0.000395399
0.000676588
0.000166833
0.000298684
0.000600929
0.000146968
0.000219504
0.000527172
0.00012247
0.000151619
0.000460351
0.000106794
8.81315e-05
0.000393873
0.000104345
2.86144e-05
0.000330889
0.000106015
-1.79896e-05
0.000274902
9.57936e-05
-6.15575e-05
0.00022649
8.78286e-05
-0.000100163
0.000179824
8.40215e-05
-0.000136872
0.00013897
8.15647e-05
-0.00017166
9.9448e-05
8.13327e-05
-0.000210262
6.51014e-05
8.11854e-05
-0.00025422
2.35393e-05
9.00614e-05
-0.000306898
-1.84879e-05
9.86643e-05
-0.000365022
-6.14471e-05
0.000110381
-0.000432045
-0.00011309
0.000137641
-0.000511639
-0.000159439
0.000175692
-0.000612769
-0.000213576
0.000216141
-0.000744153
-0.000264768
0.000256418
-0.000902636
-0.000329921
0.000291483
-0.00107646
-0.000411113
0.000311851
-0.00120932
-0.000567022
0.000306804
-0.00126491
-0.000738119
0.000267137
-0.00118386
-0.000920267
0.000177859
-0.000927678
-0.000971379
6.71477e-05
-0.000493712
-0.000751153
-3.78404e-05
-9.88484e-05
-0.000137298
-8.70226e-05
0.000405641
-4.40678e-06
0.000107955
0.000218657
1.06267e-05
0.000326616
0.000860869
-0.000138305
0.000610547
0.00113566
-0.000205362
0.000822564
0.00123475
-0.000140042
0.000929002
0.00122102
-2.82367e-05
0.000948753
0.00116189
6.76704e-05
0.00090936
0.00107023
0.000140042
0.000844055
0.000989932
0.000162856
0.000766177
0.000912028
0.000171887
0.000679406
0.000834907
0.000173825
0.000591992
0.000758272
0.000171064
0.000502464
0.00068458
0.00016411
0.000416133
0.00061174
0.00015118
0.00033383
0.000548434
0.000134797
0.000257416
0.000483936
0.000119651
0.000194657
0.000426239
9.68706e-05
0.000141801
0.000362752
8.39771e-05
8.71634e-05
0.00030502
8.05066e-05
3.3093e-05
0.000245191
8.37816e-05
-9.13015e-06
0.000189003
7.97108e-05
-5.16421e-05
0.000147087
7.52486e-05
-8.64549e-05
0.00010062
7.3163e-05
-0.000122212
6.31086e-05
7.20953e-05
-0.000156692
2.58663e-05
7.37152e-05
-0.000197204
-1.79506e-05
8.20014e-05
-0.000246773
-5.53525e-05
8.64336e-05
-0.000302617
-9.79621e-05
9.23587e-05
-0.000370895
-0.000151718
0.000106908
-0.000450762
-0.000214093
0.000134521
-0.000540501
-0.000293343
0.000169505
-0.000637551
-0.000381338
0.000213619
-0.000744074
-0.000487911
0.000264513
-0.000867831
-0.000603546
0.00031619
-0.00100655
-0.000769044
0.000340735
-0.0011165
-0.000960833
0.00033267
-0.00110931
-0.00119539
0.000267927
-0.000935089
-0.00130683
0.000161238
-0.000562515
-0.00116758
4.3853e-05
-0.00013299
-0.000540396
-2.64283e-05
0.000217987
5.46634e-05
7.8564e-05
0.000127052
1.30403e-05
0.00031484
0.000750593
-0.000126001
0.00058483
0.0010505
-0.000184829
0.000809141
0.00115865
-0.000148211
0.000927149
0.00114737
-4.43604e-05
0.000957691
0.00108343
4.79222e-05
0.000917507
0.00098904
0.000121369
0.000855559
0.000902675
0.000149206