/*--------------------------------*- C++ -*----------------------------------*\
| =========                 |                                                 |
| \\      /  F ield         | OpenFOAM: The Open Source CFD Toolbox           |
|  \\    /   O peration     | Version:  v1806                                 |
|   \\  /    A nd           | Web:      www.OpenFOAM.com                      |
|    \\/     M anipulation  |                                                 |
\*---------------------------------------------------------------------------*/
FoamFile
{
    version     2.0;
    format      ascii;
    class       vectorField;
    location    "0.104";
    object      currentcloudofpoints;
}
// * * * * * * * * * * * * * * * * * * * * * * * * * * * * * * * * * * * * * //


2409
(
(0.96064 1.34184 1.04389)
(0.883883 1.01184 1.21442)
(1.45558 1.15725 1.00016)
(1.1511 1.28005 0.786164)
(1.21484 1.35833 1.23763)
(1.1499 1.20359 1.00172)
(1.09179 1.42672 1.01828)
(0.575479 1.29177 0.90838)
(1.66345 1.21598 0.99588)
(1.19496 1.02237 0.782503)
(1.21905 1.20294 1.31648)
(1.43431 1.18316 1.0762)
(1.42442 1.27515 1.10091)
(1.29069 1.3907 1.17063)
(1.39258 1.24488 1.10346)
(1.44828 1.16951 1.04671)
(1.41148 1.19402 1.08527)
(1.22687 1.44776 1.07605)
(1.41829 1.27179 1.08878)
(1.37476 1.25729 1.14555)
(0.842814 0.956052 1.37307)
(0.533537 1.27112 1.31441)
(0.954391 1.30377 1.24141)
(1.01407 1.2959 1.20038)
(0.935523 1.0339 1.18655)
(0.581056 1.07861 1.3845)
(0.725653 1.10306 1.37524)
(0.914743 1.5228 1.38238)
(1.09227 1.18768 1.2563)
(1.43316 1.18041 0.917278)
(1.38508 1.19937 0.91707)
(1.27587 1.3991 0.825405)
(1.31448 1.33166 0.83512)
(1.44465 1.1627 0.950195)
(1.40158 1.18378 0.920413)
(1.38679 1.30355 0.866485)
(1.26435 1.39648 0.825966)
(1.23039 1.37563 0.773365)
(0.924323 1.44031 0.620993)
(0.642787 1.02822 0.769349)
(0.758049 0.996263 0.637147)
(0.938753 0.99265 0.786534)
(1.00626 1.25018 0.6987)
(0.899376 1.21423 0.673079)
(0.704836 1.02837 0.714314)
(1.00945 0.949041 0.701605)
(0.863002 0.962045 1.03861)
(1.36317 1.41771 1.09218)
(1.11641 1.34214 1.12276)
(1.25051 1.24339 1.10804)
(1.08641 1.2198 1.01398)
(1.23899 1.30104 1.2389)
(1.321 1.24351 1.12627)
(1.01673 1.37931 1.16166)
(1.36844 1.27859 0.986864)
(0.999329 1.28677 1.0637)
(1.10798 1.20649 0.90991)
(1.06331 1.52812 0.58704)
(1.10217 1.56362 0.678066)
(1.24027 1.31556 0.82127)
(0.967576 1.53715 0.98621)
(1.34161 1.27388 0.932548)
(1.12559 1.50259 0.747576)
(1.02223 1.33162 0.827473)
(1.1831 1.36587 0.827122)
(0.966272 0.987068 1.28307)
(0.934682 1.00983 1.25053)
(0.882967 1.34634 1.03727)
(1.12798 1.50574 1.05891)
(0.981719 0.969889 1.29576)
(0.951365 0.998966 1.26976)
(0.898284 1.00759 1.21474)
(1.0339 1.46362 0.910757)
(0.886256 1.44124 0.993411)
(1.23995 1.49859 0.936238)
(1.52519 1.42932 1.05325)
(1.52699 1.38897 1.04314)
(1.4696 1.20071 0.998859)
(1.03853 1.32081 1.03141)
(1.45868 1.47116 1.02685)
(1.54122 1.39351 1.04413)
(1.49278 1.41779 1.04719)
(1.47607 1.18289 0.997655)
(0.502508 1.19126 1.12127)
(0.498638 1.06438 1.14621)
(0.675573 1.175 1.43344)
(1.08804 1.25426 1.44157)
(1.13189 1.12537 1.41834)
(1.11589 1.03282 1.46517)
(1.27362 1.28482 1.35757)
(0.673774 1.22381 1.05573)
(0.523491 1.16777 1.15253)
(0.573295 1.23899 1.40128)
(0.966277 1.34693 1.38393)
(1.15001 1.01327 1.48014)
(1.12851 0.984486 1.38102)
(1.15444 1.30563 1.38157)
(1.28738 1.2432 1.33265)
(1.23019 1.11713 1.30055)
(1.32096 1.07797 1.30972)
(1.38755 1.09908 1.31037)
(1.4346 1.1355 1.30093)
(1.48503 1.12754 1.26663)
(1.56056 1.14898 1.21504)
(1.63867 1.19558 1.133)
(1.20098 1.19672 1.34061)
(1.28453 1.08101 1.2975)
(1.35427 1.08301 1.30931)
(1.41417 1.1187 1.30247)
(1.45592 1.13296 1.28543)
(1.51726 1.13168 1.23843)
(1.59851 1.168 1.1803)
(1.65604 1.20408 1.0678)
(0.541476 1.23845 0.856144)
(0.545962 1.07781 0.845311)
(0.764125 1.09734 0.781343)
(1.02973 1.17335 0.576883)
(1.11677 1.00509 0.761486)
(1.08525 1.07348 0.545289)
(1.1224 1.11509 0.61035)
(0.621295 1.12617 0.851516)
(0.64391 1.18921 0.749603)
(0.734163 1.07864 0.685005)
(0.953198 1.17381 0.612286)
(1.16751 1.04588 0.527129)
(1.06795 1.02049 0.632849)
(1.10015 1.10094 0.559547)
(1.19343 1.06613 0.804321)
(1.63403 1.19652 0.86423)
(1.56194 1.15465 0.77984)
(1.48656 1.13423 0.72879)
(1.43116 1.14043 0.692861)
(1.37976 1.12003 0.687878)
(1.31912 1.11188 0.696186)
(1.26147 1.09825 0.695115)
(1.65049 1.20409 0.926441)
(1.59747 1.17204 0.816787)
(1.51947 1.13892 0.755561)
(1.4563 1.13768 0.709862)
(1.4071 1.13218 0.690643)
(1.34985 1.11238 0.694666)
(1.28895 1.1095 0.699584)
(1.23726 1.05799 0.71069)
(1.15019 1.64924 1.12998)
(0.881062 1.58465 1.26246)
(0.840317 1.61566 1.32973)
(0.999989 1.62571 1.36474)
(1.01109 1.5087 1.46635)
(1.05867 1.287 1.47259)
(1.32229 1.21607 1.32013)
(1.16515 1.66956 1.00403)
(0.960279 1.65888 1.22475)
(0.833341 1.60222 1.24002)
(0.861876 1.62523 1.33464)
(1.02236 1.57477 1.42669)
(1.02601 1.40107 1.4955)
(1.28232 1.15679 1.42123)
(1.33252 1.21972 1.25315)
(1.05233 1.76256 0.816743)
(0.955017 1.63268 0.752454)
(0.855825 1.60027 0.780257)
(1.02864 1.61437 0.609479)
(0.973713 1.50353 0.53502)
(1.08734 1.28323 0.481952)
(1.20196 1.09291 0.715578)
(1.11971 1.77799 0.877552)
(1.02113 1.67948 0.792344)
(0.899999 1.59134 0.778283)
(0.839884 1.62194 0.76572)
(1.02844 1.53281 0.539229)
(1.02043 1.41181 0.515405)
(1.19968 1.21921 0.590918)
(1.21996 1.06245 0.780989)
(0.627112 1.30472 0.919329)
(0.944943 1.56392 0.961342)
(0.874526 1.54353 1.01267)
(1.10618 1.59283 0.874938)
(1.13203 1.45428 1.16597)
(1.12737 1.54997 1.01188)
(1.01491 1.31986 1.01129)
(0.609451 1.34741 0.942212)
(0.812887 1.48545 0.917475)
(0.878565 1.54552 0.982027)
(0.973794 1.27259 0.951177)
(1.13881 1.50575 1.20564)
(1.12853 1.46046 1.0586)
(1.01392 1.31754 1.00138)
(1.00952 1.34773 1.01664)
(1.31497 1.48078 1.11897)
(1.37775 1.48209 1.05231)
(1.39852 1.49499 1.08012)
(1.49817 1.48237 1.05137)
(1.57989 1.47161 1.01482)
(1.63254 1.44467 0.997048)
(1.67272 1.35189 0.995311)
(1.29806 1.48273 1.05034)
(1.33878 1.47746 1.14559)
(1.37959 1.4917 1.03141)
(1.43507 1.49947 1.08962)
(1.55657 1.46833 1.02752)
(1.61398 1.45757 1.00186)
(1.66067 1.38778 0.9941)
(1.67667 1.28894 0.995855)
(1.34198 1.2239 0.837987)
(1.23537 1.08107 0.813431)
(1.2252 1.41279 0.739675)
(1.30714 1.20318 1.19201)
(1.33156 1.34647 1.16182)
(1.25373 1.17853 1.26364)
(0.617162 1.2584 0.919815)
(0.981166 1.09446 0.675957)
(0.595216 1.22327 0.863201)
(1.53046 1.14741 0.993991)
(1.49764 1.15941 0.997304)
(1.57999 1.14139 0.993552)
(1.20548 1.45527 1.24434)
(1.3537 1.67268 1.15701)
(1.28948 1.45424 1.34353)
(1.58178 1.407 1.22223)
(1.17244 1.69603 1.16318)
(1.35938 1.14991 1.276)
(1.63623 1.31033 1.21097)
(1.55218 1.36432 1.30052)
(1.17862 1.61379 1.24737)
(1.47971 1.67505 1.23318)
(1.50334 1.64371 1.17549)
(0.868968 1.60689 1.22)
(1.4885 1.46301 1.29971)
(1.62332 1.4053 1.19085)
(1.3761 1.5618 1.14072)
(1.64732 1.40754 1.10062)
(1.34527 1.32819 1.3121)
(1.60422 1.44661 1.12198)
(1.02385 1.74939 1.19701)
(1.27502 1.16123 1.28429)
(1.01574 1.4436 1.33213)
(1.40959 1.44641 1.3562)
(1.50573 1.23984 1.31471)
(1.26986 1.63461 1.05977)
(0.941063 1.69573 1.23592)
(1.32286 1.52521 1.1956)
(1.4246 1.28214 1.32295)
(1.48179 1.38858 1.27397)
(1.05144 1.70755 1.04249)
(1.26555 1.19655 1.32451)
(1.6718 1.32353 1.09192)
(1.20971 1.50552 1.25006)
(1.07703 1.54936 1.29589)
(1.37978 1.33546 1.29431)
(1.34991 1.50274 1.27392)
(1.54526 1.47095 1.1523)
(1.288 1.11301 1.27801)
(1.34885 1.12784 1.30909)
(1.26661 1.20722 1.31122)
(1.2436 1.1779 1.32958)
(1.26611 1.13257 1.2719)
(1.36817 1.16929 1.33579)
(1.38263 1.19133 1.33871)
(1.36323 1.25482 1.31576)
(1.39928 1.20947 1.32887)
(1.40913 1.23461 1.32438)
(1.35697 1.33461 1.30664)
(1.42969 1.21493 1.3137)
(1.46021 1.1867 1.30009)
(1.40471 1.31814 1.30341)
(1.49378 1.17531 1.28486)
(1.53683 1.17887 1.26013)
(1.45759 1.25308 1.32175)
(1.59852 1.21637 1.2247)
(1.64113 1.25138 1.17242)
(1.57135 1.25591 1.27926)
(1.66319 1.26033 1.11587)
(1.67514 1.2705 1.04416)
(1.65587 1.31289 1.15374)
(1.67414 1.33823 1.0449)
(1.21717 1.62984 1.13131)
(1.15619 1.69209 1.09345)
(1.04309 1.72998 1.08654)
(1.18293 1.67535 1.05058)
(1.21969 1.63265 1.00386)
(1.3238 1.47753 1.17422)
(1.27258 1.61335 1.00971)
(1.22209 1.64932 1.21696)
(1.47527 1.57938 1.18704)
(1.36013 1.49531 1.2671)
(1.31637 1.48276 1.16232)
(1.57224 1.46481 1.08605)
(1.52048 1.48312 1.11597)
(1.52088 1.62301 1.22567)
(1.62549 1.44154 1.06038)
(1.60054 1.45765 1.07064)
(1.58339 1.44678 1.13557)
(1.66389 1.37493 1.05063)
(1.64457 1.42025 1.04792)
(1.63151 1.42406 1.11197)
(1.66291 1.35927 1.10028)
(1.14464 1.42764 1.24482)
(1.23994 1.65725 1.26142)
(1.2825 1.65663 1.22905)
(1.40899 1.66401 1.14867)
(1.35649 1.64828 1.17166)
(1.24358 1.67733 1.23572)
(1.31907 1.66041 1.12166)
(1.3977 1.59108 1.089)
(1.49183 1.65654 1.16743)
(1.3502 1.51161 1.14448)
(1.35001 1.29951 1.27704)
(1.32518 1.35063 1.27415)
(1.30745 1.13757 1.25561)
(1.34098 1.29647 1.29422)
(1.39725 1.42253 1.30419)
(1.38576 1.37593 1.25775)
(1.10725 1.39518 1.27896)
(1.19415 1.44456 1.34144)
(1.21829 1.50861 1.32306)
(1.12302 1.47641 1.33565)
(1.34797 1.57306 1.2796)
(1.57126 1.42373 1.18939)
(1.59868 1.41472 1.17957)
(1.56844 1.45617 1.23944)
(1.57627 1.53622 1.22337)
(1.52901 1.40058 1.27277)
(1.54085 1.41713 1.27122)
(1.57706 1.38471 1.2634)
(1.6052 1.39893 1.20969)
(1.60048 1.37853 1.25712)
(1.61784 1.42138 1.15673)
(1.54909 1.47284 1.27793)
(1.4587 1.51622 1.35621)
(1.10898 1.70701 1.22404)
(1.11409 1.74074 1.15619)
(1.1703 1.68961 1.23331)
(0.999488 1.71712 1.10215)
(1.01117 1.71357 1.14337)
(0.919845 1.65309 1.18771)
(1.07124 1.69557 1.07288)
(0.915791 1.57897 1.23877)
(0.855182 1.56806 1.23045)
(0.968335 1.71751 1.2327)
(0.848524 1.61904 1.26319)
(0.884864 1.62632 1.32366)
(0.891826 1.64518 1.22172)
(1.0572 1.57064 1.39451)
(1.03405 1.61572 1.31377)
(0.902294 1.63657 1.29551)
(1.04656 1.45934 1.42669)
(1.08522 1.35742 1.45861)
(1.04631 1.51138 1.34555)
(1.30505 1.18237 1.38403)
(1.29854 1.19436 1.3081)
(1.30313 1.19672 1.28528)
(1.26997 1.18128 1.29634)
(1.05859 1.45298 1.19737)
(1.14783 1.44187 1.28612)
(0.992187 1.62354 1.28229)
(1.2878 1.59115 1.10254)
(1.28599 1.62838 1.14175)
(1.10774 1.46298 1.23603)
(1.4203 1.63165 1.20814)
(1.6501 1.35445 1.16092)
(1.07278 1.468 1.2828)
(1.10925 1.48787 1.32662)
(1.29652 1.52886 1.14608)
(1.33091 1.52139 1.1564)
(1.44824 1.60481 1.14345)
(1.63329 1.35908 1.212)
(1.59425 1.32846 1.27402)
(1.52224 1.30976 1.31575)
(1.63785 1.39819 1.15388)
(1.5109 1.3695 1.28924)
(1.50023 1.43718 1.2748)
(1.47178 1.32042 1.30716)
(1.14299 1.63269 1.23241)
(1.40312 1.49669 1.38023)
(1.34461 1.56296 1.33827)
(1.44141 1.44294 1.33842)
(1.46513 1.44046 1.28638)
(1.4414 1.41499 1.25661)
(1.42663 1.37026 1.25785)
(1.44654 1.34343 1.27864)
(0.739971 1.50726 1.46994)
(0.723373 1.42198 1.3668)
(0.74959 1.07169 1.12847)
(0.569476 1.17448 1.25069)
(0.700404 1.50457 1.33285)
(0.846705 1.49677 1.47196)
(0.641562 1.12067 1.22512)
(0.856008 1.60032 1.29305)
(1.18388 1.20859 1.49552)
(0.827329 1.20033 1.129)
(0.580789 1.21691 1.26969)
(0.794802 1.56831 1.2598)
(0.875311 1.60378 1.44414)
(0.929652 1.45883 1.4147)
(0.970975 1.50198 1.49408)
(0.833154 1.65458 1.28863)
(0.525449 1.08697 1.19316)
(1.0683 1.2838 1.46637)
(0.589734 1.19375 1.07224)
(0.781461 1.44083 1.11073)
(0.898946 1.4785 1.43407)
(0.840256 1.50651 1.26542)
(0.966711 1.4777 1.47972)
(0.846074 1.33495 1.27183)
(0.933754 1.3324 1.29629)
(0.806915 1.11254 1.3695)
(0.857242 1.18353 1.1594)
(0.672074 1.44732 1.41857)
(0.93123 1.45649 1.40461)
(0.77997 1.4976 1.40907)
(0.650318 1.30656 1.06866)
(0.681137 1.32992 1.06325)
(0.710225 1.15319 1.10521)
(1.27029 1.26843 1.37438)
(0.76982 1.48071 1.08549)
(1.17446 1.55692 1.18646)
(0.877375 1.29867 1.10349)
(0.653373 1.16007 1.18638)
(0.693128 1.14063 1.16864)
(0.534364 1.12277 1.22645)
(0.543953 1.23496 1.12282)
(0.603552 1.14132 1.1266)
(0.504365 1.08624 1.20113)
(0.506073 1.05261 1.19095)
(0.530081 1.23413 1.1275)
(0.581539 1.04317 1.17134)
(0.596225 1.11855 1.1457)
(0.50124 1.06157 1.16778)
(1.09344 1.07183 1.46371)
(1.13547 1.3142 1.38106)
(1.14328 1.20912 1.501)
(1.18385 1.08809 1.46403)
(0.989373 1.39698 1.44209)
(1.32563 1.2565 1.26047)
(1.33827 1.20516 1.22995)
(1.14972 1.24207 1.43325)
(0.730515 1.53868 1.29983)
(0.727104 1.51439 1.25666)
(0.690279 1.49897 1.31825)
(0.815607 1.52707 1.27073)
(0.695504 1.52044 1.25511)
(0.662256 1.43397 1.25224)
(0.685005 1.46462 1.24633)
(0.906503 1.64698 1.39048)
(0.850179 1.19939 1.29129)
(0.658768 1.41153 1.25557)
(0.78287 1.55308 1.21467)
(0.849473 1.20053 1.31043)
(0.530008 1.25458 1.28801)
(0.64678 1.16085 1.13699)
(0.635566 1.24802 1.08541)
(0.598224 1.2448 1.04622)
(0.99747 1.17944 1.18686)
(0.85035 1.08128 1.05413)
(0.649838 1.3823 1.04863)
(0.902423 1.536 1.07398)
(0.827178 1.5485 1.24056)
(0.857127 1.51953 1.25168)
(0.958709 1.51473 1.30984)
(1.02135 1.63012 1.24234)
(0.818348 1.38079 1.37263)
(0.846381 1.47789 1.35167)
(1.18087 1.52696 1.21357)
(0.928818 1.51699 1.49252)
(0.991559 1.58454 1.44783)
(0.909629 1.49604 1.48842)
(0.862852 1.48357 1.498)
(0.810075 1.53568 1.48306)
(0.796048 1.48049 1.4832)
(0.643314 1.39607 1.23495)
(1.13506 1.19715 1.49928)
(0.952571 1.44903 1.42091)
(0.924839 1.46901 1.43333)
(0.994281 1.38205 1.45948)
(0.845501 1.50095 1.39848)
(0.825274 1.51246 1.41211)
(0.870023 1.49966 1.40435)
(0.86379 1.49679 1.39162)
(0.845262 1.44169 1.37913)
(1.01164 1.57372 1.44065)
(0.968932 1.63849 1.37489)
(0.982356 1.52857 1.46916)
(0.981291 1.50775 1.46998)
(0.933139 1.52993 1.46839)
(0.897692 1.51686 1.46547)
(0.811771 1.61055 1.33545)
(0.797456 1.61968 1.29888)
(1.23101 1.14665 1.35337)
(1.06372 1.28105 1.46847)
(0.995284 1.35592 1.46916)
(0.987989 1.38209 1.4845)
(1.28539 1.22109 1.37716)
(1.23704 1.20406 1.38373)
(1.15221 1.25185 1.4941)
(1.02581 1.33211 1.46208)
(0.981534 1.43727 1.48247)
(0.76092 1.1455 1.36404)
(0.57137 1.21364 1.25371)
(0.871966 1.16543 1.14818)
(0.759545 1.17648 1.35611)
(0.677954 1.34488 1.10818)
(0.90427 1.21517 1.10778)
(0.884792 1.23564 1.08201)
(0.564688 1.11505 1.25469)
(0.854604 1.60147 1.2763)
(1.03964 1.68076 1.20803)
(1.16619 1.62675 1.16555)
(0.952883 1.37652 1.06406)
(0.834711 1.55264 1.21255)
(0.800032 1.51845 1.44277)
(0.743641 1.4768 1.45316)
(0.670344 1.43703 1.34251)
(0.90274 1.22667 1.15469)
(0.702841 1.4728 1.45182)
(0.818526 1.09551 1.33889)
(0.727551 1.45977 1.42272)
(0.650599 1.38235 1.0107)
(1.00968 1.56578 1.08827)
(1.10302 1.59639 1.10997)
(0.79645 1.45403 1.0909)
(0.73874 1.34368 1.10888)
(0.915419 1.39853 1.23431)
(0.843881 1.37759 1.289)
(0.845235 1.35355 1.27103)
(0.932356 1.4659 1.09122)
(0.834308 1.39622 1.09979)
(0.870151 1.28666 1.07839)
(0.871672 1.36841 1.10329)
(0.822398 1.37794 1.07061)
(0.55126 1.31059 1.24829)
(0.926372 1.44386 1.39065)
(0.702702 1.13576 1.3864)
(0.588531 1.31445 1.26722)
(0.991082 1.38477 1.403)
(0.889242 1.48139 1.39122)
(0.855494 1.51013 1.44519)
(0.616634 1.35217 1.30238)
(0.78086 1.19075 1.1132)
(0.802305 1.22317 1.07793)
(0.783508 1.26026 1.06078)
(0.933122 1.28717 1.27497)
(0.644886 1.39983 1.36545)
(0.624422 1.43648 1.29014)
(0.71077 1.40695 1.39798)
(0.699571 1.35279 1.10681)
(0.751956 1.21456 1.08908)
(0.689981 1.32198 1.14555)
(0.675333 1.32018 1.11771)
(0.663147 1.33027 1.07605)
(0.571303 1.23842 0.67763)
(0.76886 1.50887 0.756602)
(0.543718 1.13078 0.766911)
(0.493917 1.15688 0.678482)
(0.959528 1.47132 0.733302)
(0.745773 1.5452 0.637843)
(0.962664 1.58593 0.717427)
(0.869424 1.46599 0.599866)
(0.657989 1.23564 0.579187)
(0.706543 1.50756 0.737171)
(0.898141 1.27807 0.682896)
(0.903431 1.66777 0.653026)
(0.738136 1.58891 0.623974)
(0.573764 1.34723 0.779484)
(0.785123 1.19413 0.828373)
(0.832218 1.54088 0.706591)
(0.840053 1.55325 0.592826)
(0.565692 0.949493 0.795831)
(1.21437 1.12042 0.570495)
(0.833217 1.17259 0.923793)
(1.0016 1.24782 0.851094)
(0.916755 1.33481 0.713827)
(0.953967 1.24717 0.854181)
(0.920729 1.14618 0.978163)
(0.873185 1.56965 0.769486)
(0.62911 1.46079 0.654327)
(0.737221 1.20553 0.670355)
(0.893996 1.15823 0.953611)
(0.928975 1.52763 0.52176)
(0.927997 1.39011 0.849557)
(0.906765 1.39783 0.62057)
(0.945967 1.26663 0.917585)
(1.02663 1.73245 0.856465)
(0.639547 1.46339 0.582608)
(0.894239 1.57127 0.537821)
(1.1732 1.21132 0.641074)
(0.555038 1.37143 0.71867)
(0.576108 1.31223 0.714944)
(0.579645 1.14225 0.7291)
(0.556018 1.11545 0.75368)
(0.577306 1.14657 0.759189)
(0.606581 1.47379 0.621406)
(0.670134 1.58577 0.697263)
(0.50641 1.0654 0.73258)
(0.566074 1.32771 0.643518)
(0.635685 1.37836 0.557847)
(0.85828 1.46314 0.612906)
(0.820575 1.51531 0.619012)
(0.988646 1.3712 0.547087)
(0.789451 1.56657 0.621054)
(0.849447 1.52192 0.602575)
(1.00799 1.34964 0.546538)
(0.802921 1.46507 0.630949)
(0.889491 1.33482 0.681513)
(0.704231 1.5315 0.646847)
(0.733031 1.57587 0.642782)
(0.795191 1.57075 0.59718)
(0.850168 1.38683 0.641956)
(1.20239 1.11074 0.713481)
(1.23277 1.09516 0.767497)
(1.14655 1.22982 0.620578)
(0.864021 1.55759 0.705107)
(0.87063 1.51294 0.685992)
(0.956038 1.55323 0.702422)
(0.841964 1.56709 0.733635)
(0.865321 1.58025 0.728627)
(1.09929 1.53788 0.76214)
(1.06291 1.53326 0.776107)
(0.886343 1.58275 0.771192)
(0.895419 1.59578 0.748743)
(1.04524 1.61712 0.746875)
(0.988099 1.61869 0.733625)
(1.12432 1.63155 0.807261)
(1.15756 1.21554 0.542117)
(1.15879 1.09606 0.668684)
(0.915057 1.48662 0.557758)
(0.951614 1.41133 0.546713)
(1.1513 1.23755 0.530073)
(0.656596 1.38797 0.628169)
(0.600156 1.49643 0.695248)
(0.562328 1.09554 0.617579)
(0.663552 1.03423 0.837642)
(0.844561 1.14527 0.876538)
(1.12306 1.08403 0.582356)
(1.09169 1.19538 0.57677)
(1.19745 1.04698 0.628913)
(0.608604 1.36884 0.783576)
(0.627033 1.52381 0.745282)
(0.663939 1.52384 0.752626)
(0.603947 1.48416 0.736256)
(0.806984 1.51614 0.707187)
(0.863412 1.46935 0.693064)
(0.732615 1.53734 0.736282)
(0.713772 1.49038 0.731005)
(0.772834 1.52888 0.881082)
(0.642723 1.49498 0.674109)
(0.680536 1.46229 0.636944)
(0.854368 1.23622 0.78651)
(0.776383 1.15478 0.838494)
(0.894506 1.4036 0.624493)
(1.02747 1.3109 0.549591)
(0.982239 1.37655 0.590462)
(0.852939 1.16723 0.805883)
(0.854574 1.21937 0.653833)
(1.14122 1.13617 0.507008)
(0.829015 1.62181 0.788496)
(0.869531 1.54464 0.765595)
(0.841219 1.57749 0.790844)
(1.04363 1.60719 0.589185)
(0.863242 1.59326 0.805225)
(0.841986 1.59417 0.777737)
(0.996216 1.54915 0.524764)
(1.01357 1.53262 0.52676)
(0.97827 1.59859 0.554588)
(0.859174 1.64675 0.625734)
(0.905051 1.54426 0.526254)
(0.807488 1.61075 0.602323)
(0.737369 1.61857 0.678936)
(0.677757 1.55021 0.646676)
(0.879486 1.54453 0.556217)
(0.826368 1.55517 0.558399)
(0.797084 1.57936 0.580915)
(0.896666 1.54068 0.574093)
(0.937885 1.53153 0.545531)
(0.496806 1.09252 0.745134)
(0.485713 1.13283 0.733193)
(0.514949 1.16894 0.758193)
(0.50643 1.08227 0.635548)
(0.471046 1.07403 0.686769)
(0.830777 1.19507 0.949371)
(0.654017 1.17326 0.563363)
(0.829356 1.18763 0.934307)
(0.65163 0.979859 0.841752)
(0.807579 1.14092 0.780611)
(0.860885 1.31001 0.846161)
(0.560295 1.05134 0.618306)
(0.861613 1.13378 0.986929)
(0.530728 1.05624 0.624221)
(0.519322 0.981393 0.730899)
(1.02379 1.74897 0.841444)
(1.10432 1.76686 0.898736)
(0.655869 1.18105 0.840121)
(0.668313 1.17517 0.787866)
(0.655028 1.21497 0.83146)
(0.718373 1.17185 0.704653)
(1.02091 1.19239 0.879701)
(0.978719 1.528 0.844353)
(0.994042 1.53727 0.8486)
(1.01903 1.11632 0.76064)
(0.958109 1.41963 0.744163)
(0.740483 1.30955 0.794026)
(1.02774 1.18121 0.805121)
(0.973426 1.41306 0.796024)
(0.850396 1.44587 0.861885)
(0.907058 1.23186 0.841388)
(0.975776 1.49291 0.835531)
(0.894507 1.45955 0.951643)
(0.818705 1.41404 0.905332)
(1.13473 1.53036 0.885188)
(0.676108 1.11528 0.903326)
(0.654761 1.2071 0.720593)
(0.796927 1.15422 0.918677)
(0.999864 1.17841 0.878761)
(0.932385 1.19749 0.861265)
(0.745886 1.13978 0.876047)
(1.37839 1.6189 0.780537)
(1.2722 1.65246 0.853541)
(1.61022 1.41856 0.772298)
(1.06845 1.42084 0.677286)
(1.1508 1.75708 0.80314)
(1.63099 1.30201 0.785165)
(1.30636 1.19204 0.699596)
(1.32549 1.34456 0.760941)
(1.29264 1.70135 0.863654)
(1.22525 1.5886 0.702564)
(0.90927 1.6685 0.760808)
(1.38122 1.54998 0.769254)
(1.43427 1.44188 0.732786)
(1.29442 1.31178 0.757512)
(1.44548 1.47686 0.653531)
(1.24434 1.20103 0.688503)
(1.53441 1.28497 0.68767)
(1.07365 1.38357 0.67177)
(1.25093 1.51629 0.924741)
(1.65522 1.39794 0.889526)
(1.58967 1.4968 0.897449)
(1.50934 1.40935 0.71962)
(1.33755 1.25945 0.669243)
(0.976803 1.70306 0.798698)
(1.29617 1.5039 0.88766)
(1.57235 1.48667 0.750323)
(1.37691 1.28003 0.667618)
(1.42313 1.34937 0.770452)
(1.16461 1.75026 0.903149)
(1.66959 1.30326 0.899023)
(1.22334 1.12426 0.692098)
(1.52378 1.55973 0.783263)
(1.53285 1.49534 0.925405)
(1.42655 1.28773 0.661303)
(0.917678 1.60704 0.78932)
(1.13053 1.59146 0.730206)
(1.67379 1.32336 0.945977)
(1.67076 1.26151 0.948681)
(1.65725 1.24999 0.87841)
(1.34059 1.6256 0.839852)
(1.29172 1.66776 0.833152)
(1.30882 1.59999 0.808897)
(1.27043 1.56426 0.886664)
(1.32219 1.61316 0.696582)
(1.38852 1.59818 0.786669)
(1.37571 1.59717 0.858117)
(1.36544 1.49245 0.639502)
(1.43462 1.58844 0.696577)
(1.45607 1.6062 0.761039)
(1.48067 1.57468 0.786802)
(1.50763 1.56316 0.719436)
(1.27859 1.48779 0.905202)
(1.27625 1.51538 0.793754)
(1.1968 1.70214 0.949818)
(1.15053 1.49435 0.964113)
(1.28348 1.65567 0.981642)
(1.30272 1.51332 0.786323)
(1.37324 1.50355 0.790426)
(1.25355 1.5256 0.922411)
(1.38165 1.52012 0.77521)
(1.45975 1.5226 0.824327)
(1.353 1.52247 0.833752)
(1.56301 1.4754 0.972412)
(1.5218 1.4704 0.958739)
(1.49567 1.53629 0.841966)
(1.58844 1.48082 0.951028)
(1.62425 1.45381 0.934771)
(1.56911 1.50065 0.914669)
(1.65193 1.41166 0.942163)
(1.66758 1.35861 0.937144)
(1.63233 1.44032 0.881665)
(1.66479 1.33931 0.886903)
(1.21433 1.05603 0.734594)
(1.21935 1.08323 0.730714)
(1.23841 1.12786 0.687302)
(1.00671 1.72856 0.819184)
(1.0809 1.75766 0.802819)
(1.14634 1.76816 0.846928)
(1.10667 1.77266 0.830102)
(0.979325 1.66224 0.763801)
(1.05597 1.72152 0.769655)
(1.27536 1.70052 0.936309)
(1.20383 1.74226 0.901063)
(1.22259 1.74323 0.841768)
(1.18618 1.72203 0.788713)
(1.61841 1.35787 0.767594)
(1.57434 1.35223 0.716621)
(1.58544 1.28415 0.728079)
(1.55364 1.20508 0.733023)
(1.59781 1.2177 0.772933)
(1.64874 1.34656 0.828937)
(1.65286 1.29786 0.838245)
(1.63533 1.4022 0.823136)
(1.63707 1.24408 0.824192)
(0.924171 1.63551 0.774493)
(0.844182 1.62582 0.756752)
(0.89103 1.59333 0.792715)
(0.950946 1.6567 0.774062)
(1.11846 1.51214 0.561585)
(1.096 1.61277 0.640015)
(0.917302 1.59988 0.815593)
(1.15017 1.37082 0.652263)
(1.12136 1.46232 0.584106)
(1.09942 1.52438 0.625415)
(1.20346 1.15475 0.675964)
(1.2315 1.21816 0.628461)
(1.28757 1.25497 0.705156)
(1.23147 1.15361 0.698472)
(1.37959 1.38988 0.7475)
(1.3257 1.50045 0.676882)
(1.22293 1.48458 0.685441)
(1.14298 1.41895 0.68403)
(1.30161 1.34281 0.76015)
(1.29373 1.39968 0.695718)
(1.04333 1.37538 0.716678)
(1.08345 1.50064 0.645148)
(1.14574 1.46789 0.870085)
(1.17216 1.50097 0.797779)
(1.19214 1.56421 0.728559)
(1.35114 1.50016 0.659523)
(1.03498 1.60411 0.695467)
(1.13589 1.63145 0.791915)
(1.11503 1.44816 0.879777)
(0.959817 1.66675 0.810269)
(1.33877 1.21611 0.734078)
(1.35191 1.25089 0.744002)
(1.33311 1.21654 0.682281)
(1.35485 1.29507 0.767368)
(1.29795 1.2214 0.726213)
(1.28901 1.18897 0.716519)
(1.26221 1.1745 0.693445)
(1.31434 1.16053 0.678128)
(1.34819 1.16511 0.665079)
(1.2747 1.16069 0.689509)
(1.37434 1.34099 0.772342)
(1.4465 1.39478 0.773316)
(1.37642 1.31014 0.751204)
(1.33575 1.64906 0.921532)
(1.44795 1.45279 0.707377)
(0.946069 1.63764 0.788177)
(1.54008 1.53153 0.857737)
(1.49806 1.44316 0.710672)
(1.48544 1.4342 0.752362)
(1.47565 1.39269 0.755919)
(1.53548 1.43726 0.706966)
(1.51821 1.49412 0.689374)
(1.55521 1.52397 0.765395)
(1.46486 1.36189 0.704727)
(1.47372 1.27738 0.665672)
(1.5105 1.359 0.694533)
(1.46693 1.20117 0.688519)
(1.50762 1.19606 0.707998)
(1.55343 1.40272 0.713908)
(1.41722 1.33559 0.719469)
(1.39972 1.28885 0.667958)
(1.39426 1.32125 0.732015)
(1.43354 1.21919 0.672931)
(1.4148 1.209 0.671345)
(1.61173 1.45722 0.829308)
(1.58998 1.48521 0.821718)
(1.57102 1.50788 0.84419)
(1.59182 1.44343 0.760022)
(1.35404 1.27703 0.670115)
(1.3712 1.18537 0.66452)
(1.39323 1.19526 0.669418)
(0.96087 1.49117 1.3507)
(0.880007 1.04263 1.08393)
(1.03694 1.09748 1.20073)
(1.06848 1.20528 1.32714)
(1.122 1.2401 1.13754)
(0.86085 1.08719 1.32589)
(0.732718 1.22859 1.36629)
(0.775252 1.13809 1.37098)
(0.848018 1.0075 1.26063)
(1.14863 1.24821 1.21386)
(1.07705 1.12385 1.31014)
(0.927876 1.1481 1.30827)
(1.31277 1.23646 1.10638)
(1.08839 1.10823 1.25312)
(1.02839 1.2158 1.02603)
(1.0093 1.27412 0.978427)
(1.02141 1.25087 1.00608)
(1.15344 1.24045 1.06369)
(1.38162 1.2914 1.06706)
(1.12328 1.23113 1.08174)
(0.566128 1.25539 1.34337)
(0.687896 1.2824 1.34847)
(0.608887 1.17184 1.37847)
(1.03922 1.136 1.12934)
(0.678705 1.08022 1.35848)
(1.04737 1.08307 1.22061)
(1.05896 1.09124 1.24901)
(1.06491 1.09616 1.18281)
(1.09209 1.1179 1.26945)
(0.623895 1.24901 1.3703)
(0.544352 1.14297 1.36421)
(0.750132 0.990353 1.15637)
(0.967705 1.0524 1.10648)
(0.809843 0.995765 1.32072)
(1.00051 1.22009 1.20893)
(0.881122 1.12774 1.24025)
(0.93027 1.16227 1.23257)
(1.02702 1.09843 1.14)
(0.879954 1.07552 1.25797)
(1.21234 1.22626 1.12809)
(1.25513 1.21939 1.23583)
(1.24023 1.22928 1.09907)
(0.983515 1.25479 1.03324)
(0.95136 1.15023 1.31588)
(1.01206 1.30807 1.23847)
(0.941128 1.18709 1.364)
(1.15282 1.26453 1.249)
(1.10331 1.24292 1.1923)
(0.979768 1.14246 1.35306)
(1.29979 1.29341 1.17503)
(1.28464 1.2576 1.22164)
(0.854296 1.10979 1.34536)
(0.754459 1.28127 1.36734)
(0.80167 1.05475 1.35807)
(0.84455 1.03992 1.33824)
(0.997463 1.0722 1.16488)
(0.998453 1.07351 1.16745)
(1.00544 1.0703 1.17808)
(1.03528 1.0764 1.2092)
(0.962463 1.41625 1.32937)
(0.968385 1.23459 1.26921)
(0.971192 1.32296 1.23888)
(0.895296 1.18794 1.33198)
(0.973223 1.44951 1.32468)
(1.15448 1.21936 1.20945)
(1.11481 1.24505 1.15319)
(0.983969 1.38244 1.20818)
(0.986844 1.47807 1.3081)
(0.965477 1.12624 1.36715)
(0.970437 1.04376 1.12963)
(0.878058 1.18605 1.20591)
(0.867659 1.06289 1.29411)
(1.18746 1.40709 1.00443)
(1.46189 1.43186 1.09154)
(1.49191 1.41726 1.08631)
(1.45892 1.54708 1.20072)
(1.44715 1.48441 1.19674)
(1.2458 1.41706 1.02221)
(1.4658 1.35919 1.14649)
(1.49644 1.38458 1.13358)
(1.35899 1.29438 1.08659)
(1.46674 1.21183 1.0464)
(1.45023 1.48699 1.22788)
(1.25047 1.40162 1.02277)
(1.35338 1.45736 1.33186)
(1.12208 1.2783 1.02643)
(1.3521 1.41567 1.07494)
(1.51714 1.37593 1.08287)
(1.50394 1.37107 1.09326)
(1.48888 1.36444 1.14232)
(1.47637 1.52571 1.24014)
(1.49899 1.51492 1.16969)
(1.47625 1.41563 1.12277)
(1.4073 1.5059 1.18826)
(1.47211 1.38449 1.14337)
(1.46875 1.43544 1.10091)
(1.45131 1.4368 1.17808)
(1.45312 1.38494 1.17354)
(1.48417 1.51158 1.17955)
(1.11962 1.25344 1.03082)
(1.0824 1.31486 1.04132)
(1.36122 1.33813 0.980109)
(1.203 1.28968 0.976613)
(1.15916 1.28327 0.991575)
(1.45766 1.38575 1.06705)
(1.44763 1.21496 1.06057)
(1.4673 1.29995 1.02921)
(1.4589 1.20287 1.06271)
(1.47513 1.18774 1.03117)
(1.30965 1.43697 1.03233)
(1.28126 1.47713 1.06496)
(1.22521 1.40489 1.23532)
(1.3406 1.44049 1.2281)
(1.42473 1.47143 1.26098)
(1.31563 1.41807 1.04632)
(1.31382 1.37145 1.08811)
(1.36995 1.38316 1.06141)
(1.28084 1.24242 1.11172)
(1.38007 1.33042 1.07114)
(1.36745 1.3613 1.08901)
(1.37215 1.42289 1.0621)
(1.31329 1.36051 1.02371)
(1.2974 1.26305 1.07602)
(1.35474 1.34418 1.04583)
(1.29747 1.43808 1.32164)
(1.4175 1.45235 1.24302)
(1.4033 1.44617 1.25218)
(1.11754 1.31983 1.02005)
(1.341 1.28375 1.04046)
(1.24721 1.46088 1.02421)
(1.19575 1.4055 1.20884)
(1.28195 1.46955 1.00662)
(1.36302 1.45133 1.34199)
(1.23865 1.36956 1.05843)
(1.36603 1.41206 1.28993)
(1.46783 1.20157 1.02311)
(1.47882 1.39939 1.03293)
(1.48338 1.41 1.0371)
(1.34554 1.46183 1.2242)
(1.46339 1.54735 1.1826)
(1.52817 1.38798 1.07142)
(1.51012 1.40928 1.10493)
(1.43904 1.52253 1.27631)
(1.50343 1.4193 1.07801)
(1.29279 1.33283 0.915215)
(1.46278 1.42678 0.989949)
(1.34054 1.46503 0.746139)
(1.23305 1.38795 0.988861)
(1.45189 1.43941 0.831199)
(1.5126 1.41549 1.00603)
(1.18822 1.31677 0.877042)
(1.4987 1.43168 0.917709)
(1.12245 1.32484 0.895421)
(1.26245 1.47635 0.878761)
(1.47017 1.24013 0.96897)
(1.23875 1.35581 0.853702)
(1.54481 1.37383 1.00359)
(1.10706 1.27482 0.975233)
(1.28573 1.2859 0.955026)
(0.996821 1.35513 0.836408)
(1.03919 1.27625 1.00593)
(1.1034 1.23705 0.92326)
(1.1851 1.29743 0.956077)
(1.18727 1.31541 0.880794)
(1.0218 1.42267 0.65485)
(1.01525 1.36979 0.851599)
(1.17642 1.24812 0.814486)
(1.24132 1.2877 0.826015)
(1.29238 1.39677 0.919026)
(1.27999 1.36398 0.896605)
(1.30178 1.38171 0.965207)
(1.50496 1.42026 0.906675)
(1.23157 1.51421 0.724603)
(1.2154 1.51467 0.722776)
(1.27827 1.50141 0.738777)
(1.18974 1.28523 0.844578)
(1.27129 1.32275 0.909941)
(1.10713 1.42314 0.765357)
(1.08824 1.37805 1.00841)
(1.09035 1.40352 0.845472)
(1.18789 1.38648 0.949839)
(1.41989 1.44437 0.791217)
(1.11542 1.3932 0.995691)
(1.20395 1.35727 0.835906)
(1.27086 1.37751 0.921959)
(1.24775 1.42874 0.960782)
(1.37015 1.46856 0.862193)
(1.3597 1.45783 0.79699)
(1.51498 1.42546 0.977663)
(1.20245 1.48959 0.874865)
(1.52866 1.39612 0.964994)
(1.35794 1.47299 0.900368)
(1.4085 1.4763 0.95114)
(1.43665 1.25539 0.919651)
(1.40597 1.4684 0.920602)
(1.23222 1.48276 0.850041)
(1.14817 1.44837 0.960225)
(1.48953 1.4485 1.03197)
(1.46812 1.41077 0.992003)
(1.44835 1.19175 0.948513)
(1.43011 1.19516 0.937606)
(1.32762 1.46532 0.7968)
(1.53739 1.38094 1.02496)
(1.53829 1.41415 1.01682)
(1.50872 1.43748 0.92931)
(1.41521 1.47046 0.814413)
(1.46807 1.2084 0.978326)
(1.50063 1.4146 1.03929)
(1.51414 1.41178 1.03504)
(1.53322 1.39271 1.00472)
(1.46475 1.1824 0.965174)
(1.54032 1.39525 0.964686)
(1.06666 1.17931 0.693839)
(0.688125 1.29023 0.798816)
(0.931321 1.28214 0.756997)
(0.759444 1.40044 0.884836)
(0.916529 1.22539 0.683577)
(1.27926 1.25437 0.822058)
(0.607168 0.984045 0.70308)
(1.02305 1.1996 0.800846)
(0.928864 1.37798 0.760729)
(0.906737 1.15263 0.766123)