/*--------------------------------*- C++ -*----------------------------------*\
| =========                 |                                                 |
| \\      /  F ield         | OpenFOAM: The Open Source CFD Toolbox           |
|  \\    /   O peration     | Version:  v1806                                 |
|   \\  /    A nd           | Web:      www.OpenFOAM.com                      |
|    \\/     M anipulation  |                                                 |
\*---------------------------------------------------------------------------*/
FoamFile
{
    version     2.0;
    format      ascii;
    class       vectorField;
    location    "0.114";
    object      currentcloudofpoints;
}
// * * * * * * * * * * * * * * * * * * * * * * * * * * * * * * * * * * * * * //


2409
(
(1.11796 1.13349 1.3331)
(0.86162 1.00242 1.07969)
(1.48168 1.14275 1.0009)
(1.19086 1.43161 0.663255)
(1.30256 1.52506 1.19138)
(1.28347 1.13301 0.999562)
(1.42642 1.25082 1.01093)
(0.567638 1.24199 0.572808)
(1.65592 1.06197 0.995252)
(1.00437 1.14543 0.614299)
(1.35934 1.22356 1.44375)
(1.45339 1.16685 1.10851)
(1.39841 1.37258 1.25977)
(1.17664 1.46225 1.36643)
(1.44998 1.25264 1.15836)
(1.47247 1.14987 1.06334)
(1.43667 1.18653 1.13564)
(1.17991 1.49915 1.00709)
(1.40544 1.3814 1.24938)
(1.32431 1.29104 1.23939)
(0.854608 0.925695 1.14623)
(0.525588 1.36755 1.17299)
(1.22458 1.40301 1.12354)
(0.995982 1.17919 1.32372)
(0.915374 0.856645 1.12752)
(0.599283 1.11511 1.44247)
(0.69164 1.17209 1.20195)
(0.980005 1.31648 1.40644)
(1.18302 1.29544 1.2464)
(1.47685 1.20203 0.901478)
(1.45343 1.2791 0.90889)
(1.31623 1.45062 0.883909)
(1.28577 1.50195 0.677853)
(1.48344 1.16742 0.940912)
(1.46709 1.23956 0.904721)
(1.3512 1.32213 0.693304)
(1.30764 1.45525 0.888956)
(1.27838 1.49884 0.787169)
(0.764854 1.47133 0.539514)
(0.463113 1.02747 0.865524)
(0.70748 1.02993 0.907887)
(0.897757 0.883061 0.814712)
(1.02197 1.22485 0.796853)
(1.18205 1.45265 0.823302)
(0.495333 0.943254 0.833021)
(1.09055 0.951857 0.72629)
(0.82755 0.92443 0.839804)
(1.22245 1.35062 1.33507)
(1.26235 1.11157 1.1487)
(1.16354 1.16843 1.33614)
(1.21485 1.16484 1.00304)
(1.21401 1.54865 1.33966)
(1.29018 1.33716 1.37459)
(1.20576 1.07753 1.18543)
(1.51699 1.36395 1.03412)
(1.11985 1.17322 1.38295)
(1.33451 1.16308 0.841986)
(1.03802 1.485 0.596706)
(1.11316 1.71801 0.669624)
(1.17541 1.41455 0.609194)
(1.05714 1.74479 0.987126)
(1.37675 1.35736 0.790402)
(1.14409 1.51048 0.963723)
(1.24817 1.26271 0.882501)
(1.27147 1.48059 0.757591)
(1.03238 0.928743 1.17275)
(0.802804 0.94335 1.10135)
(1.11422 1.1138 1.21615)
(1.07358 1.69598 1.06718)
(1.0571 1.02757 1.17602)
(0.920425 0.865569 1.13181)
(0.917415 1.26653 1.10928)
(1.17518 1.32132 0.966449)
(0.92942 1.67022 0.995584)
(1.14488 1.65696 0.975691)
(1.65344 1.34773 1.24054)
(1.66244 1.32662 1.20358)
(1.51562 1.16826 1.0029)
(1.22035 1.2611 0.99098)
(1.49621 1.4233 1.24942)
(1.67131 1.32545 1.18982)
(1.59434 1.36265 1.25874)
(1.50357 1.14752 0.998609)
(0.502348 1.06121 1.26887)
(0.445155 1.13283 1.21835)
(0.684282 1.16495 1.53647)
(1.11091 1.32319 1.47702)
(1.0919 1.11867 1.60201)
(1.10665 1.0042 1.53578)
(1.38802 1.31115 1.44562)
(0.74037 1.37322 1.32573)
(0.46542 1.06031 1.25822)
(0.505112 1.34996 1.39799)
(0.847763 1.39846 1.46754)
(1.11902 1.03245 1.51148)
(1.18133 0.999153 1.36869)
(1.23266 1.44606 1.19041)
(1.41199 1.17507 1.38311)
(1.30151 1.21342 1.46176)
(1.224 1.16984 1.34848)
(1.34773 1.13058 1.27315)
(1.41093 1.12965 1.26289)
(1.44577 1.08626 1.25039)
(1.53436 1.06045 1.21598)
(1.6272 1.06379 1.1407)
(1.30195 1.29569 1.48506)
(1.2483 1.24953 1.44465)
(1.30217 1.13926 1.28619)
(1.38568 1.13294 1.26421)
(1.42358 1.11532 1.25668)
(1.48119 1.06849 1.23258)
(1.58004 1.06034 1.1865)
(1.64714 1.05676 1.07282)
(0.754594 1.10373 0.658001)
(0.526545 1.02616 0.818717)
(0.67595 1.30059 0.680072)
(0.896104 1.2171 0.829811)
(1.02457 1.01192 0.648806)
(1.08045 1.01536 0.442704)
(1.03065 1.02103 0.45954)
(0.818688 1.18288 0.933317)
(0.950017 1.19368 0.69551)
(0.662711 0.984104 0.907072)
(0.985513 1.08245 0.920986)
(1.1263 1.10018 0.551066)
(1.14935 0.951107 0.615055)
(1.09173 1.03951 0.43782)
(1.11696 1.2775 0.578397)
(1.62663 1.06767 0.852509)
(1.54635 1.06398 0.771817)
(1.46483 1.07641 0.731063)
(1.42028 1.1182 0.722735)
(1.3699 1.18181 0.749871)
(1.30962 1.19804 0.675844)
(1.29949 1.12453 0.617734)
(1.6434 1.0603 0.919548)
(1.58582 1.06506 0.805449)
(1.49948 1.06658 0.751626)
(1.43845 1.09795 0.723732)
(1.40077 1.13888 0.735683)
(1.30196 1.223 0.719473)
(1.3167 1.15011 0.672252)
(1.17117 1.29033 0.539348)
(1.27267 1.58043 1.1889)
(0.944652 1.605 1.2703)
(0.893346 1.71135 1.22496)
(1.02484 1.60112 1.36904)
(1.05655 1.29561 1.42353)
(1.07238 1.23719 1.47935)
(1.43317 1.22796 1.26698)
(1.27636 1.72144 1.0963)
(0.997721 1.77497 1.22465)
(0.968922 1.54382 1.322)
(0.947479 1.72471 1.2937)
(1.06664 1.42813 1.16519)
(1.08359 1.34373 1.53688)
(1.23996 1.10397 1.40635)
(1.47727 1.28643 1.28191)
(1.22506 1.66425 0.810023)
(1.0387 1.67787 0.843246)
(0.977823 1.75687 0.750285)
(0.977448 1.53807 0.601555)
(0.998239 1.47085 0.496251)
(1.01373 1.24385 0.479436)
(0.99451 1.27229 0.548646)
(1.21162 1.76541 0.903403)
(1.13865 1.68485 0.784637)
(1.01395 1.70241 0.83363)
(0.999561 1.74795 0.712646)
(1.02291 1.4635 0.550691)
(1.06073 1.40246 0.436436)
(1.16806 1.29719 0.498716)
(1.18737 1.2929 0.561515)
(0.63518 1.22485 0.6682)
(1.09593 1.67849 0.939525)
(1.02888 1.75245 1.07131)
(1.31069 1.66072 0.888189)
(1.19172 1.42939 1.0353)
(1.16794 1.6784 1.11181)
(1.1804 1.24781 0.97205)
(0.717584 1.48805 0.711091)
(0.811048 1.5708 0.99583)
(0.949655 1.70334 0.984045)
(1.0409 1.09858 0.734042)
(1.27742 1.42786 1.18728)
(1.41173 1.27428 1.05486)
(1.19161 1.23367 0.96486)
(1.19684 1.27249 0.976482)
(1.17637 1.545 0.990562)
(1.44269 1.43394 1.06284)
(1.44884 1.43878 1.01837)
(1.57452 1.40247 1.26378)
(1.62329 1.36334 1.06834)
(1.66653 1.32004 1.00271)
(1.69076 1.19978 0.994462)
(1.35129 1.40111 1.07836)
(1.20448 1.38747 1.34863)
(1.47588 1.41638 1.09449)
(1.45804 1.45402 1.03707)
(1.6554 1.37114 1.14745)
(1.64832 1.33597 1.01471)
(1.68815 1.24785 0.994621)
(1.68021 1.12785 0.994914)
(1.06824 1.1598 0.721081)
(1.22131 1.2198 0.644125)
(1.30423 1.49793 0.861937)
(1.41658 1.24317 1.38516)
(1.24456 1.48028 1.35888)
(1.30597 1.16299 1.37019)
(0.614635 1.11589 0.791723)
(1.10482 1.11455 0.863862)
(0.867133 1.18321 0.657659)
(1.51857 1.07076 0.994097)
(1.49846 1.10799 0.997412)
(1.56549 1.03615 0.993429)
(1.28175 1.39074 1.24056)
(1.43125 1.60494 1.08588)
(1.36775 1.5575 1.23794)
(1.66383 1.28949 1.29122)
(1.20776 1.66416 1.25289)
(1.37828 1.27725 1.27814)
(1.65418 1.16284 1.21965)
(1.59355 1.25887 1.33642)
(1.12649 1.6438 1.3432)
(1.57437 1.62355 1.21274)
(1.59368 1.65789 1.14724)
(0.970238 1.59337 1.30555)
(1.55919 1.47775 1.15096)
(1.71054 1.27509 1.24138)
(1.40761 1.46829 0.97933)
(1.69923 1.27642 1.10497)
(1.53504 1.32318 1.31193)
(1.71807 1.33453 1.17466)
(1.15771 1.82271 1.20115)
(1.27654 1.16584 1.36139)
(1.1688 1.28939 1.10407)
(1.46744 1.5188 1.30863)
(1.51339 1.15391 1.29725)
(1.34815 1.67367 1.15727)
(1.01306 1.787 1.24009)
(1.3664 1.48962 1.28141)
(1.51526 1.2539 1.24792)
(1.58283 1.36112 1.33636)
(1.17985 1.7744 1.09214)
(1.3132 1.14335 1.36272)
(1.68315 1.17089 1.09145)
(1.31533 1.45172 1.27965)
(1.01833 1.4088 1.0074)
(1.55105 1.35303 1.31287)
(1.58648 1.55328 1.09547)
(1.65737 1.403 1.25541)
(1.25986 1.22225 1.40529)
(1.34909 1.17153 1.29091)
(1.36394 1.14803 1.34684)
(1.29253 1.16077 1.40337)
(1.2809 1.21557 1.42037)
(1.39554 1.1586 1.284)
(1.42794 1.17921 1.27506)
(1.4852 1.28602 1.23701)
(1.44859 1.22994 1.24463)
(1.46894 1.2548 1.23408)
(1.5411 1.34067 1.31685)
(1.46257 1.23434 1.23266)
(1.46219 1.16697 1.25377)
(1.54929 1.30478 1.25362)
(1.4726 1.1213 1.26062)
(1.51167 1.09569 1.25054)
(1.50064 1.20795 1.26563)
(1.58681 1.10074 1.2268)
(1.63741 1.11447 1.1762)
(1.57333 1.14034 1.27911)
(1.66136 1.11078 1.11983)
(1.67535 1.11071 1.0463)
(1.66882 1.16205 1.15438)
(1.68773 1.18524 1.04489)
(1.31885 1.62756 1.07988)
(1.26004 1.63376 1.21752)
(1.17542 1.76786 1.12686)
(1.29781 1.66936 1.19336)
(1.31086 1.70783 1.08347)
(1.33413 1.50508 1.23354)
(1.35304 1.6895 1.0417)
(1.31489 1.55644 1.13234)
(1.62286 1.58181 1.07545)
(1.59814 1.54717 1.09369)
(1.20701 1.35178 1.34884)
(1.6999 1.36059 1.1944)
(1.60972 1.41441 1.26721)
(1.6363 1.61365 1.20536)
(1.67275 1.32183 1.07897)
(1.6861 1.34119 1.12342)
(1.7102 1.34084 1.22093)
(1.68679 1.23405 1.05026)
(1.67737 1.29405 1.05283)
(1.70946 1.29809 1.13)
(1.68838 1.21432 1.0989)
(1.28943 1.50724 1.15945)
(1.322 1.56892 1.03038)
(1.36473 1.59101 0.996706)
(1.474 1.64423 1.14423)
(1.42858 1.60401 1.05524)
(1.33066 1.54489 1.10694)
(1.39367 1.60086 1.09517)
(1.47803 1.55513 0.99384)
(1.57116 1.6669 1.15119)
(1.30296 1.26157 1.15572)
(1.5213 1.3453 1.28954)
(1.4949 1.39213 1.34615)
(1.36537 1.18732 1.32216)
(1.52473 1.31755 1.27537)
(1.53426 1.47621 1.11881)
(1.48001 1.49099 1.12096)
(1.08796 1.5834 1.06587)
(1.1868 1.38112 1.06896)
(1.24893 1.5854 1.01427)
(1.23234 1.31214 1.04395)
(1.54071 1.587 1.05594)
(1.67851 1.30938 1.27441)
(1.70293 1.28762 1.24535)
(1.62208 1.4519 1.27827)
(1.66131 1.50522 1.21724)
(1.6004 1.33016 1.3362)
(1.60801 1.37576 1.33772)
(1.63011 1.2699 1.31507)
(1.68619 1.26819 1.26856)
(1.64954 1.25683 1.30641)
(1.72176 1.29677 1.20297)
(1.56184 1.50887 1.26295)
(1.49195 1.53409 1.33587)
(1.21945 1.73569 1.22629)
(1.23071 1.73502 1.17272)
(1.2384 1.69512 1.27745)
(1.1277 1.79231 1.12661)
(1.14168 1.79167 1.16168)
(0.904864 1.75499 1.13309)
(1.19549 1.67359 1.16675)
(0.949559 1.64874 1.23355)
(0.915207 1.64528 1.20723)
(1.0644 1.80789 1.24793)
(0.961316 1.5595 1.30236)
(0.967828 1.72492 1.2844)
(0.893682 1.7092 1.11596)
(1.03292 1.46443 1.16462)
(1.04203 1.69569 1.29159)
(0.958537 1.73447 1.23549)
(1.19823 1.43999 1.10536)
(1.10578 1.39058 1.44439)
(1.00961 1.64942 1.14332)
(1.27924 1.12456 1.38343)
(1.40234 1.19515 1.2868)
(1.41611 1.25131 1.27108)
(1.31579 1.15007 1.33929)
(1.23118 1.24645 1.0291)
(1.26272 1.49871 1.19923)
(1.0125 1.68663 1.28672)
(1.33785 1.67128 1.03077)
(1.35731 1.65041 1.10326)
(1.11598 1.44847 1.00822)
(1.55574 1.6358 1.12399)
(1.68913 1.20002 1.17015)
(1.23433 1.31145 1.02522)
(1.19913 1.3476 1.00929)
(1.20465 1.55253 0.978737)
(1.1615 1.57329 1.02455)
(1.5447 1.63142 1.04727)
(1.68102 1.20956 1.242)
(1.62078 1.19903 1.29472)
(1.55727 1.20491 1.31665)
(1.71523 1.25564 1.17887)
(1.58268 1.27372 1.31718)
(1.5291 1.49546 1.18967)
(1.55232 1.24197 1.2722)
(1.15819 1.6888 1.32549)
(1.4494 1.52557 1.34588)
(1.40477 1.58664 1.29729)
(1.49679 1.53664 1.24124)
(1.5524 1.44763 1.15982)
(1.51061 1.42969 1.1815)
(1.51402 1.48883 1.28171)
(1.57419 1.29846 1.26363)
(0.801253 1.61553 1.45076)
(0.649427 1.46771 1.42406)
(1.1349 1.14498 1.05695)
(0.580428 1.29621 1.26469)
(0.727661 1.4667 1.29901)
(0.974334 1.432 1.48669)
(0.540849 1.07137 1.32665)
(0.949415 1.57119 1.27133)
(1.18796 1.20789 1.56339)
(1.14738 1.11016 1.14113)
(0.605365 1.29204 1.28363)
(0.895161 1.64976 1.21204)
(0.997824 1.43937 1.40935)
(0.992559 1.31943 1.48767)
(1.07711 1.37797 1.4715)
(0.8634 1.676 1.14604)
(0.428548 1.11157 1.23586)
(1.09226 1.26909 1.48774)
(0.554955 0.958026 1.13632)
(0.771931 1.32141 1.37507)
(1.02546 1.34572 1.50498)
(0.905579 1.56218 1.24931)
(1.08096 1.36493 1.49671)
(0.792605 1.25004 1.25933)
(0.677834 1.33662 1.13251)
(0.815088 1.10186 1.14052)
(0.935024 1.13224 1.23121)
(0.672695 1.52556 1.39696)
(0.956385 1.33257 1.47242)
(0.854104 1.60227 1.401)
(0.629003 1.32056 1.3654)
(0.65263 1.29081 1.39843)
(0.986784 1.15248 0.972405)
(1.36648 1.27899 1.46261)
(0.826729 1.42703 1.04673)
(1.22658 1.56016 1.07065)
(1.18737 1.29023 1.18087)
(0.664365 1.2238 1.2757)
(0.581637 1.20441 1.08856)
(0.504223 1.20014 1.31261)
(0.660253 1.1054 1.35655)
(0.602062 0.946879 1.14405)
(0.460071 1.16449 1.27784)
(0.429876 1.14381 1.23014)
(0.650783 1.11151 1.36729)
(0.483862 1.02133 1.03032)
(0.553617 0.937646 1.11759)
(0.437387 1.13817 1.22356)
(1.05762 1.03117 1.58548)
(1.24572 1.39964 1.18535)
(1.12244 1.20785 1.58545)
(1.15739 1.08466 1.55909)
(1.04894 1.27474 1.50162)
(1.49692 1.29511 1.2893)
(1.46296 1.27798 1.31552)
(1.15526 1.3837 1.52863)
(0.823201 1.59162 1.24795)
(0.788863 1.55295 1.28448)
(0.740265 1.46274 1.34531)
(0.886776 1.59265 1.21891)
(0.756481 1.51906 1.36166)
(0.612711 1.3978 1.22767)
(0.652606 1.43744 1.26711)
(0.994142 1.58169 1.38922)
(0.918098 1.35481 1.34945)
(0.611465 1.38374 1.21529)
(0.937907 1.64672 1.29914)
(0.981014 1.27313 1.37369)
(0.582397 1.26998 1.18251)
(0.542026 0.98908 1.12393)
(0.576333 1.38534 1.11243)
(0.628369 1.43931 1.1224)
(0.983978 1.32918 1.23964)
(0.927952 0.895961 1.02992)
(0.809329 1.38539 1.3964)
(1.082 1.70048 1.23996)
(0.905885 1.60916 1.19005)
(0.920584 1.5818 1.22231)
(0.9709 1.47175 1.07551)
(1.05688 1.73643 1.27079)
(0.781573 1.54435 1.41986)
(0.91345 1.65407 1.33274)
(1.2709 1.4159 1.26338)
(1.06291 1.37566 1.47874)
(1.01692 1.33137 1.34081)
(1.05172 1.38876 1.5015)
(0.993068 1.43558 1.5025)
(0.915685 1.54059 1.46407)
(0.861979 1.54214 1.48571)
(0.583266 1.3742 1.18829)
(1.10698 1.19425 1.59376)
(0.976533 1.31163 1.4828)
(1.04223 1.30946 1.4974)
(1.05837 1.27399 1.51646)
(0.963295 1.42511 1.43637)
(0.939506 1.4772 1.43405)
(0.989175 1.37162 1.46568)
(0.977865 1.38759 1.44249)
(0.918519 1.49146 1.42326)
(1.01706 1.36258 1.25845)
(1.01948 1.57196 1.37854)
(1.06576 1.3122 1.43222)
(1.0817 1.32611 1.4519)
(1.06758 1.33213 1.46297)
(1.05143 1.35239 1.48961)
(0.843574 1.66991 1.18934)
(0.938045 1.4748 1.24661)
(1.28555 1.15263 1.43883)
(1.07938 1.2481 1.48061)
(1.033 1.26166 1.51227)
(1.04788 1.28383 1.53508)
(1.34769 1.16082 1.42052)
(1.31511 1.20627 1.48646)
(1.1442 1.26993 1.57415)
(1.0461 1.23762 1.48538)
(1.07546 1.35988 1.52824)
(0.843217 1.17857 1.1524)
(0.595148 1.30021 1.28746)
(0.911359 1.18271 1.23421)
(0.96138 1.06759 1.08853)
(0.896335 1.25935 1.34828)
(1.18708 1.051 1.21984)
(1.16366 1.17981 1.06767)
(0.494489 1.21419 1.32599)
(0.946191 1.57882 1.29505)
(1.15756 1.78628 1.22646)
(1.26581 1.59133 1.21259)
(1.0804 1.13116 1.28449)
(0.951152 1.64284 1.29547)
(0.892693 1.54731 1.4478)
(0.777403 1.60479 1.44033)
(0.651648 1.4795 1.28698)
(0.955468 1.1076 1.28792)
(0.728531 1.59972 1.41706)
(0.906053 0.991887 1.07947)
(0.730126 1.58605 1.40202)
(0.763113 1.48902 1.06858)
(1.12125 1.61258 1.30089)
(1.2509 1.56146 1.14079)
(0.865133 1.48492 1.01178)
(0.888565 1.17472 1.33821)
(0.844874 1.193 1.32102)
(0.944718 1.34032 1.36755)
(0.816995 1.28026 1.37056)
(1.05998 1.68469 1.21351)
(0.828076 1.48978 0.981994)
(1.09186 1.15784 1.17755)
(1.12688 1.26958 1.12338)
(0.907411 1.53002 1.02568)
(0.666934 1.19441 1.32722)
(0.943164 1.3391 1.45922)
(0.771996 1.10948 1.26995)
(0.628537 1.26126 1.326)
(0.877674 1.36061 1.46456)
(0.981141 1.35858 1.46453)
(0.994628 1.39735 1.48253)
(0.602098 1.41586 1.17544)
(1.11159 1.17213 1.02218)
(1.12525 1.23043 1.09935)
(1.07812 1.29095 0.971344)
(0.929012 1.33783 1.13378)
(0.623364 1.50475 1.29859)
(0.612073 1.39808 1.27827)
(0.647488 1.48379 1.44128)
(0.900845 1.19774 1.34018)
(0.902245 1.33576 1.00178)
(0.830665 1.31835 1.31258)
(0.792169 1.28598 1.2285)
(0.647225 1.25241 1.37338)
(0.49649 1.30134 0.744938)
(0.918391 1.69907 0.726419)
(0.746233 1.09583 0.722932)
(0.495907 1.24855 0.753698)
(0.832536 1.42585 0.951818)
(0.841581 1.62584 0.750801)
(0.95193 1.74381 0.673252)
(0.798462 1.42716 0.609493)
(0.629397 1.20153 0.470269)
(0.983263 1.53253 0.705893)
(1.03571 1.3605 0.967138)
(0.959785 1.74604 0.634375)
(0.847119 1.62405 0.697277)
(0.538072 1.33031 0.721848)
(0.606052 1.26323 0.591932)
(0.980604 1.70766 0.792923)
(0.931599 1.35485 0.687637)
(0.461813 1.08568 0.821348)
(1.02911 1.22715 0.543968)
(1.14069 1.16021 0.888975)
(0.937361 1.3016 0.759316)
(0.737227 1.26 0.806564)
(0.941658 1.25169 0.781926)
(1.16788 1.0887 0.934764)
(0.952684 1.70968 0.829343)
(0.65875 1.56583 0.766513)
(0.633272 1.26527 0.575661)
(1.18508 1.11073 0.908931)
(0.954503 1.41344 0.488799)
(0.66863 1.37965 0.845165)
(0.757587 1.5019 0.551526)
(0.967541 1.20276 0.781201)
(1.22879 1.65837 0.761327)
(0.68085 1.53295 0.626075)
(0.917489 1.32199 0.578846)
(1.21178 1.35095 0.52183)
(0.551951 1.37418 0.84946)
(0.571884 1.30475 0.745582)
(0.726321 1.08208 0.705835)
(0.71547 1.08558 0.700608)
(0.711757 1.13191 0.766963)
(0.655872 1.54418 0.696558)
(0.901628 1.49257 0.839098)
(0.449742 1.16125 0.680046)
(0.46235 1.44248 0.680055)
(0.615369 1.48415 0.556312)
(0.848673 1.37205 0.625271)
(0.926172 1.40303 0.732503)
(0.984639 1.44439 0.434367)
(0.94499 1.48644 0.684951)
(0.896833 1.32677 0.640059)
(0.981649 1.41622 0.432573)
(0.921641 1.4692 0.694774)
(0.691591 1.37873 0.751687)
(0.825408 1.56591 0.815333)
(0.842913 1.61089 0.791655)
(0.940302 1.40352 0.710705)
(0.737477 1.52402 0.570539)
(1.08744 1.30302 0.518317)
(1.26051 1.24967 0.555991)
(1.04081 1.3061 0.506211)
(1.01152 1.67889 0.783736)
(0.921646 1.64992 0.660595)
(0.961218 1.52999 0.638714)
(0.964277 1.72137 0.808294)
(1.00499 1.71921 0.801985)
(1.11656 1.53445 0.967825)
(1.16677 1.39937 0.977117)
(0.988622 1.70683 0.833573)
(1.03677 1.70884 0.806656)
(1.05301 1.77285 0.68927)
(0.993098 1.7845 0.756991)
(1.35311 1.65328 0.805763)
(1.03018 1.24251 0.494997)
(0.979241 0.995622 0.52057)
(0.860151 1.45267 0.517416)
(0.958854 1.49789 0.486283)
(1.06888 1.25699 0.461849)
(0.566532 1.47217 0.642185)
(0.815318 1.4697 0.774155)
(0.781323 1.07829 0.761353)
(0.888107 1.12391 0.963545)
(1.12222 1.0971 0.798532)
(1.12009 1.03561 0.473431)
(0.766774 1.33892 0.539763)
(1.00263 1.03131 0.546398)
(0.554325 1.361 0.784153)
(0.910851 1.56565 0.729664)
(0.950332 1.53168 0.716419)
(0.797908 1.54198 0.752355)
(0.959315 1.70591 0.788055)
(0.930923 1.4352 0.731683)
(1.00451 1.48393 0.711861)
(0.980766 1.56298 0.702302)
(0.703073 1.41469 0.751923)
(0.815151 1.48262 0.817455)
(0.698436 1.55799 0.686615)
(0.637206 1.18171 0.912175)
(0.648885 1.32244 0.808035)
(0.765827 1.51008 0.562995)
(0.944323 1.42726 0.44612)
(0.833718 1.47538 0.506125)
(1.10639 1.43738 0.956189)
(0.934411 1.05976 0.906495)
(1.12513 1.12321 0.450802)
(1.00952 1.69666 0.648975)
(0.918216 1.71419 0.803343)
(0.975777 1.70128 0.651104)
(0.991468 1.51794 0.605313)
(0.988465 1.73984 0.678291)
(0.973875 1.7459 0.710404)
(1.00682 1.42159 0.52541)
(1.01378 1.4559 0.53904)
(1.0196 1.37759 0.620771)
(0.920072 1.62232 0.618262)
(0.893098 1.38788 0.518499)
(0.956938 1.43497 0.689139)
(0.994709 1.59794 0.753964)
(0.80351 1.56616 0.81534)
(0.827136 1.37889 0.548314)
(0.915268 1.32482 0.619061)
(0.942194 1.39006 0.699394)
(0.808147 1.38239 0.550076)
(0.923103 1.4116 0.487164)
(0.492254 1.18882 0.681267)
(0.542319 1.23179 0.715565)
(0.656101 1.10175 0.636577)
(0.499707 1.10591 0.614761)
(0.420103 1.19044 0.685434)
(1.09576 1.20296 0.877628)
(0.865663 1.07766 0.784548)
(1.10889 1.18304 0.871769)
(0.891808 1.27734 1.02168)
(0.826247 1.33034 0.90792)
(0.734062 1.15917 0.867363)
(0.674742 1.08779 0.809966)
(1.09054 1.02331 1.0078)
(0.686184 1.07768 0.771389)
(0.409074 1.10765 0.744994)
(1.22998 1.64691 0.78124)
(1.19877 1.75203 0.925192)
(0.659452 1.02316 0.922233)
(0.682623 1.2561 0.638872)
(0.790867 1.25594 0.704869)
(0.699724 1.20502 0.623031)
(0.957041 1.07935 0.8484)
(0.951092 1.52502 0.998229)
(0.963869 1.51148 1.00218)
(1.11334 1.08647 0.828637)
(0.750546 1.35754 0.917756)
(0.739725 1.32378 0.625458)
(0.955504 1.22904 0.89882)
(0.912228 1.57448 0.963211)
(0.896265 1.52741 0.898667)
(0.973405 1.22736 0.887222)
(0.958058 1.63397 0.973863)
(1.02709 1.63184 0.914367)
(0.767592 1.50816 0.627941)
(1.14918 1.59883 0.891127)
(1.06144 1.20978 0.915799)
(0.919039 1.1321 0.661034)
(1.12205 1.17074 0.890663)
(0.953955 1.10048 0.862959)
(0.925729 1.1953 0.836278)
(0.819963 1.28003 0.880864)
(1.50026 1.65292 0.755813)
(1.38425 1.74271 0.789692)
(1.67221 1.3077 0.751159)
(1.01097 1.35517 0.989359)
(1.24757 1.78574 0.80903)
(1.64531 1.17552 0.771542)
(1.36559 1.23694 0.69677)
(1.36442 1.31054 0.656295)
(1.40863 1.77433 0.845287)
(1.40728 1.64821 0.83875)
(1.08667 1.68043 0.756066)
(1.54237 1.49259 0.729007)
(1.53823 1.401 0.659552)
(1.35637 1.34235 0.635682)
(1.4674 1.45652 0.599748)
(1.36073 1.13916 0.650025)
(1.5493 1.20153 0.680369)
(1.1613 1.34745 0.929262)
(1.17436 1.64955 0.985938)
(1.69347 1.26747 0.887225)
(1.65477 1.38963 0.895809)
(1.5919 1.32057 0.69534)
(1.44925 1.27133 0.731715)
(1.15281 1.66842 0.757351)
(1.23047 1.37551 0.77204)
(1.65707 1.41356 0.704913)
(1.482 1.27579 0.742444)
(1.39132 1.30154 0.828302)
(1.25896 1.78819 0.913192)
(1.68013 1.15099 0.890754)
(1.25095 1.24074 0.536934)
(1.63358 1.52056 0.749049)
(1.59831 1.39374 0.885129)
(1.49812 1.26098 0.701306)
(1.05144 1.69314 0.830307)
(1.37218 1.63211 0.902632)
(1.68724 1.16753 0.941855)
(1.67123 1.1038 0.944071)
(1.65785 1.105 0.867278)
(1.47897 1.71276 0.815833)
(1.38673 1.73041 0.763122)
(1.48885 1.6805 0.811162)
(1.49119 1.61226 0.918305)
(1.47061 1.6158 0.773786)
(1.53509 1.61754 0.763803)
(1.54761 1.65255 0.851114)
(1.39811 1.5084 0.742255)
(1.50183 1.57349 0.684219)
(1.56252 1.60519 0.735664)
(1.60636 1.54386 0.748573)
(1.58819 1.54284 0.683586)
(1.30559 1.37462 0.922808)
(1.2531 1.41333 0.738556)
(1.2987 1.75513 0.965909)
(1.04649 1.55944 1.00095)
(1.37311 1.70021 1.02707)
(1.33457 1.37613 0.714934)
(1.5071 1.45534 0.71809)
(1.17654 1.63695 0.993762)
(1.51826 1.47136 0.707355)
(1.61336 1.45205 0.747254)
(1.52158 1.47595 0.794571)
(1.60241 1.36682 0.981148)
(1.5748 1.37684 0.933717)
(1.63475 1.46757 0.80201)
(1.62991 1.36167 0.947612)
(1.66796 1.33479 0.937281)
(1.63154 1.38887 0.902856)
(1.68894 1.28176 0.942275)
(1.69135 1.21122 0.933682)
(1.6846 1.32702 0.883922)
(1.68532 1.19288 0.879756)
(1.01567 1.25133 0.557677)
(1.14972 1.3114 0.527594)
(1.30254 1.14207 0.581628)
(1.18986 1.66739 0.752856)
(1.22294 1.68768 0.821699)
(1.23912 1.78195 0.869107)
(1.22137 1.71985 0.878346)
(1.10917 1.65486 0.832655)
(1.18479 1.68649 0.790367)
(1.37335 1.72946 0.960159)
(1.30461 1.7943 0.905847)
(1.32743 1.80376 0.81697)
(1.27784 1.76454 0.737125)
(1.65348 1.23723 0.755803)
(1.60642 1.24856 0.702618)
(1.5959 1.17927 0.71567)
(1.54546 1.11406 0.726216)
(1.59237 1.10824 0.760485)
(1.67559 1.2101 0.820299)
(1.664 1.15752 0.825852)
(1.68612 1.28071 0.818089)
(1.63685 1.1141 0.809975)
(1.08252 1.69425 0.786305)
(1.00358 1.75085 0.732729)
(0.979171 1.73535 0.820171)
(1.11285 1.65789 0.776289)
(1.14717 1.5578 0.603783)
(1.13705 1.63139 0.609177)
(0.998328 1.75824 0.798753)
(1.10673 1.45392 0.760173)
(1.12632 1.54611 0.620522)
(1.09006 1.594 0.613704)
(1.23805 1.28128 0.525396)
(1.32178 1.14633 0.570244)
(1.40063 1.26928 0.686353)
(1.32249 1.15072 0.582187)
(1.43725 1.30131 0.796087)
(1.44919 1.50296 0.820257)
(1.38512 1.56212 0.899352)
(1.05646 1.40977 0.992209)
(1.39434 1.36755 0.677398)
(1.38966 1.45399 0.806797)
(1.21593 1.2964 0.909298)
(1.02399 1.52698 0.621762)
(1.35825 1.32653 0.968717)
(1.16898 1.59891 0.912252)
(1.42682 1.63743 0.895734)
(1.4351 1.49673 0.78546)
(1.04504 1.71243 0.607948)
(1.33592 1.60838 0.8065)
(1.35083 1.33118 0.892038)
(1.11266 1.69627 0.775067)
(1.32702 1.2171 0.649938)
(1.30406 1.2195 0.633317)
(1.40144 1.25186 0.729618)
(1.26796 1.28476 0.617228)
(1.36803 1.2103 0.659118)
(1.36455 1.19464 0.67743)
(1.34571 1.14349 0.685284)
(1.34234 1.22601 0.706719)
(1.37222 1.21642 0.736788)
(1.34167 1.1676 0.697236)
(1.28433 1.25524 0.641377)
(1.55762 1.35479 0.786621)
(1.25058 1.24539 0.66762)
(1.45652 1.68574 0.962042)
(1.51559 1.41358 0.630199)
(1.10254 1.67052 0.789542)
(1.65078 1.4516 0.841035)
(1.56984 1.37228 0.650591)
(1.60579 1.35661 0.711692)
(1.59641 1.33152 0.782702)
(1.59466 1.35399 0.655465)
(1.5763 1.4527 0.632856)
(1.65243 1.46908 0.72493)
(1.56811 1.29953 0.750107)
(1.50477 1.22446 0.674606)
(1.56704 1.27646 0.697738)
(1.47448 1.15834 0.702415)
(1.50148 1.12824 0.709091)
(1.60606 1.30351 0.683229)
(1.47371 1.28888 0.812923)
(1.49714 1.27443 0.735343)
(1.36479 1.27771 0.796396)
(1.46491 1.19643 0.701487)
(1.45146 1.1999 0.712391)
(1.6849 1.35812 0.823634)
(1.67804 1.39754 0.807999)
(1.66566 1.42305 0.832435)
(1.66535 1.34312 0.72658)
(1.46478 1.27784 0.749312)
(1.41071 1.20403 0.730394)
(1.43209 1.20139 0.725016)
(0.94697 1.45501 1.03971)
(0.862786 0.98074 0.927168)
(0.970589 1.2031 1.09499)
(1.14189 1.26366 1.27253)
(1.11889 1.41783 1.40088)
(1.11812 1.07421 1.09659)
(0.961816 1.25174 1.09506)
(0.826569 1.14354 1.16076)
(0.989933 1.30746 1.19345)
(1.26347 1.48577 1.28155)
(0.98818 0.936078 1.37775)
(0.947921 1.36683 1.23946)
(1.27816 1.31061 1.35089)
(0.983599 0.947017 1.39047)
(1.19453 1.18989 1.03048)
(1.22488 1.14871 0.908782)
(1.19109 1.15867 0.977734)
(1.28882 1.17019 1.04499)
(1.37347 1.39983 1.27379)
(1.26858 1.13115 1.22565)
(0.518898 1.39335 1.22852)
(0.85683 1.07607 1.26323)
(0.585024 1.2014 1.42496)
(0.984698 1.03999 1.31762)
(0.682814 1.04196 1.36591)
(0.968389 1.1389 1.1182)
(1.07578 0.941739 1.31397)
(1.02922 0.947126 1.34491)
(0.989611 0.962777 1.32978)
(0.516218 1.38454 1.34163)
(0.521384 1.21273 1.3836)
(1.08297 1.11257 1.03877)
(1.09208 0.936264 1.15347)
(0.797017 1.18822 1.17962)
(0.924775 1.33046 1.25965)
(0.96455 1.14444 1.19928)
(1.02354 1.18218 1.16891)
(0.997547 1.04122 1.29489)
(1.05685 1.08225 1.25773)
(1.17616 1.29765 1.43077)
(1.41301 1.2285 1.40058)
(1.23981 1.10934 1.1755)
(1.17506 1.20855 1.04074)
(0.996015 1.24577 1.12915)
(1.04844 1.17097 1.32414)
(0.956934 1.21027 1.36928)
(1.20402 1.43161 1.3196)
(1.18765 1.31756 1.26287)
(1.03622 1.0906 1.10973)
(1.28823 1.4272 1.38684)
(1.40643 1.34703 1.40295)
(1.032 0.960713 1.12589)
(0.879658 1.33263 1.26519)
(0.805764 1.11746 1.15474)
(0.857031 1.18244 1.12992)
(0.956549 1.27595 1.22742)
(0.965392 1.2762 1.22083)
(0.984879 1.22198 1.12404)
(0.982217 1.25405 1.1445)
(1.2095 1.25742 1.13546)
(0.986638 1.26852 1.32175)
(1.28084 1.2916 1.12353)
(0.910133 1.33661 1.25024)
(1.12333 1.31364 1.06927)
(1.1779 1.46342 1.24785)
(1.09152 1.36375 1.31578)
(1.2633 1.29077 1.1362)
(0.99281 1.65366 1.1122)
(1.02469 1.01182 1.13216)
(1.07703 0.961834 1.19915)
(0.945089 1.21676 1.20429)
(1.13928 1.07901 1.10096)
(1.40451 1.37515 1.00301)
(1.37094 1.49883 1.0615)
(1.53836 1.43743 1.29359)
(1.63735 1.48596 1.07624)
(1.54089 1.41623 1.22553)
(1.34845 1.41419 1.1189)
(1.45431 1.50395 1.19088)
(1.56817 1.37624 1.29346)
(1.34914 1.37154 1.31754)
(1.51021 1.16934 1.06618)
(1.61777 1.43446 1.16008)
(1.36547 1.42781 1.10563)
(1.45422 1.55211 1.29291)
(1.3516 1.19462 1.00087)
(1.31676 1.26391 1.15667)
(1.62824 1.31349 1.22125)
(1.57257 1.34238 1.2339)
(1.53797 1.40126 1.29916)
(1.66374 1.50909 1.13753)
(1.59965 1.43876 1.2172)
(1.4344 1.48691 1.08973)
(1.53781 1.43718 1.09206)
(1.45385 1.49108 1.13041)
(1.38988 1.50009 1.05836)
(1.45086 1.44765 1.11413)
(1.45706 1.48328 1.09073)
(1.58798 1.43294 1.22249)
(1.26869 1.18949 1.0063)
(1.32541 1.19556 1.01296)
(1.47251 1.40731 0.903138)
(1.42972 1.31046 0.936649)
(1.4213 1.25562 0.946501)
(1.43328 1.49978 1.17442)
(1.49821 1.18335 1.09093)
(1.56128 1.34408 1.16604)
(1.49196 1.1655 1.08757)
(1.50098 1.14536 1.04138)
(1.32212 1.39256 1.11625)
(1.32289 1.3907 1.06802)
(1.29048 1.46655 1.13962)
(1.49316 1.54533 1.13678)
(1.63148 1.4696 1.11123)
(1.32869 1.33766 1.13534)
(1.27007 1.25425 1.21623)
(1.24754 1.32093 1.27341)
(1.23129 1.29484 1.37084)
(1.31787 1.39968 1.32079)
(1.24578 1.4476 1.34313)
(1.28463 1.41655 1.10814)
(1.38455 1.43894 1.1201)
(1.44442 1.23116 1.14093)
(1.29674 1.34679 1.19301)
(1.38671 1.5458 1.29802)
(1.59691 1.43477 1.13231)
(1.59702 1.44873 1.11077)
(1.42612 1.25522 0.96658)
(1.42334 1.40334 1.22531)
(1.35615 1.38421 1.08941)
(1.18875 1.16397 1.1993)
(1.37718 1.39847 1.04985)
(1.45406 1.53979 1.29187)
(1.32385 1.37884 1.19073)
(1.5166 1.49631 1.11146)
(1.5116 1.16318 1.03391)
(1.5876 1.35973 1.24476)
(1.58837 1.36318 1.2527)
(1.52425 1.53333 1.0935)
(1.62702 1.43797 1.09017)
(1.65471 1.30869 1.22147)
(1.60098 1.34339 1.26868)
(1.65247 1.54345 1.16124)
(1.59125 1.36511 1.27481)
(1.26616 1.45617 0.648547)
(1.57922 1.38173 1.16825)
(1.4212 1.44371 0.757667)
(1.38814 1.41789 0.914664)
(1.57732 1.40386 0.759654)
(1.64141 1.36596 1.18091)
(1.22528 1.141 0.784177)
(1.5709 1.3383 0.869976)
(1.19612 1.13603 0.751026)
(1.23341 1.46228 0.982206)
(1.54501 1.24798 0.993949)
(1.20102 1.4872 0.684043)
(1.61102 1.32554 1.09756)
(1.31906 1.18247 0.974363)
(1.39925 1.39167 0.857875)
(1.20946 1.25898 0.902141)
(1.17941 1.21421 0.97613)
(1.31848 1.19707 0.867284)
(1.36276 1.31037 0.864312)
(1.26611 1.15782 0.831756)
(0.935175 1.40217 0.980522)
(1.2802 1.24223 0.93815)
(1.12575 1.32366 0.563292)
(1.06547 1.23328 0.632492)
(1.24596 1.40856 0.656785)
(1.23562 1.47613 0.658533)
(1.29607 1.3955 0.853643)
(1.57053 1.32267 0.872354)
(1.44382 1.56898 0.892853)
(1.42526 1.5654 0.904421)
(1.36168 1.3952 0.800713)
(1.05256 1.22321 0.624119)
(1.2703 1.38726 0.621331)
(1.30755 1.30243 0.881313)
(1.42352 1.26644 0.965853)
(1.21675 1.19951 0.898735)
(1.25613 1.33582 0.706798)
(1.54643 1.40861 0.704658)
(1.41666 1.31234 0.958395)
(1.19187 1.4754 0.698617)
(1.25307 1.4024 0.636388)
(1.34665 1.404 0.926123)
(1.43829 1.40564 0.735453)
(1.42903 1.42773 0.724973)
(1.58382 1.36603 1.0594)
(1.14044 1.64489 0.948012)
(1.59593 1.32185 1.00951)
(1.39972 1.36289 0.734319)
(1.51353 1.45128 0.843826)
(1.50743 1.34603 0.933634)
(1.50674 1.45154 0.812982)
(1.16591 1.62428 0.936014)
(1.39311 1.33104 1.01225)
(1.58735 1.38346 1.25576)
(1.59534 1.37641 1.17701)
(1.50539 1.19194 0.940809)
(1.50021 1.21848 0.930277)
(1.32312 1.4234 0.744494)
(1.64916 1.33287 1.15629)
(1.65591 1.35481 1.16566)
(1.57669 1.33946 0.88945)
(1.54149 1.4306 0.704817)
(1.52304 1.18408 0.980747)
(1.62392 1.35173 1.24209)
(1.6503 1.3474 1.22627)
(1.6269 1.34868 1.13122)
(1.50201 1.16393 0.959495)
(1.60107 1.3121 1.00538)
(1.04283 1.30954 0.580458)
(0.548278 1.34245 0.570127)
(0.979199 1.35206 0.915428)
(0.818294 1.5396 0.645784)
(1.20542 1.36679 0.770342)
(1.04641 1.16501 0.67759)
(0.479534 1.04851 0.749679)
(0.925937 1.36799 0.809193)
(0.773656 1.18736 0.885935)
(0.976032 1.38538 0.828065)
(1.20066 1.39865 0.552304)
(0.939058 1.33415 0.828544)
(1.02284 1.21429 0.802706)