/*--------------------------------*- C++ -*----------------------------------*\
| =========                 |                                                 |
| \\      /  F ield         | OpenFOAM: The Open Source CFD Toolbox           |
|  \\    /   O peration     | Version:  v1806                                 |
|   \\  /    A nd           | Web:      www.OpenFOAM.com                      |
|    \\/     M anipulation  |                                                 |
\*---------------------------------------------------------------------------*/
FoamFile
{
    version     2.0;
    format      ascii;
    class       surfaceScalarField;
    location    "0.114";
    object      phi;
}
// * * * * * * * * * * * * * * * * * * * * * * * * * * * * * * * * * * * * * //

dimensions      [0 3 -1 0 0 0 0];
oriented        oriented;


internalField   nonuniform List<scalar> 
187200
(
9.29731e-06
1.46747e-06
-1.07706e-05
6.2953e-05
-2.76866e-05
-2.59692e-05
8.7861e-05
-1.25267e-05
-1.23811e-05
0.000108264
-1.04994e-05
-9.90345e-06
0.000125274
-7.31185e-06
-9.69715e-06
0.000144077
-7.01107e-06
-1.17909e-05
0.000161619
-3.46367e-06
-1.40779e-05
0.000180472
-1.52655e-06
-1.73272e-05
0.000197868
1.49667e-06
-1.88923e-05
0.000210918
6.71672e-06
-1.97671e-05
0.000224366
5.48416e-06
-1.89318e-05
0.000238125
8.40246e-06
-2.21621e-05
0.000240012
1.49833e-05
-1.68708e-05
0.000220272
2.9191e-05
-9.45199e-06
0.000180483
4.05756e-05
-7.87249e-07
0.000145973
2.9483e-05
5.02732e-06
9.92841e-05
2.6841e-05
1.98482e-05
5.06156e-05
3.68845e-05
1.17837e-05
-4.22905e-05
9.45069e-05
-1.60118e-06
-0.00018878
0.000141921
4.56768e-06
-0.000462081
0.000233378
3.9923e-05
-0.000658413
0.000238408
-4.20771e-05
-0.00081123
0.000286066
-0.000133249
-0.0008619
0.000307135
-0.000256464
-0.000852963
0.000338091
-0.000347028
-0.000786755
0.000366703
-0.000432911
-0.000679152
0.000393215
-0.000500819
-0.000539153
0.000408965
-0.000548963
-0.000373666
0.000404371
-0.000569859
-0.000204845
0.000386858
-0.000555679
-7.20556e-05
0.000348812
-0.000481602
1.60682e-05
0.000300258
-0.000388383
5.10505e-05
0.000239305
-0.000274288
4.62497e-05
0.000175018
-0.000170218
2.36076e-05
0.000121088
-9.8446e-05
2.88525e-06
8.11958e-05
-6.04737e-05
-8.02387e-06
5.54204e-05
-4.45116e-05
-1.21578e-05
4.25748e-05
-3.84416e-05
-1.05538e-05
3.29817e-05
-3.45869e-05
2.34633e-05
-3.40177e-05
3.68601e-06
1.92923e-05
-2.15107e-05
4.93243e-05
-3.59988e-05
-3.73258e-05
9.44144e-05
-2.77537e-05
-2.98625e-05
0.000127753
-1.70887e-05
-2.67484e-05
0.000152941
-7.487e-06
-2.50118e-05
0.000172248
2.46815e-06
-2.8786e-05
0.000183762
1.94199e-05
-3.43975e-05
0.000190676
3.16361e-05
-4.00764e-05
0.000185086
5.6767e-05
-4.96809e-05
0.000174715
7.43861e-05
-5.72983e-05
0.000138215
0.000114399
-7.24156e-05
8.08207e-05
0.000157361
-9.15659e-05
-4.02428e-06
0.000197967
-9.81401e-05
-0.000101654
0.000234094
-0.000107274
-0.000215966
0.000288399
-0.000133512
-0.000378132
0.000358771
-0.000167121
-0.000545211
0.000438775
-0.000244854
-0.0007227
0.0005189
-0.000304525
-0.000884849
0.000628758
-0.000372102
-0.00105317
0.000739479
-0.000429234
-0.00122441
0.000866292
-0.00046168
-0.00133301
0.000946596
-0.000599584
-0.00141235
0.00105123
-0.000685826
-0.00141479
0.00108924
-0.000779656
-0.00134294
0.00113329
-0.000867054
-0.00120631
0.0011564
-0.000926322
-0.0010188
0.00116465
-0.000958955
-0.000794574
0.00114194
-0.000957192
-0.000559388
0.00108545
-0.000916264
-0.000333818
0.00100363
-0.000842345
-0.000139423
0.000878731
-0.000724314
1.93062e-05
0.00073243
-0.000590902
0.000108545
0.000578738
-0.000428673
0.000135588
0.00044845
-0.000300476
0.000124337
0.000330277
-0.000197939
9.59942e-05
0.000244591
-0.000135053
6.37885e-05
0.000184184
-9.65589e-05
3.82866e-05
0.000144473
-7.63978e-05
1.412e-05
0.000115228
-5.80823e-05
8.06502e-05
-4.30681e-05
2.02424e-05
1.25468e-05
-1.34969e-05
6.18433e-05
-4.05621e-05
-3.70379e-05
0.000105327
-2.97052e-05
-4.15321e-05
0.000138151
-7.78719e-06
-4.21253e-05
0.000157042
2.12983e-05
-4.76759e-05
0.000165626
5.05011e-05
-5.66164e-05
0.000158752
9.13725e-05
-6.50783e-05
0.000145834
0.000126626
-8.20708e-05
0.000122635
0.000186133
-0.000106166
7.23072e-05
0.00025337
-0.000128656
-1.10315e-05
0.0003387
-0.000140963
-0.000110775
0.000418028
-0.000160924
-0.000252116
0.000520209
-0.000180901
-0.000425306
0.000628085
-0.000220801
-0.000616193
0.000739569
-0.000260283
-0.000794516
0.00084976
-0.000312667
-0.000945551
0.000962408
-0.0003726
-0.00107703
0.00108158
-0.000431199
-0.00120514
0.00123739
-0.000480522
-0.00134544
0.00139636
-0.000516584
-0.00148856
0.00153223
-0.000522813
-0.00156723
0.00162799
-0.000602719
-0.00160693
0.00172762
-0.000636695
-0.0015858
0.00174067
-0.00067256
-0.00150222
0.00176316
-0.000713458
-0.00136858
0.00174912
-0.000726359
-0.00119768
0.00171002
-0.000716261
-0.00100101
0.00162748
-0.000682215
-0.000791282
0.00150895
-0.000633222
-0.000574259
0.00135663
-0.000570017
-0.000385818
0.00117769
-0.000487402
-0.000227
0.00099343
-0.000419819
-0.000104832
0.000790876
-0.000334307
-2.07376e-05
0.000629198
-0.000264843
2.35478e-05
0.000482304
-0.000196313
3.92811e-05
0.000377702
-0.000148846
4.13437e-05
0.000300904
-0.000118784
3.2311e-05
0.000251516
-9.80116e-05
1.45809e-05
0.000203493
-7.05356e-05
0.000138209
-4.2978e-05
2.3774e-05
6.89661e-06
-1.81243e-05
6.36748e-05
-3.18947e-05
-4.85684e-05
0.000103893
-1.01748e-05
-5.97482e-05
0.000127742
3.48756e-05
-6.65113e-05
0.000134036
8.66898e-05
-7.16858e-05
0.00012695
0.000142118
-8.45311e-05
0.000110656
0.000217217
-0.00010955
7.94736e-05
0.000292815
-0.000135006
2.70741e-05
0.000405505
-0.000166972
-5.02719e-05
0.000516629
-0.000185913
-0.000153934
0.000647155
-0.000204793
-0.000298171
0.000782088
-0.000219823
-0.000455098
0.000916411
-0.000239276
-0.000606471
0.00103487
-0.000255413
-0.000748817
0.00116104
-0.000279124
-0.00087983
0.00128887
-0.000308099
-0.000998952
0.00142238
-0.000340851
-0.00110238
0.00154261
-0.000357606
-0.00120846
0.00170572
-0.000362246
-0.00132532
0.00184622
-0.000333006
-0.00146389
0.00193784
-0.000267046
-0.00153604
0.00199057
-0.000290426
-0.00157375
0.00204386
-0.00027854
-0.00155865
0.00199917
-0.000273598
-0.00149393
0.00197969
-0.00028124
-0.00139638
0.0019218
-0.000270228
-0.00127494
0.00184054
-0.000251967
-0.00113601
0.0017209
-0.000232363
-0.000985699
0.00156678
-0.00020814
-0.000820877
0.00139568
-0.000203876
-0.000642899
0.00120222
-0.000202503
-0.000465711
0.00101866
-0.000202417
-0.000307474
0.000829217
-0.000196578
-0.000179499
0.000691652
-0.000190428
-8.99298e-05
0.000563525
-0.000170792
-3.05117e-05
0.000466638
-0.000148355
6.88012e-06
0.000397503
-0.000133991
1.98627e-05
0.000346669
-0.000108136
1.63117e-05
0.000284358
-7.7314e-05
0.000194745
-4.02249e-05
2.38345e-05
1.76893e-05
-3.46275e-05
6.42357e-05
2.19001e-06
-7.44854e-05
0.000108356
3.80139e-05
-9.23082e-05
0.000127676
0.000112552
-9.69961e-05
0.000123651
0.000197133
-0.000106418
9.73406e-05
0.000290636
-0.000122207
6.25281e-05
0.000405905
-0.000153876
2.22344e-05
0.000515956
-0.000182847
-2.10807e-05
0.000659128
-0.000210308
-8.93484e-05
0.000806345
-0.000221449
-0.000178472
0.000962406
-0.000226127
-0.000277765
0.00110529
-0.000223912
-0.000385891
0.00124374
-0.000219208
-0.000514142
0.00137874
-0.000215615
-0.000643578
0.00150392
-0.000213443
-0.000761208
0.00161759
-0.000211092
-0.000857306
0.00172105
-0.000202573
-0.000932985
0.00179158
-0.000173291
-0.00102123
0.00188919
-9.52227e-05
-0.00113043
0.0019665
-1.10723e-05
-0.00128836
0.00199543
0.000100333
-0.0013683
0.00196005
0.000110457
-0.0014245
0.0019723
0.000127756
-0.00144012
0.00189493
0.000119857
-0.00142128
0.0018607
0.000100149
-0.00138094
0.00179332
8.81444e-05
-0.00132184
0.0017087
7.27452e-05
-0.00125573
0.00159624
5.85594e-05
-0.0011625
0.00145795
1.55998e-05
-0.00104335
0.00130662
-3.00903e-05
-0.000895257
0.00113758
-8.34589e-05
-0.000726424
0.000982626
-0.0001328
-0.000553611
0.000821998
-0.000165593
-0.000385622
0.000705269
-0.000181606
-0.000246553
0.000609208
-0.000184752
-0.000132437
0.00052032
-0.000167798
-5.111e-05
0.000463517
-0.000147342
-2.79619e-06
0.000419292
-0.000120938
1.07803e-05
0.000351669
-8.08888e-05
0.000240989
-3.54645e-05
1.76053e-05
6.35029e-05
-6.34185e-05
6.68682e-05
6.99024e-05
-0.000116974
0.000111744
0.000132271
-0.000139133
0.000130197
0.000233414
-0.000139315
0.00012212
0.000344576
-0.000139366
9.19448e-05
0.000472437
-0.000151627
6.67341e-05
0.00061851
-0.000187395
3.91941e-05
0.000764331
-0.000220836
-6.69239e-07
0.000933989
-0.000234998
-5.92937e-05
0.00108906
-0.000224088
-0.000126289
0.001236
-0.000206594
-0.000201697
0.00136503
-0.000184331
-0.000283791
0.00148535
-0.000159512
-0.000361121
0.00158628
-0.00013021
-0.000435553
0.00167439
-9.60412e-05
-0.000496431
0.00173752
-5.90464e-05
-0.000563708
0.00178299
5.33577e-06
-0.000652224
0.00180181
7.82892e-05
-0.000753696
0.00182662
0.000164038
-0.0008663
0.00180675
0.000272347
-0.00103389
0.00182249
0.000340534
-0.00114186
0.0017217
0.000346316
-0.00123497
0.00171983
0.000345585
-0.00129923
0.00162742
0.00033177
-0.00133322
0.00159008
0.00030461
-0.00135069
0.00152927
0.000281515
-0.001353
0.00146387
0.000247132
-0.00134315
0.00137966
0.00020674
-0.00130657
0.00127683
0.000144535
-0.00122191
0.00116807
5.3892e-05
-0.00110613
0.00104443
-2.26251e-05
-0.000940178
0.000927482
-0.000110812
-0.000759967
0.000809378
-0.000167591
-0.000560043
0.000712522
-0.000207177
-0.000378004
0.000642304
-0.000215136
-0.000226019
0.000563027
-0.000194693
-0.000105909
0.000516432
-0.000173025
-2.69527e-05
0.000476044
-0.000135708
7.43636e-06
0.000404997
-8.77165e-05
0.00028238
-3.39561e-05
1.91328e-05
0.000140957
-9.65857e-05
8.33917e-05
0.000175858
-0.000170214
0.000136646
0.000266342
-0.000187325
0.000160069
0.000389047
-0.000179057
0.000153951
0.000527093
-0.0001764
0.000115561
0.000692212
-0.000181386
0.000105111
0.000847624
-0.000218664
8.53071e-05
0.00101272
-0.000228589
7.10378e-05
0.0011664
-0.000218143
3.75528e-05
0.00130786
-0.00018532
-6.34913e-06
0.00143097
-0.000151066
-6.4774e-05
0.00153627
-0.000112815
-0.000128454
0.00162096
-7.19281e-05
-0.000190558
0.00167759
-2.92058e-05
-0.000255477
0.00171044
2.88656e-05
-0.000308761
0.00170938
8.14171e-05
-0.000369109
0.00169985
0.000143487
-0.000426311
0.0016487
0.000210312
-0.000524097
0.00162287
0.00030154
-0.000623228
0.00152298
0.000382903
-0.000795497
0.00153828
0.000456485
-0.000937038
0.00139903
0.000464207
-0.00104941
0.00138736
0.000444845
-0.00116354
0.00132327
0.000418283
-0.00124945
0.00130197
0.000374028
-0.00132349
0.00126712
0.000336193
-0.00138068
0.00123485
0.000286209
-0.00141878
0.0011863
0.000231458
-0.00143035
0.00112805
0.000160348
-0.00138021
0.00106111
5.68205e-05
-0.00129243
0.000976901
-2.02589e-05
-0.00114668
0.000885622
-0.000103889
-0.000956555
0.000795671
-0.000176414
-0.000728902
0.000702045
-0.000217178
-0.000493772
0.000658468
-0.000251295
-0.000311912
0.000607573
-0.000226407
-0.000153463
0.000562743
-0.00020476
-4.99899e-05
0.000529385
-0.000156814
2.61273e-06
0.000454046
-0.00010165
0.000321385
-3.63925e-05
2.8184e-05
0.000243056
-0.000130282
0.00010875
0.000313549
-0.000218257
0.000174436
0.000430145
-0.000229488
0.000201472
0.000566523
-0.000204512
0.000195025
0.000718583
-0.000185043
0.000182506
0.000893291
-0.000188561
0.000195806
0.00104447
-0.000210151
0.000199684
0.0012107
-0.000201859
0.000192847
0.00134502
-0.000171784
0.000159661
0.00146742
-0.000126369
0.00011923
0.0015589
-8.75046e-05
7.00417e-05
0.0016286
-4.31345e-05
1.69979e-05
0.00166514
8.86479e-06
-4.09559e-05
0.00166531
7.02343e-05
-9.5536e-05
0.00164175
0.000123271
-0.000152425
0.00158396
0.000182309
-0.000211712
0.0015203
0.000238838
-0.000270119
0.00142311
0.000284003
-0.000345985
0.00136361
0.000335119
-0.000456836
0.00123769
0.000396142
-0.000600844
0.00123909
0.000443192
-0.000778297
0.00112542
0.000451071
-0.000910988
0.00109803
0.000422019
-0.00106734
0.00108323
0.000396388
-0.0011948
0.00107494
0.000354491
-0.00130623
0.00106474
0.000313804
-0.0014014
0.00105788
0.000272147
-0.00147678
0.00103579
0.00022589
-0.00151685
0.00101271
0.000155411
-0.00149903
0.000965896
7.73958e-05
-0.00143624
0.00090299
1.11196e-05
-0.00131119
0.000828153
-6.75828e-05
-0.00111882
0.000757943
-0.000154643
-0.000893517
0.000688774
-0.00021203
-0.000633637
0.000647184
-0.000248596
-0.000405366
0.000636675
-0.000257373
-0.000209929
0.000594256
-0.000226951
-7.59299e-05
0.000574568
-0.000179183
-4.45579e-06
0.000496671
-0.000114099
0.000357665
-4.07351e-05
4.53706e-05
0.000357652
-0.000159967
0.000150016
0.000468859
-0.000259955
0.000242762
0.000606374
-0.000268975
0.000286555
0.000748585
-0.000225855
0.00028548
0.000913226
-0.000193569
0.000288225
0.00107438
-0.000183838
0.00029165
0.00121897
-0.000177921
0.000300213
0.00135921
-0.000157069
0.000301481
0.00146846
-0.000124704
0.000281493
0.00156529
-7.78874e-05
0.000241139
0.00162125
-2.1998e-05
0.000196456
0.00164297
3.03085e-05
0.000139579
0.00163224
8.97713e-05
7.86084e-05
0.00158948
0.000136796
1.86579e-05
0.00151796
0.000183736
-4.36615e-05
0.00142052
0.000225767
-0.000108167
0.00132441
0.000260396
-0.000179593
0.00121101
0.000283522
-0.000250077
0.00113101
0.00030309
-0.000368381
0.00102151
0.00033448
-0.000484239
0.000995225
0.000359727
-0.000673976
0.000939008
0.000376145
-0.000835322
0.000901436
0.000357941
-0.00100789
0.000918215
0.000337588
-0.00115913
0.000915572
0.000310605
-0.00129166
0.000922818
0.000274458
-0.00141283
0.000925381
0.000253663
-0.00151164
0.000924985
0.000209621
-0.00158335
0.000907553
0.000176862
-0.00160409
0.000868248
0.000118388
-0.00155917
0.000814304
4.37664e-05
-0.00144948
0.000753712
-3.52487e-05
-0.00126136
0.000692138
-0.000122315
-0.0010233
0.000639786
-0.000189071
-0.000744904
0.000604997
-0.000236207
-0.000486102
0.000629713
-0.000251839
-0.000263414
0.000616218
-0.00024465
-9.87043e-05
0.000606333
-0.000196475
-1.30462e-05
0.000538659
-0.000127648
0.000391977
-4.73576e-05
6.36528e-05
0.000469984
-0.000175984
0.000194074
0.000629724
-0.000291285
0.000312941
0.000782225
-0.000294718
0.000370894
0.000926867
-0.000236235
0.000389014
0.00107775
-0.000182643
0.000393138
0.00122044
-0.000150179
0.000388414
0.00135383
-0.000130133
0.000391983
0.00146509
-0.000109448
0.000385209
0.00154726
-7.20309e-05
0.000376839
0.00159537
-2.17076e-05
0.000349931
0.00162143
2.6728e-05
0.000294758
0.00161058
8.75664e-05
0.000228144
0.00156178
0.00013708
0.000162155
0.00147411
0.000181361
9.31867e-05
0.00137303
0.000213897
2.24891e-05
0.00125397
0.00023724
-4.79948e-05
0.00114534
0.000249551
-0.00012508
0.00103647
0.000251626
-0.000198732
0.000955023
0.000249637
-0.000320874
0.000881108
0.000262549
-0.000437679
0.000839959
0.000272071
-0.000612946
0.000816577
0.000297698
-0.000791861
0.00078256
0.000297792
-0.000957259
0.000797205
0.000286407
-0.00111804
0.000796566
0.000279791
-0.00125603
0.000809652
0.000251157
-0.00139236
0.000814595
0.000247112
-0.00151487
0.000815893
0.000231606
-0.00160739
0.000792786
0.000207279
-0.00165443
0.000758545
0.000156749
-0.00163625
0.000716452
7.96754e-05
-0.00154595
0.00066841
-5.00551e-06
-0.00137827
0.000618771
-9.43042e-05
-0.00113976
0.000578128
-0.000176861
-0.000859691
0.000540029
-0.000215098
-0.000563436
0.000572259
-0.000238801
-0.000315849
0.000606647
-0.000238015
-0.000125442
0.000619508
-0.000203581
-2.22559e-05
0.000569267
-0.000133795
0.000421668
-5.19457e-05
8.00347e-05
0.000571282
-0.000181332
0.000240218
0.000779163
-0.000309621
0.000385549
0.000945498
-0.000308605
0.000463038
0.00108527
-0.000235896
0.000497666
0.00121501
-0.000171891
0.0004994
0.00133536
-0.000116654
0.000495087
0.00144346
-8.53195e-05
0.000485493
0.00152595
-5.12663e-05
0.000464428
0.0015823
-1.39763e-05
0.000437176
0.00160621
1.64118e-05
0.000402873
0.00159003
6.57068e-05
0.000360594
0.00153531
0.000117546
0.000296699
0.00146052
0.000165148
0.000217705
0.00135357
0.000199524
0.000138522
0.00122997
0.000222244
5.94331e-05
0.00110526
0.000227806
-1.88496e-05
0.000998815
0.00022481
-0.000101459
0.00090384
0.000215236
-0.000184125
0.000832032
0.000205656
-0.000297694
0.000783373
0.000211303
-0.000415663
0.000740987
0.000216941
-0.000564453
0.000721675
0.000243692
-0.000741374
0.000702959
0.000256523
-0.000896216
0.000693254
0.000258793
-0.00105307
0.000691978
0.00026144
-0.00119721
0.000696352
0.000257444
-0.00134256
0.000705293
0.000254655
-0.00148225
0.000693377
0.000262208
-0.00159873
0.00067412
0.000235147
-0.00167118
0.00064487
0.000186124
-0.00169044
0.000604147
0.000131562
-0.00163055
0.000573026
3.54959e-05
-0.0014812
0.000534775
-6.53551e-05
-0.00123388
0.000505761
-0.000174953
-0.000939739
0.000472161
-0.000226273
-0.000628483
0.000499782
-0.000238779
-0.000363043
0.000562848
-0.000221642
-0.000148124
0.000618151
-0.000213561
-2.96005e-05
0.000589626
-0.000138883
0.000450826
-5.87597e-05
9.3128e-05
0.000655079
-0.000176924
0.000279909
0.000910985
-0.000318602
0.000449896
0.00109108
-0.000315569
0.000546231
0.00121829
-0.000229356
0.000592504
0.00132419
-0.000155454
0.000599702
0.00141588
-8.77156e-05
0.000592737
0.00149677
-4.63504e-05
0.000571335
0.00155272
-5.37195e-06
0.000537892
0.00158364
3.21079e-05
0.000492329
0.00157409
7.76883e-05
0.000437495
0.00153562
0.000109244
0.000380005
0.0014591
0.000133696
0.000318543
0.00135131
0.000170667
0.000246335
0.00122522
0.000200559
0.000165001
0.00110298
0.000208328
8.14623e-05
0.000981279
0.000207514
1.49552e-06
0.000883352
0.00019543
-8.17096e-05
0.000803518
0.000183527
-0.000170664
0.000744091
0.000176894
-0.000278916
0.000708544
0.000183082
-0.000392402
0.000664875
0.000189598
-0.000524739
0.000639699
0.000214314
-0.000676446
0.000622564
0.000232102
-0.000815933
0.000591242
0.000241499
-0.000960845
0.000582951
0.00025394
-0.00110118
0.000580006
0.000256685
-0.00125725
0.00057637
0.000284989
-0.00140811
0.000566192
0.000278041
-0.00154039
0.000552915
0.000253486
-0.00164505
0.000531323
0.000218209
-0.00168587
0.000516938
0.000128029
-0.00166043
0.000494814
5.27714e-05
-0.00154959
0.000456986
-3.30535e-05
-0.00133887
0.000427919
-0.00013288
-0.00103853
0.000408738
-0.000236919
-0.000697804
0.000421174
-0.000262115
-0.000397109
0.000488922
-0.00022677
-0.000171576
0.000585477
-0.000192859
-3.74556e-05
0.000597163
-0.000141657
0.000475771
-6.24017e-05
0.000103665
0.000712805
-0.000161391
0.000314372
0.00101417
-0.000313888
0.000511031
0.00120404
-0.00030962
0.000627589
0.00131719
-0.000215452
0.000679647
0.00140356
-0.000131429
0.000690489
0.00146906
-6.40214e-05
0.00068119
0.00151918
-1.31067e-05
0.000651444
0.00154613
3.63368e-05
0.000607081
0.00155029
7.77065e-05
0.00054488
0.00152097
0.000115316
0.000474019
0.00145856
0.000147914
0.000399984
0.00136324
0.000169898
0.000323928
0.00124722
0.000180144
0.000249168
0.0011146
0.000185377
0.000174105
0.000989359
0.000188681
9.66028e-05
0.000879647
0.000179134
1.58928e-05
0.000794316
0.000169746
-6.28136e-05
0.000722497
0.000159727
-0.000150038
0.000670084
0.000161232
-0.000250618
0.000637378
0.000171745
-0.000350832
0.000583528
0.000181561
-0.000471769
0.000559305
0.000201331
-0.000595424
0.000530084
0.000216135
-0.000717508
0.000486971
0.000226356
-0.00084654
0.000471569
0.000240415
-0.000984706
0.000459065
0.000259107
-0.0011401
0.000452015
0.000279745
-0.00129642
0.000445439
0.000277082
-0.00144813
0.000438198
0.000266426
-0.00157111
0.000436995
0.000217306
-0.0016564
0.000432701
0.000169524
-0.00166767
0.00040466
0.000101431
-0.00160538
0.000362127
3.25631e-05
-0.00143297
0.000320492
-6.49867e-05
-0.00115249
0.000305095
-0.00017683
-0.000793639
0.000321184
-0.000258865
-0.000448782
0.000407644
-0.000263578
-0.00019422
0.000519476
-0.000188561
-4.59735e-05
0.000588866
-0.000139949
0.000498648
-6.88498e-05
0.000107272
0.000750374
-0.000144841
0.000337372
0.00109003
-0.000305967
0.000559188
0.00128893
-0.0003067
0.000692462
0.00138966
-0.000205742
0.00075087
0.0014547
-0.000109542
0.000762064
0.00149612
-3.8259e-05
0.000748182
0.00152152
1.15453e-05
0.00070845
0.00151941
6.64543e-05
0.00065283
0.00149617
0.00010974
0.000584204
0.00144435
0.000145249
0.000504946
0.0013671
0.000170725
0.000414374
0.00126109
0.000192721
0.000324172
0.00114084
0.000196587
0.000244534
0.00101006
0.000184185
0.000173523
0.000893203
0.000167167
0.000104429
0.000793077
0.000155663
3.61333e-05
0.000714379
0.000148232
-3.70639e-05
0.000651038
0.000144656
-0.000119919
0.000600532
0.000152406
-0.000208127
0.000559023
0.000166563
-0.000300902
0.000498997
0.000177305
-0.000406548
0.000474357
0.000190592
-0.000500985
0.000428198
0.000196323
-0.000604925
0.000384807
0.000206104
-0.000717381
0.00036136
0.000222665
-0.000848197
0.000339756
0.000250125
-0.000994067
0.000334425
0.000263461
-0.00114996
0.000330858
0.000270476
-0.00130672
0.000337977
0.000256975
-0.00146048
0.000344214
0.000246542
-0.00157537
0.000333308
0.00021429
-0.0016426
0.000293971
0.000177919
-0.00162506
0.000238931
0.000105653
-0.00149698
0.000184884
7.52466e-06
-0.00124544
0.00015581
-0.000102252
-0.000893838
0.000178923
-0.00020934
-0.000506351
0.000287048
-0.000266891
-0.000217624
0.000449546
-0.000218795
-5.099e-05
0.000563182
-0.000140951
0.000522862
-7.52059e-05
0.000113386
0.000752892
-0.000115904
0.000361807
0.00112423
-0.000282612
0.000603319
0.00133568
-0.000288263
0.000752936
0.00143178
-0.000191744
0.000814949
0.0014776
-8.49162e-05
0.000821605
0.00149542
-5.95625e-06
0.00079879
0.00149304
5.12941e-05
0.000754603
0.00146626
9.73399e-05
0.000694651
0.00142089
0.000135236
0.000617152
0.00135069
0.000171151
0.000530317
0.00125979
0.000194138
0.000434953
0.00114812
0.000208333
0.000337995
0.00102888
0.000208921
0.000248006
0.000908968
0.000191075
0.000179067
0.000801425
0.000160715
0.000117663
0.000711314
0.000143165
5.67115e-05
0.00064168
0.00013365
-7.04374e-06
0.000578414
0.00013638
-8.35976e-05
0.000526692
0.000150394
-0.000157566
0.000471742
0.000161248
-0.000247156
0.000417488
0.000171098
-0.000329316
0.000382107
0.00017441
-0.000406625
0.000331475
0.000174033
-0.00049392
0.00029012
0.000181982
-0.000592014
0.000258599
0.000200855
-0.000707609
0.000234794
0.000220558
-0.000840481
0.000228694
0.000238603
-0.000987513
0.000232803
0.000245088
-0.00114888
0.000245261
0.000254087
-0.00130546
0.000247533
0.000253257
-0.00145454
0.000228437
0.000253947
-0.00156605
0.000184161
0.000221324
-0.00160634
0.00011929
0.000159927
-0.00153808
4.32732e-05
7.33583e-05
-0.00132895
-9.56428e-06
-4.37625e-05
-0.00100502
-7.67655e-07
-0.000144239
-0.000593732
0.000112959
-0.000237197
-0.000241715
0.000349147
-0.000251617
-6.10733e-05
0.000526191
-0.00014365
0.000538809
-7.70228e-05
0.000113303
0.000732897
-9.33078e-05
0.00037163
0.00112702
-0.000261117
0.000627872
0.00135184
-0.000272401
0.000790529
0.00144545
-0.000176324
0.000859849
0.00147726
-6.89826e-05
0.000863359
0.00146885
2.30688e-05
0.000834725
0.00144283
7.88455e-05
0.000780902
0.00139236
0.000127719
0.000713564
0.00133021
0.000158012
0.000634173
0.00124598
0.000184108
0.00054489
0.00114571
0.000203366
0.000445111
0.00102971
0.000218183
0.000348293
0.000915321
0.000210374
0.000260663
0.000804845
0.000191752
0.000187564
0.000712161
0.000162362
0.000131524
0.000629934
0.000137419
8.25111e-05
0.000560022
0.000130672
2.60829e-05
0.000502611
0.00013223
-4.5878e-05
0.000453397
0.000145255
-0.000110848
0.000385118
0.000151594
-0.000188166
0.000338291
0.000156514
-0.000250924
0.000294608
0.000150257
-0.000319186
0.000249269
0.000150468
-0.000393589
0.000205427
0.000159097
-0.000476496
0.000171017
0.000170488
-0.000575511
0.000144028
0.000189781
-0.000690066
0.000141523
0.000201727
-0.000822127
0.000144813
0.000220052
-0.000966759
0.000151777
0.000238116
-0.0011278
0.000143102
0.000265469
-0.0012944
0.000124339
0.000270701
-0.00144041
7.65327e-05
0.000253642
-0.00153061
5.03896e-06
0.000204452
-0.00152099
-9.16495e-05
0.000125304
-0.00137748
-0.00017397
2.0893e-05
-0.00108349
-0.000201558
-9.31984e-05
-0.000687899
-9.23421e-05
-0.000190293
-0.000284427
0.000175136
-0.000229463
-6.95591e-05
0.000469933
-0.000158607
0.0005447
-7.54483e-05
0.000128476
0.000633959
-2.95362e-05
0.000397753
0.00106802
-0.000210277
0.000665733
0.00131624
-0.000232387
0.000845243
0.00140968
-0.000143736
0.000914868
0.00143191
-2.42716e-05
0.000909918
0.0014076
6.61987e-05
0.000866949
0.00136104
0.000124755
0.000805586
0.00129007
0.000163651
0.000734748
0.0012132
0.000187848
0.000654464
0.00112221
0.000204046
0.000568323
0.00102315
0.000208699
0.000475221
0.000915438
0.000207377
0.000380639
0.000810192
0.000199709
0.000293764
0.000710915
0.000180805
0.000218729
0.000628515
0.000158679
0.000156274
0.000556454
0.000135935
9.47744e-05
0.000495795
0.000125727
4.09836e-05
0.000426902
0.0001295
-9.55932e-06
0.000367681
0.000136258
-6.98689e-05
0.00030809
0.000137336
-0.00013324
0.000268237
0.000133423
-0.000185607
0.000219198
0.000127778
-0.000242788
0.000177408
0.000129043
-0.000307254
0.000134045
0.000135848
-0.000380391
9.70985e-05
0.000147057
-0.000465333
7.20395e-05
0.000156931
-0.000564618
6.56975e-05
0.00017511
-0.000675758
5.63058e-05
0.000199648
-0.000807536
4.98946e-05
0.000233661
-0.00096157
3.51431e-05
0.000261993
-0.00113063
1.32097e-05
0.000280194
-0.00129358
-3.76295e-05
0.000277106
-0.00142077
-0.000112458
0.000244685
-0.00146505
-0.00022528
0.000177911
-0.00138341
-0.000335163
7.956e-05
-0.00114586
-0.000407519
-3.15877e-05
-0.000772336
-0.000332316
-0.000133554
-0.000344518
-6.43606e-05
-0.000188323
-6.30314e-05
0.000365972
-0.000177528
0.000553109
-7.14384e-05
0.000122841
0.000518101
-6.98251e-06
0.000382572
0.00100705
-0.00019876
0.000664542
0.00127005
-0.000235775
0.000860637
0.0013624
-0.000148814
0.000942994
0.00137327
-2.37204e-05
0.000940498
0.00132622
8.38751e-05
0.000901141
0.00125926
0.00014114
0.000832996
0.00117832
0.0001799
0.000746919
0.00109883
0.00020045
0.000654258
0.00100198
0.000212892
0.000564438
0.000897742
0.000215228
0.000476876
0.000793853
0.000209147
0.000396462
0.000696852
0.000193753
0.00032178
0.00061019
0.000175406
0.000255023
0.000540901
0.000154371
0.000199854
0.000474708
0.000136915
0.000155378
0.000415027
0.000125244
0.000101274
0.000357447
0.000123558
3.27549e-05
0.000309572
0.000126628
-3.2601e-05
0.000255089
0.000118357
-8.60698e-05
0.000206581
0.000115125
-0.000129882
0.000153677
0.000109333
-0.000179342
0.000113295
0.000113574
-0.000233373
7.0741e-05
0.000117337
-0.000298841
3.35821e-05
0.000128984
-0.000371689
5.67256e-06
0.000139215
-0.000448881
-1.43749e-05
0.000157265
-0.000539505
-3.9271e-05
0.000186202
-0.000654721
-5.18417e-05
0.000216952
-0.000792054
-7.57497e-05
0.000248227
-0.000952761
-0.000100457
0.000274373
-0.00112282
-0.000153785
0.000286216
-0.00127756
-0.000229885
0.000272163
-0.00137225
-0.000354143
0.000223559
-0.00135344
-0.000491427
0.000137451
-0.00117794
-0.000621456
3.84315e-05
-0.000831817
-0.000602938
-7.54964e-05
-0.000416485
-0.00033577
-0.000143922
-7.07949e-05
0.000169479
-0.000149198
0.000532804
-5.04933e-05
0.000155625
0.000304723
5.77531e-05
0.000390701
0.000881069
-0.000109096
0.000676109
0.0011604
-0.000175758
0.00087749
0.0012581
-9.70821e-05
0.000968753
0.00126108
2.09287e-05
0.000960449
0.00121441
0.000120116
0.000906054
0.00113804
0.000175615
0.000829596
0.00104349
0.000211287
0.000756034
0.000947249
0.000225143
0.00068731
0.000846529
0.000224177
0.000615576
0.000755208
0.000214267
0.000536582
0.000673311
0.000199536
0.000457855
0.000595716
0.000179862
0.000382677
0.00052641
0.000158958
0.000318106
0.000464645
0.000140827
0.000257489
0.000414635
0.00012069
0.000198603
0.000368874
0.00010504
0.000133686
0.000316265
0.000106099
6.85309e-05
0.000262683
0.000112044
1.31741e-05
0.000203922
0.000106524
-3.60543e-05
0.000154982
0.000100827
-8.23437e-05
0.000103172
9.67954e-05
-0.000127524
5.86587e-05
9.98166e-05
-0.000176231
1.67096e-05
0.00010274
-0.000240511
-1.88609e-05
0.000116723
-0.000305453
-6.02856e-05
0.0001309
-0.000373421
-9.66558e-05
0.000150249
-0.000451431
-0.000139432
0.000178172
-0.000549596
-0.00016259
0.000208913
-0.000664511
-0.000205234
0.000244401
-0.000803432
-0.000242177
0.000280641
-0.000961391
-0.000306351
0.000310526
-0.00112749
-0.000383782
0.00032
-0.0012579
-0.000518697
0.000294957
-0.00130179
-0.000676361
0.000228823
-0.00118393
-0.000885499
0.000146183
-0.000879036
-0.000939273
3.14446e-05
-0.000448168
-0.000690745
-7.58929e-05
-8.81578e-05
-9.01109e-05
-0.000100416
0.000452811
-8.16405e-06
0.000122685
0.000164646
1.73908e-05
0.000339961
0.000792731
-0.000128938
0.000627927
0.00106891
-0.000196478
0.000839795
0.00116504
-0.000118805
0.000951204
0.0011505
-8.3027e-07
0.000969124
0.00108677
0.000109715
0.000940454
0.000991855
0.000174852
0.000882328
0.000899816
0.000201798
0.000808576
0.000819238
0.000201763
0.000722396
0.00073993
0.00019278
0.000637342
0.000660691
0.000179571
0.000555358
0.00058904
0.000166254
0.000481857
0.00051973
0.000149487
0.000412617
0.000460934
0.000134716
0.000348454
0.000408008
0.000120801
0.000286523
0.000365343
0.000111222
0.000231868
0.000324785
9.87434e-05
0.000179594
0.000279345
8.9194e-05
0.000124054
0.000226043
9.21793e-05
6.13534e-05
0.000169783
9.684e-05
9.48643e-06
0.000111298
9.55513e-05
-3.28952e-05
5.66525e-05
8.89025e-05
-7.60959e-05
9.12319e-06
9.27359e-05
-0.000123354
-3.16175e-05
9.55848e-05
-0.000178261
-7.10857e-05
0.000107132
-0.000235568
-0.000121279
0.000118301
-0.000291776
-0.000167559
0.000127112
-0.000356339
-0.000224379
0.000149511
-0.000434414
-0.000266757
0.000182242
-0.000533172
-0.000325528
0.000219053
-0.000657148
-0.000379568
0.000261367
-0.000802105
-0.000469141
0.000307746
-0.000972844
-0.000561706
0.000348664
-0.00113264
-0.000727667
0.000368762
-0.00122838
-0.000922143
0.000341526
-0.00120013
-0.00117334
0.000259585
-0.001004
-0.00128393
0.000148517
-0.000566273
-0.00115112
2.26542e-05
-0.000150838
-0.000479458
-2.60895e-05
0.000273274
2.87012e-05
8.62237e-05
5.95959e-05
1.88267e-05
0.000328658
0.00067159
-0.000121294
0.000608425
0.000975254
-0.000186111
0.000840725
0.00108052
-0.000147788
0.000964948
0.00106858
-4.23004e-05
0.000988305
0.00100357
5.98399e-05
0.000938149
0.000903953
0.000138057
0.000859938