/*--------------------------------*- C++ -*----------------------------------*\
| =========                 |                                                 |
| \\      /  F ield         | OpenFOAM: The Open Source CFD Toolbox           |
|  \\    /   O peration     | Version:  v1806                                 |
|   \\  /    A nd           | Web:      www.OpenFOAM.com                      |
|    \\/     M anipulation  |                                                 |
\*---------------------------------------------------------------------------*/
FoamFile
{
    version     2.0;
    format      ascii;
    class       surfaceScalarField;
    location    "0.0905";
    object      phi;
}
// * * * * * * * * * * * * * * * * * * * * * * * * * * * * * * * * * * * * * //

dimensions      [0 3 -1 0 0 0 0];
oriented        oriented;


internalField   nonuniform List<scalar> 
187200
(
7.67263e-06
2.46052e-06
-1.01342e-05
5.40559e-05
-2.34362e-05
-2.2947e-05
7.6737e-05
-1.07961e-05
-1.1885e-05
9.60054e-05
-9.50293e-06
-9.76529e-06
0.000111663
-5.95206e-06
-9.7058e-06
0.000128793
-5.20075e-06
-1.19286e-05
0.000144044
-9.09102e-07
-1.4342e-05
0.00016096
5.51763e-07
-1.74677e-05
0.000174601
5.17182e-06
-1.88129e-05
0.000186706
7.06009e-06
-1.91645e-05
0.000199081
7.55079e-06
-1.99257e-05
0.000207757
1.2425e-05
-2.11018e-05
0.000200542
2.16947e-05
-1.44802e-05
0.000173483
3.60989e-05
-9.04004e-06
0.000129558
4.48957e-05
-9.71286e-07
9.1903e-05
2.93555e-05
8.29871e-06
3.98029e-05
3.20412e-05
2.00586e-05
-1.12241e-05
4.53041e-05
5.72282e-06
-0.000107782
9.93829e-05
-2.82498e-06
-0.000245157
0.000139667
-2.29188e-06
-0.000505106
0.000229891
3.00576e-05
-0.00069385
0.000237399
-4.86557e-05
-0.000830843
0.000284233
-0.00014724
-0.000877443
0.000308742
-0.000262142
-0.000863204
0.000339283
-0.000353522
-0.000794451
0.000367849
-0.000436602
-0.000684011
0.000393096
-0.000503536
-0.000543745
0.00040878
-0.000549047
-0.000377509
0.000402838
-0.000569075
-0.000210938
0.000386333
-0.000552904
-7.70739e-05
0.000345506
-0.00047937
1.11982e-05
0.00029891
-0.000387182
4.68007e-05
0.000237935
-0.000273538
4.26297e-05
0.000174689
-0.000170518
2.08439e-05
0.000120868
-9.90818e-05
1.04787e-06
8.11829e-05
-6.13866e-05
-8.91722e-06
5.53011e-05
-4.53363e-05
-1.24554e-05
4.27769e-05
-3.92391e-05
-1.07187e-05
3.3173e-05
-3.49095e-05
2.34394e-05
-3.41589e-05
3.54043e-06
1.75698e-05
-1.86497e-05
4.54342e-05
-3.26192e-05
-3.27106e-05
8.76139e-05
-2.5147e-05
-2.78286e-05
0.000118721
-1.45439e-05
-2.60656e-05
0.000141153
-3.57806e-06
-2.48057e-05
0.000158139
6.73201e-06
-2.89183e-05
0.000166257
2.60382e-05
-3.50653e-05
0.000170146
3.78122e-05
-4.11494e-05
0.000163816
6.29322e-05
-5.14308e-05
0.000147598
8.14503e-05
-5.81722e-05
0.000106497
0.000124271
-7.5619e-05
4.29831e-05
0.000166306
-9.03685e-05
-4.13476e-05
0.000202781
-9.67562e-05
-0.000143257
0.000245697
-0.000107689
-0.000265997
0.000300636
-0.000133
-0.000445468
0.000374005
-0.000165179
-0.000619204
0.000450121
-0.000244344
-0.000802599
0.000531992
-0.000303294
-0.000966952
0.000635907
-0.000372171
-0.00112726
0.000739129
-0.000439153
-0.00128667
0.000867113
-0.000477809
-0.00138846
0.000943429
-0.00060424
-0.00145302
0.00104933
-0.000700545
-0.00144742
0.00109137
-0.000788235
-0.0013688
0.00113563
-0.000874967
-0.00122749
0.00115914
-0.000932598
-0.00103576
0.00116594
-0.000964572
-0.000808292
0.00114338
-0.000962074
-0.000569998
0.00108551
-0.000920963
-0.000341609
0.00100471
-0.000846769
-0.000146801
0.000879475
-0.000728778
1.26071e-05
0.000734956
-0.000595455
0.000102777
0.000580393
-0.000432628
0.000130534
0.000451633
-0.000304702
0.000120155
0.000332905
-0.000201658
9.28641e-05
0.00024695
-0.000138476
6.18434e-05
0.000185645
-9.9324e-05
3.74723e-05
0.000145781
-7.86341e-05
1.38389e-05
0.000116203
-5.93969e-05
8.06816e-05
-4.34038e-05
1.91326e-05
1.11384e-05
-1.27012e-05
5.8443e-05
-3.6532e-05
-3.5398e-05
9.95616e-05
-2.56467e-05
-4.0619e-05
0.000129759
-2.91419e-06
-4.1827e-05
0.00014566
2.8258e-05
-4.7737e-05
0.000151311
5.8137e-05
-5.70551e-05
0.000142805
9.9629e-05
-6.50854e-05
0.000126263
0.000137204
-8.28495e-05
9.9043e-05
0.000197571
-0.000107419
4.30475e-05
0.000265442
-0.000127997
-4.01834e-05
0.000348002
-0.0001405
-0.000144778
0.000432883
-0.000161983
-0.000299888
0.00053699
-0.0001791
-0.000476067
0.000644802
-0.000222927
-0.000672342
0.000754373
-0.000257463
-0.000854517
0.000864771
-0.000308591
-0.00101287
0.000974427
-0.000365959
-0.00115339
0.00109572
-0.000423211
-0.0012856
0.00124263
-0.000474511
-0.00141884
0.00139206
-0.000519682
-0.00154954
0.00153069
-0.000532876
-0.00162162
0.00161645
-0.000600945
-0.00164827
0.00172204
-0.000646054
-0.00161956
0.00173897
-0.000676311
-0.00152974
0.00176142
-0.000715606
-0.00139199
0.00174852
-0.000727132
-0.0012169
0.00170853
-0.000717672
-0.00101655
0.0016278
-0.000684769
-0.000803646
0.00150933
-0.000636726
-0.000583645
0.00135937
-0.000574653
-0.000392125
0.00118124
-0.000493286
-0.000230963
0.00099952
-0.000425726
-0.000110551
0.000798085
-0.000338105
-2.69206e-05
0.000636453
-0.00026845
1.8106e-05
0.000487934
-0.000200056
3.47979e-05
0.000382863
-0.000152605
3.77197e-05
0.000304578
-0.000121855
3.0356e-05
0.000253855
-0.000100711
1.37077e-05
0.000205325
-7.24739e-05
0.000137982
-4.35937e-05
2.1553e-05
7.39079e-06
-1.78056e-05
5.99587e-05
-2.75359e-05
-4.7402e-05
9.99808e-05
-6.41323e-06
-5.92555e-05
0.000121889
4.14252e-05
-6.62472e-05
0.000126564
9.54524e-05
-7.18691e-05
0.000115875
0.00015379
-8.49639e-05
9.63204e-05
0.000228465
-0.000109281
5.97454e-05
0.000308913
-0.000135134
4.07303e-06
0.000420186
-0.000166943
-7.82123e-05
0.000534189
-0.000186462
-0.000196007
0.000667947
-0.000202151
-0.000340531
0.000798975
-0.000221569
-0.000499738
0.000931195
-0.000234998
-0.000653058
0.00105014
-0.000252016
-0.000802785
0.0011783
-0.0002742
-0.000942558
0.00130672
-0.000302175
-0.00107009
0.00143362
-0.00033166
-0.00118197
0.00155651
-0.000348895
-0.00128804
0.00170302
-0.000354328
-0.00139541
0.00183617
-0.000336736
-0.00151855
0.00193383
-0.000280003
-0.0015854
0.00197439
-0.000291093
-0.00161019
0.00203535
-0.000288517
-0.00159
0.00199604
-0.000277255
-0.00152006
0.00197419
-0.000282712
-0.00141864
0.00191745
-0.000270355
-0.00129303
0.00183553
-0.000252609
-0.0011507
0.00171858
-0.00023311
-0.000996726
0.00156625
-0.000210899
-0.000829203
0.00139858
-0.000206739
-0.000649731
0.00120735
-0.000205585
-0.000472005
0.00102612
-0.000204331
-0.000313811
0.00083835
-0.000198459
-0.000186836
0.000701153
-0.000191676
-9.75005e-05
0.000570912
-0.000172313
-3.64721e-05
0.00047263
-0.000150796
2.20704e-06
0.000401839
-0.00013594
1.69174e-05
0.000349855
-0.000110711
1.49595e-05
0.00028679
-7.95073e-05
0.000194261
-4.13202e-05
2.1756e-05
2.15238e-05
-3.58892e-05
6.1268e-05
8.69422e-06
-7.57419e-05
0.000104234
4.2669e-05
-9.2048e-05
0.000122716
0.000121241
-9.82975e-05
0.000118418
0.000206137
-0.000106386
9.03261e-05
0.000303053
-0.000121171
4.86198e-05
0.000422319
-0.000152148
5.23146e-06
0.00053405
-0.000181749
-4.1586e-05
0.000676677
-0.000209673
-0.000113525
0.000826472
-0.000220344
-0.000206806
0.000983755
-0.000222527
-0.000312151
0.0011238
-0.000219481
-0.000438127
0.00126847
-0.000211299
-0.000575643
0.00139883
-0.000211175
-0.000712527
0.0015208
-0.000205617
-0.000833885
0.00163032
-0.000202244
-0.000935777
0.0017258
-0.000190294
-0.00101039
0.00179176
-0.000160639
-0.00110039
0.00188539
-9.23781e-05
-0.00119915
0.00195596
-2.10351e-05
-0.00134102
0.00199518
8.0526e-05
-0.00141563
0.0019466
0.000102393
-0.00145789
0.00196326
0.000114347
-0.0014691
0.00189173
0.000115523
-0.00144409
0.00185233
9.68514e-05
-0.0013996
0.00178671
8.62444e-05
-0.00133621
0.00170034
7.1789e-05
-0.00126616
0.00159106
5.7473e-05
-0.00116994
0.0014541
1.59331e-05
-0.00104883
0.00130672
-2.92484e-05
-0.000900192
0.00114034
-8.16228e-05
-0.000731845
0.000988461
-0.000130684
-0.000561849
0.00083056
-0.000162205
-0.000395373
0.000714653
-0.000179977
-0.00025598
0.00061654
-0.000185021
-0.000140715
0.00052641
-0.000169045
-5.76811e-05
0.000468339
-0.000149535
-6.80795e-06
0.000422437
-0.000123455
8.8254e-06
0.000354621
-8.34648e-05
0.000240225
-3.71382e-05
1.4882e-05
6.99695e-05
-6.33276e-05
6.36473e-05
7.70163e-05
-0.000117087
0.000107599
0.000137598
-0.000138881
0.000126488
0.000241184
-0.000138832
0.000116116
0.00035495
-0.000138443
8.52661e-05
0.000483675
-0.000149771
5.52379e-05
0.000637143
-0.000184796
2.50442e-05
0.000781638
-0.000217394
-2.0987e-05
0.000952753
-0.000230045
-8.36114e-05
0.00110802
-0.000218926
-0.000155777
0.00125632
-0.000200404
-0.000238108
0.00138376
-0.000177624
-0.000323731
0.0015048
-0.000150706
-0.000405078
0.00160137
-0.000121193
-0.000486479
0.00168902
-8.68196e-05
-0.000553604
0.00174768
-5.02315e-05
-0.000637748
0.00179241
1.75343e-05
-0.000738728
0.00180866
8.4081e-05
-0.00084071
0.00182291
0.00016446
-0.000938608
0.0018008
0.000253063
-0.00108498
0.00182261
0.00031895
-0.00119094
0.0017214
0.000331156
-0.00126833
0.00171153
0.000329124
-0.00132687
0.00162774
0.00032253
-0.001354
0.0015812
0.00029826
-0.001367
0.00152174
0.000277976
-0.00136498
0.00145323
0.000245095
-0.00135184
0.00137196
0.000205962
-0.00131275
0.00127027
0.00014474
-0.00122684
0.00116501
5.57985e-05
-0.00111031
0.00104363
-1.98304e-05
-0.000945119
0.000929235
-0.000105961
-0.000766369
0.000814286
-0.000162477
-0.000568984
0.000718547
-0.000201278
-0.000388287
0.000648828
-0.000212985
-0.000235094
0.000568433
-0.000195216
-0.000113055
0.000521272
-0.000174972
-3.28476e-05
0.0004802
-0.000137971
5.15547e-06
0.000407391
-9.07731e-05
0.00028133
-3.59496e-05
1.75757e-05
0.000147712
-9.53176e-05
8.19927e-05
0.000182602
-0.000170002
0.000132364
0.000272763
-0.000185535
0.000154392
0.000395864
-0.000176709
0.000145892
0.000535441
-0.000171992
0.000100638
0.000703721
-0.000174792
9.13261e-05
0.000859174
-0.000212719
7.10109e-05
0.00102406
-0.000222108
5.21317e-05
0.00118242
-0.000210789
1.39359e-05
0.0013232
-0.000176979
-3.60716e-05
0.00144857
-0.000142239
-0.000100523
0.00155227
-0.000104065
-0.000169529
0.00163829
-6.44908e-05
-0.000239337
0.00169165
-2.04721e-05
-0.000309938
0.00172335
3.62665e-05
-0.000370665
0.00172164
8.67632e-05
-0.000436678
0.0017103
0.000148126
-0.000502692
0.00165915
0.000215524
-0.000603838
0.00162765
0.000296398
-0.000709911
0.00153925
0.000367619
-0.00085402
0.00153808
0.000428636
-0.000997799
0.00141925
0.000445932
-0.00108829
0.00137658
0.000425436
-0.00119468
0.00132799
0.000406145
-0.00127134
0.00129346
0.000364392
-0.00133932
0.00126061
0.000329111
-0.00139094
0.00122339
0.000281467
-0.00142497
0.00117711
0.000228872
-0.00143356
0.00111893
0.000159937
-0.00138238
0.00105467
5.91575e-05
-0.00129414
0.000972497
-1.71001e-05
-0.00115057
0.000884542
-9.88806e-05
-0.000962708
0.000797847
-0.00017142
-0.000738529
0.000706162
-0.000211793
-0.000504793
0.000663823
-0.000248731
-0.000321445
0.000613215
-0.00022813
-0.000160762
0.000567546
-0.000206958
-5.49665e-05
0.00053423
-0.000159826
4.68194e-07
0.000457122
-0.000105167
0.000320741
-3.8942e-05
2.75545e-05
0.000248676
-0.000128518
0.000109585
0.000318386
-0.000217815
0.00017442
0.000435781
-0.000227853
0.000200543
0.000571722
-0.000201979
0.00019451
0.000723318
-0.000181844
0.000178198
0.000901332
-0.000181299
0.000186365
0.00105347
-0.000202464
0.000184825
0.00122089
-0.000195287
0.000173088
0.00135836
-0.000164202
0.000134913
0.00147953
-0.000118161
8.88782e-05
0.00157502
-8.04148e-05
3.33053e-05
0.00164026
-3.24129e-05
-2.68514e-05
0.00167749
2.09604e-05
-9.06794e-05
0.0016767
7.87761e-05
-0.000152015
0.00165342
0.000131268
-0.000215513
0.00159732
0.000187816
-0.000280617
0.00153287
0.000242536
-0.00035047
0.0014433
0.000285698
-0.000438344
0.00137748
0.000338045
-0.000546707
0.00126609
0.000381528
-0.000669001
0.00123688
0.000423492
-0.000843501
0.00116326
0.000430494
-0.00095972
0.00108669
0.000406106
-0.00110321
0.00108993
0.000381546
-0.00122041
0.00106743
0.000343242
-0.00132365
0.00105927
0.000304568
-0.00141116
0.00104668
0.000264221
-0.00148062
0.00102525
0.000221325
-0.00151729
0.00100039
0.000155201
-0.00149912
0.000955863
8.06413e-05
-0.00143524
0.000896427
1.21912e-05
-0.00131204
0.000824976
-6.36305e-05
-0.00112165
0.000758561
-0.000151105
-0.000900822
0.000692571
-0.000207241
-0.000643722
0.00065248
-0.000245758
-0.000414332
0.000643406
-0.00025958
-0.000217001
0.000600183
-0.000229967
-8.04746e-05
0.000580718
-0.000183014
-6.66428e-06
0.000501035
-0.000117724
0.000357641
-4.35657e-05
4.56138e-05
0.000361035
-0.000157973
0.000152074
0.000472312
-0.000260385
0.000245497
0.000611027
-0.000268669
0.000289563
0.000752815
-0.000225159
0.000286347
0.00091706
-0.000190526
0.000284168
0.00108038
-0.000176874
0.000283669
0.0012247
-0.000170734
0.000286704
0.00136891
-0.000151058
0.000283583
0.00147855
-0.000117074
0.000255521
0.00157407
-6.64781e-05
0.000212126
0.00163064
-1.22254e-05
0.000160069
0.00165115
4.11649e-05
9.50876e-05
0.00164476
9.77149e-05
2.72896e-05
0.00159942
0.000145076
-3.96473e-05
0.00153011
0.000190243
-0.000109668
0.00143533
0.000232009
-0.000181722
0.00133954
0.000265382
-0.000256636
0.00123105
0.000287173
-0.000333968
0.00114745
0.000307368
-0.000451018
0.00105103
0.000332109
-0.000563611
0.000997777
0.0003517
-0.00073725
0.000978106
0.00035879
-0.000890635
0.00089456
0.000345518
-0.00104647
0.000924721
0.000321039
-0.00118827
0.000910938
0.000298292
-0.00131032
0.000918537
0.000262787
-0.00142258
0.000914877
0.000244058
-0.00151426
0.00091369
0.000203244
-0.00158133
0.000894688
0.000172778
-0.00160028
0.000858715
0.00011609
-0.00155532
0.000807226
4.42481e-05
-0.00144691
0.000750532
-3.39698e-05
-0.00126118
0.000691522
-0.000118694
-0.00102712
0.000643419
-0.000184904
-0.00075225
0.000611486
-0.000233877
-0.000493741
0.000638631
-0.000253733
-0.000269488
0.000624357
-0.000248428
-0.000102469
0.000614421
-0.00020072
-1.50032e-05
0.000545369
-0.000131801
0.00039309
-5.04521e-05
6.41436e-05
0.000470739
-0.000173847
0.000196305
0.000631767
-0.000291617
0.000316255
0.000786613
-0.000295536
0.000374616
0.000929339
-0.000234885
0.000390525
0.00108182
-0.000180669
0.000391101
0.00122506
-0.000145257
0.00038173
0.00135814
-0.000124065
0.000379021
0.00147107
-9.94491e-05
0.000370455
0.00155166
-6.45356e-05
0.000355227
0.00160142
-1.21138e-05
0.000321834
0.00162902
3.50145e-05
0.000255007
0.00161906
9.89188e-05
0.000184597
0.00156962
0.000145549
0.000110666
0.00148518
0.000188175
3.50065e-05
0.00138559
0.00022018
-4.34488e-05
0.00127062
0.000243164
-0.0001218
0.00116262
0.000255268
-0.00020279
0.001056
0.000256035
-0.000286731
0.000975908
0.00025548
-0.000404078
0.000907472
0.000260903
-0.000530597
0.000853293
0.000271003
-0.000681138
0.000848063
0.000280584
-0.00085557
0.000782576
0.000286417
-0.0010017
0.00080123
0.000269622
-0.0011523
0.000795376
0.000266164
-0.001278
0.000805986
0.000238245
-0.00140349
0.000805686
0.000234682
-0.00151676
0.000805096
0.000221862
-0.00160323
0.000781265
0.000199896
-0.001648
0.000749444
0.000154038
-0.00163004
0.000710013
7.92602e-05
-0.00154063
0.000666248
-5.13534e-06
-0.00137577
0.000621233
-9.45669e-05
-0.0011417
0.000584025
-0.000174679
-0.000866162
0.000549226
-0.000213276
-0.000570986
0.000583185
-0.000239731
-0.000321218
0.000619375
-0.000244786
-0.000128673
0.000630157
-0.00020828
-2.37384e-05
0.000578899
-0.000138465
0.000424464
-5.51128e-05
8.06977e-05
0.000569884
-0.000179843
0.000242597
0.000780858
-0.00031099
0.000389696
0.000949156
-0.000309643
0.000466723
0.00108794
-0.000235628
0.000499062
0.00121906
-0.000169583
0.000498544
0.00133811
-0.000112529
0.000489327
0.0014471
-7.97398e-05
0.00047421
0.00153063
-4.44419e-05
0.000448787
0.00158727
-1.01871e-05
0.000414509
0.00161057
2.51226e-05
0.000379114
0.0015915
7.2911e-05
0.000325027
0.0015428
0.00013035
0.000252281
0.00147074
0.000171625
0.000164248
0.00136512
0.000208088
7.81227e-05
0.00124543
0.000226292
-9.3905e-06
0.00112454
0.0002336
-9.63851e-05
0.00101926
0.000230361
-0.000185083
0.00092347
0.000221228
-0.000279763
0.000856877
0.00021371
-0.000387184
0.000805112
0.000209782
-0.000510095
0.000762807
0.000213397
-0.000632329
0.000744282
0.000226014
-0.000806038
0.0007128
0.000243485
-0.000946282
0.000700046
0.000241428
-0.00109099
0.000693802
0.000246282
-0.00122212
0.000694865
0.000242253
-0.00135537
0.000697999
0.000240937
-0.00148465
0.000685173
0.000249202
-0.00159457
0.000665458
0.000225723
-0.00166326
0.000639054
0.00017908
-0.0016822
0.000602218
0.000126737
-0.00162375
0.000575084
3.27197e-05
-0.00147697
0.000538139
-6.36938e-05
-0.00123281
0.000512194
-0.000172321
-0.000942438
0.000483229
-0.000224379
-0.000634152
0.000512703
-0.000237805
-0.000367858
0.000578315
-0.000225234
-0.000150696
0.000632911
-0.000219916
-3.0464e-05
0.000602581
-0.000143913
0.000456142
-6.21408e-05
9.3638e-05
0.000651585
-0.000175338
0.000282395
0.000911504
-0.000319403
0.000454343
0.00109327
-0.000316058
0.00054986
0.00122075
-0.000228326
0.000594334
0.00132706
-0.000152471
0.000598276
0.00141833
-8.41603e-05
0.00058751
0.00149911
-4.12469e-05
0.000561194
0.00155555
1.3904e-06
0.000522376
0.00158692
3.91681e-05
0.000470584
0.0015783
8.40616e-05
0.000414265
0.00154169
0.000106136
0.000347106
0.00146522
0.000144734
0.000278075
0.00135848
0.000181292
0.00019553
0.00124075
0.00020692
0.000105408
0.00112035
0.000215199
1.25148e-05
0.00100564
0.000211785
-7.79568e-05
0.000908782
0.000200947
-0.000172123
0.000827558
0.000190079
-0.00027544
0.000776271
0.000183924
-0.000375668
0.000727861
0.000177478
-0.000487809
0.000693477
0.000181471
-0.000592914
0.000655677
0.00019371
-0.0007432
0.00064455
0.000218535
-0.000871036
0.000605194
0.000222687
-0.00100409
0.00058867
0.000238191
-0.00113028
0.000582261
0.000238788
-0.00127253
0.000573267
0.000266983
-0.00141255
0.000562749
0.000262449
-0.0015369
0.00054838
0.000241422
-0.00163752
0.00053074
0.000208933
-0.00167649
0.000518141
0.000123052
-0.00165152
0.000497635
5.24756e-05
-0.00154371
0.00046543
-3.51026e-05
-0.00133844
0.000438811
-0.00013188
-0.00104181
0.000423213
-0.000236613
-0.000703177
0.000434551
-0.000260485
-0.000401794
0.000505924
-0.000228991
-0.000174
0.000603978
-0.000198861
-3.79442e-05
0.000613642
-0.000147116
0.000483548
-6.53502e-05
0.000104291
0.00070882
-0.000161526
0.000316769
0.00101537
-0.000316342
0.000514944
0.00120762
-0.000312529
0.000630532
0.00132056
-0.000215398
0.000681261
0.00140639
-0.000130053
0.000690216
0.00147161
-6.22316e-05
0.000677571
0.00152138
-9.62273e-06
0.000644477
0.00154865
4.00017e-05
0.000594097
0.0015528
8.44911e-05
0.000527458
0.00152546
0.000119474
0.000452639
0.00146526
0.000151245
0.000370207
0.00137495
0.000172704
0.000288817
0.0012601
0.000179768
0.000203443
0.00113305
0.000193068
0.000116086
0.00101372
0.000193983
2.61398e-05
0.00090864
0.000186951
-6.33251e-05
0.00082356
0.000174687
-0.000157205
0.000753129
0.000168309
-0.000255078
0.000708648
0.000165497
-0.000353047
0.000660296
0.000165534
-0.000451365
0.000622073
0.000169723
-0.000545947
0.000571638
0.000178621
-0.000667554
0.000566341
0.000199816
-0.000773992
0.000507695
0.000203938
-0.000890216
0.000484002
0.000220891
-0.00101507
0.000465386
0.000241725
-0.00115652
0.000455312
0.000259405
-0.00130176
0.000446476
0.000261516
-0.00144509
0.000439422
0.000252293
-0.00156169
0.000439575
0.000207759
-0.00164614
0.000438576
0.000164016
-0.00165731
0.000413571
9.52353e-05
-0.00159617
0.000372666
3.16256e-05
-0.00142691
0.000334615
-6.50634e-05
-0.00115064
0.000322015
-0.00017508
-0.000797229
0.000343359
-0.000262216
-0.000452759
0.000425728
-0.000264273
-0.000196667
0.000540762
-0.000192875
-4.5774e-05
0.00060999
-0.000147241
0.000509693
-7.19183e-05
0.000108105
0.000746113
-0.000145399
0.000339349
0.00109199
-0.000307868
0.000561939
0.0012934
-0.000308367
0.000695288
0.00139341
-0.000206204
0.000752319
0.00145763
-0.000108275
0.000761119
0.00149901
-3.62034e-05
0.000744428
0.00152452
1.35437e-05
0.000701027
0.00152247
6.95726e-05
0.000642191
0.00150162
0.00011002
0.000570666
0.00145108
0.000145909
0.000484484
0.001377
0.000174436
0.000389044
0.00127601
0.000194372
0.000292109
0.00116002
0.000197009
0.00020805
0.00103451
0.000182606
0.000122638
0.000922604
0.00017653
4.06397e-05
0.000827544
0.000163094
-4.44974e-05
0.000752424
0.000156274
-0.000134452
0.000689034
0.000154051
-0.000223005
0.000642534
0.000154667
-0.000314501
0.00059176
0.000160033
-0.00039694
0.00054167
0.000162841
-0.000488741
0.000495402
0.000168038
-0.000574164
0.000473919
0.000177844
-0.000663159
0.000411601
0.000185088
-0.000767322
0.000383153
0.000205011
-0.000881773
0.000352976
0.000226862
-0.00101446
0.000343237
0.000244759
-0.00115719
0.000336462
0.000252742
-0.00130387
0.00034428
0.000241826
-0.00145252
0.0003548
0.000233423
-0.00156263
0.000344608
0.000204078
-0.00162859
0.000306193
0.00017334
-0.00161303
0.000253654
0.000103456
-0.00148986
0.000202379
9.06086e-06
-0.00124204
0.000175828
-0.000101628
-0.000893141
0.000203828
-0.000209373
-0.00051001
0.000315057
-0.000272459
-0.000218869
0.000472674
-0.000223052
-5.0321e-05
0.000589429
-0.000147986
0.000536679
-7.73048e-05
0.000113692
0.000750733
-0.000118313
0.000362859
0.00112963
-0.000286812
0.000605208
0.00134339
-0.000292342
0.000755353
0.00143791
-0.000194645
0.000817645
0.00148272
-8.7382e-05
0.000824056
0.00149902
-6.42114e-06
0.00079999
0.00149676
5.18301e-05
0.000754886
0.00147286
9.47165e-05
0.000690792
0.00143041
0.000135303
0.000611036
0.00136552
0.000165312
0.000519028
0.00127907
0.000189941
0.000417017
0.00117254
0.000205488
0.00031105
0.00105846
0.000207533
0.000216054
0.000943269
0.000186232
0.000131543
0.000842459
0.000164656
5.3816e-05
0.00075328
0.000151991
-2.25456e-05
0.000686284
0.000142502
-0.00010862
0.000627509
0.0001476
-0.00018513
0.000571363
0.00014768
-0.000266925
0.000520028
0.000153528
-0.000341383
0.000463202
0.000152925
-0.000418443
0.000417172
0.000155289
-0.000477921
0.000382314
0.000151083
-0.000554135
0.000326511
0.000161304
-0.000641751
0.000296586
0.000174183
-0.000742104
0.000256946
0.000196382
-0.000859903
0.000245025
0.00021601
-0.000992616
0.000245513
0.000223662
-0.00114678
0.00026389
0.000234551
-0.00129435
0.000266284
0.00023609
-0.00143723
0.000246348
0.00024114
-0.00154632
0.000203768
0.000211512
-0.00158792
0.000139388
0.000155865
-0.00152379
6.61131e-05
7.21417e-05
-0.00132218
1.49755e-05
-4.07642e-05
-0.00100374
2.77238e-05
-0.000142337
-0.000594912
0.000145575
-0.000239342
-0.000247818
0.000381253
-0.000255673
-6.06204e-05
0.000547955
-0.000145723
0.000554988
-7.89277e-05
0.000113922
0.000732811
-9.59996e-05
0.000372545
0.00113515
-0.000264135
0.000629122
0.00136209
-0.000275283
0.000792699
0.00145393
-0.000179594
0.000862582
0.00148546
-7.26184e-05
0.000865642
0.00147646
1.95011e-05
0.000836229
0.00145254
7.3635e-05
0.000782014
0.00140598
0.000121097
0.000712954
0.00134798
0.00015149
0.000632091
0.00127111
0.000175279
0.000536502
0.00117514
0.00019952
0.000432476
0.00106996
0.0002066
0.000327771
0.000959415
0.000203748
0.000229635
0.000854943
0.000186463
0.000147828
0.000762177
0.000162089
7.29223e-05
0.000682706
0.000145479
5.22859e-06
0.000615398
0.000138579
-7.0516e-05
0.000563579
0.000139674
-0.000144284
0.000505098
0.000140033
-0.000210007
0.00044428
0.000141471
-0.00027927
0.00039038
0.000142084
-0.000342448
0.000348043
0.000132307
-0.000396281
0.000306653
0.000129494
-0.000454963
0.000254987
0.000130206
-0.000527563
0.000223018
0.000146168
-0.000616521
0.000181865
0.000164039
-0.000711112
0.000161218
0.000178397
-0.00083691
0.000173034
0.000198277
-0.00096885
0.000177778
0.000218052
-0.00111994
0.000168377
0.000248994
-0.00127759
0.00014774
0.000256267
-0.0014179
0.000100374
0.000243702
-0.00150706
2.98231e-05
0.000198721
-0.00150032
-6.46729e-05
0.000124048
-0.00136302
-0.000145396
2.30706e-05
-0.00107552
-0.000170539
-8.92357e-05
-0.000681579
-6.02156e-05
-0.000188152
-0.000281377
0.000214473
-0.000233423
-6.58505e-05
0.000495685
-0.000163258
0.00056625
-7.71125e-05
0.000126663
0.000641946
-3.57982e-05
0.000396186
0.0010842
-0.000218574
0.000665448
0.00133371
-0.000240878
0.000847348
0.00142445
-0.000152422
0.000919873
0.00144605
-3.31207e-05
0.000917336
0.00142205
5.69468e-05
0.000877198
0.00137775
0.000114924
0.000818595
0.00131284
0.000151739
0.000747336
0.00124414
0.000175098
0.000664738
0.00116206
0.000191646
0.000572958
0.00107028
0.00019664
0.000470475
0.000968548
0.000203899
0.000366304
0.000868391
0.000195195
0.000267365
0.000773324
0.000180558
0.000181209
0.000689101
0.000159232
0.000102563
0.000618894
0.000142459
2.8061e-05
0.000556395
0.000133505
-3.34891e-05
0.000494397
0.000130732
-9.08197e-05
0.000434889
0.00012754
-0.000155066
0.000384078
0.000124448
-0.000222252
0.000337108
0.000120459
-0.000275778
0.000288965
0.000112604
-0.000323412
0.00024525
0.000109037
-0.000374315
0.000197983
0.000107907
-0.000428156
0.00015957
0.000117289
-0.000503209
0.000122389
0.00013453
-0.000587036
9.41545e-05
0.000150891
-0.000688705
9.90265e-05
0.000175677
-0.000809954
8.80294e-05
0.000210998
-0.000954533
7.30382e-05
0.000239918
-0.00111534
4.68816e-05
0.000261667
-0.00127183
-5.69386e-06
0.000262558
-0.00139589
-8.22015e-05
0.000236079
-0.00144157
-0.000193664
0.000174678
-0.00136566
-0.000302876
8.15639e-05
-0.00113941
-0.000368034
-2.87564e-05
-0.000776154
-0.00029345
-0.000130017
-0.000346431
-2.69996e-05
-0.00018825
-6.69838e-05
0.000400442
-0.000184205
0.000566564
-6.72983e-05
0.000120867
0.000533771
-1.26919e-05
0.000379308
0.0010297
-0.000203947
0.000660384
0.00129308
-0.000240448
0.00085769
0.00138455
-0.000157405
0.000943317
0.00139533
-3.4906e-05
0.000943435
0.0013517
7.02342e-05
0.000908089
0.00128685
0.000126251
0.000841942
0.00121608
0.000162909
0.000758047
0.00114309
0.000184943
0.000668574
0.00105397
0.00019756
0.000575735
0.000959976
0.000203143
0.000479639
0.000865852
0.000198793
0.000383803
0.000773436
0.000190791
0.000294166
0.000692771
0.00017019
0.000214636
0.000617015
0.000151617
0.00014617
0.000551129
0.000136231
8.02203e-05
0.0004915
0.000130845
1.07596e-05
0.000437178
0.00012668
-5.53819e-05
0.000384725
0.000116306
-0.000114442
0.000333967
0.00010917
-0.000169515
0.00028848
0.000103702
-0.000217702
0.000240487
9.66649e-05
-0.000263703
0.00019727
9.39804e-05
-0.000308773
0.000152338
9.07161e-05
-0.000355461
0.000109264
9.6994e-05
-0.000415186
6.76235e-05
0.000114491
-0.000487308
2.98912e-05
0.000136385
-0.000565671
9.51014e-06
0.000167879
-0.00066499
-1.31894e-05
0.000200538
-0.000786009
-3.94764e-05
0.000233534
-0.000933751
-6.54735e-05
0.000260097
-0.00109477
-0.000118145
0.000273469
-0.0012453
-0.000193299
0.00026163
-0.00134051
-0.000314002
0.000215543
-0.00132656
-0.000453377
0.000136553
-0.00115518
-0.000579964
4.05538e-05
-0.000816807
-0.000558588
-7.32369e-05
-0.000404795
-0.000290679
-0.000148332
-6.72453e-05
0.000217484
-0.00015459
0.000548184
-4.88656e-05
0.00015157
0.000332555
4.96454e-05
0.000389597
0.00091128
-0.000119607
0.000676588
0.00119038
-0.000184291
0.000879463
0.00128852
-0.000106842
0.000974309
0.0012918
8.68506e-06
0.000968764
0.00124923
0.000108015
0.000920895
0.00117467
0.000160048
0.000852219
0.00109037
0.00019439
0.000783385
0.00100594
0.00020598
0.000712345
0.000916963
0.000208046
0.000634221
0.000835215
0.000202885
0.000547154
0.00075821
0.000194709
0.000455264
0.000685177
0.00018015
0.000363823
0.000620016
0.000164196
0.000281439
0.000561997
0.000137402
0.000204464
0.000508381
0.000119723
0.000128187
0.000455189
0.000112588
5.0221e-05
0.000399413
0.00011573
-2.00002e-05
0.000347562
0.000107384
-7.64202e-05
0.000296084
9.4304e-05
-0.000127586
0.000247635
9.20103e-05
-0.000170287
0.00019992
8.32678e-05
-0.000212684
0.000157306
8.23601e-05
-0.000250853
0.000112082
7.84243e-05
-0.000295603
6.87142e-05
8.52999e-05
-0.00034158
1.84616e-05
9.51386e-05
-0.00040308
-2.33701e-05
0.000114761
-0.00047119
-6.70662e-05
0.000144686
-0.000563305
-0.000100895
0.00017982
-0.000678285
-0.000140119
0.000215623
-0.000812311
-0.000188755
0.000257307
-0.000960905
-0.000264328
0.000294777
-0.00111826
-0.000349476
0.00031353
-0.00124336
-0.000485399
0.000296502
-0.00128001
-0.00065939
0.000242657
-0.00117848
-0.000842908
0.00016142
-0.000885899
-0.00089474
4.35701e-05
-0.000450967
-0.000662465
-6.31457e-05
-8.42295e-05
-4.10171e-05
-0.000108237
0.000483997
-2.00443e-05
0.000123823
0.000196514
1.22182e-05
0.000341156
0.000831106
-0.00013716
0.00063131
0.0011059
-0.000205674
0.000847347
0.0012054
-0.000132915
0.000961647
0.00119363
-1.6129e-05
0.000988468
0.00113509
8.73114e-05
0.000961588
0.00104402
0.00015753
0.000906966
0.000965021
0.000179968
0.000834353
0.000893476
0.000185082
0.000748577
0.0008209
0.00018184
0.000658812
0.000749491
0.000175489
0.000566207
0.00068294
0.000167876
0.000475926
0.000619572
0.000155886
0.000388772
0.00056625
0.00014092
0.000305139
0.000516453
0.000129177
0.000231675
0.000470297
0.000111548
0.000165348
0.000422927
9.85897e-05
0.000100305
0.000368086
9.63699e-05
3.01252e-05
0.000317346
0.000100395
-2.72725e-05
0.000259934
9.35465e-05
-8.13306e-05
0.000216368
8.53247e-05
-0.000127146
0.000166647
7.90877e-05
-0.000168636
0.000122699
7.60964e-05
-0.000205911
7.67708e-05
7.2586e-05
-0.000246627
2.8453e-05
8.09775e-05
-0.000293538
-2.06905e-05
8.60624e-05
-0.000344213
-6.48154e-05
9.21202e-05
-0.000396278
-0.000129472
0.00011447
-0.000454036
-0.000189777
0.00014664
-0.000523941
-0.000256307
0.000186093
-0.000621205
-0.00032215
0.00023066
-0.000750789
-0.000413142
0.000278399
-0.000914671
-0.000506818
0.000321223
-0.00107964
-0.00066736
0.000346926
-0.00119662
-0.000872581
0.000330175
-0.00117836
-0.00112103
0.00025986
-0.000997217
-0.00123158
0.000155695
-0.000580035
-0.00110449
2.48401e-05
-0.000156347
-0.000443157
-2.15458e-05
0.000287542
4.01096e-05
9.02446e-05
8.99425e-05
1.63257e-05
0.000333956
0.000709106
-0.000121711
0.000616439
0.00101106
-0.000187638
0.000850123
0.00111948
-0.000147765
0.000976267
0.00111163
-4.41429e-05
0.00100746
0.00105073
5.31724e-05
0.000965267
0.00095818
0.000128028
0.000897963
0.000870996
0.000161328
0.000834811
0.00079252
0.000164108
0.000764671
0.00072778