/*--------------------------------*- C++ -*----------------------------------*\
| =========                 |                                                 |
| \\      /  F ield         | OpenFOAM: The Open Source CFD Toolbox           |
|  \\    /   O peration     | Version:  v1806                                 |
|   \\  /    A nd           | Web:      www.OpenFOAM.com                      |
|    \\/     M anipulation  |                                                 |
\*---------------------------------------------------------------------------*/
FoamFile
{
    version     2.0;
    format      ascii;
    class       volVectorField;
    location    "0.0905";
    object      U;
}
// * * * * * * * * * * * * * * * * * * * * * * * * * * * * * * * * * * * * * //

dimensions      [0 1 -1 0 0 0 0];


internalField   nonuniform List<vector> 
64000
(
(-0.0101761 -0.0118424 -0.00824718)
(0.0152168 -0.0115127 -0.00578283)
(0.0214935 -0.0038953 0.000320821)
(0.02621 -0.00329471 0.00110721)
(0.0274831 -0.00232275 0.00144279)
(0.0278837 -0.00273078 0.00203108)
(0.0274759 -0.00373306 0.00221918)
(0.0243058 -0.00409466 0.00270627)
(0.0231051 -0.00504593 0.00406336)
(0.0162662 -0.00476957 0.00375535)
(0.0105577 -0.00527678 0.00539251)
(-0.0015268 -0.00795319 0.00680419)
(-0.0191303 -0.0124519 0.00592448)
(-0.0436504 -0.0174514 0.00382992)
(-0.0714252 -0.0180193 0.00473238)
(-0.10788 -0.0171253 0.00238798)
(-0.135242 -5.47775e-05 0.00145496)
(-0.180423 -0.00449725 -0.00285853)
(-0.17819 -0.00953342 0.00482234)
(-0.239536 -0.0271139 -0.0142541)
(-0.210503 -0.0209148 -0.0210033)
(-0.105177 -0.0227646 -0.0381338)
(-0.109409 -0.00768703 -0.0252181)
(-0.107767 -0.00282746 -0.0371327)
(-0.125799 0.00329564 -0.0481848)
(-0.120004 0.0114545 -0.0578619)
(-0.108489 0.02156 -0.0625107)
(-0.0720703 0.0322855 -0.0588181)
(-0.0379148 0.0393114 -0.0542042)
(0.00579922 0.0509146 -0.0398186)
(0.0506344 0.0482105 -0.0320358)
(0.0870701 0.0384491 -0.0248712)
(0.103337 0.0281273 -0.0126073)
(0.100337 0.0144549 -0.00520977)
(0.0867558 0.00586793 0.000991827)
(0.0684824 -0.00212024 0.00359409)
(0.0495778 -0.0061457 0.00463239)
(0.0295931 -0.00552971 0.00547221)
(0.0157458 -0.0040669 0.0059216)
(0.00206461 -0.00264499 0.00383328)
(-0.0072789 0.00237255 -0.00464622)
(0.00881281 -0.0163809 -0.00439659)
(0.0241748 -0.0105942 -0.00192291)
(0.0347734 -0.00700339 -0.000957026)
(0.0404716 -0.00238097 -0.00142024)
(0.0406025 -0.000503428 -0.00175524)
(0.0394244 0.00344913 -0.00326071)
(0.0324085 0.00500212 -0.00292293)
(0.0252851 0.0103719 -0.00727432)
(0.0080068 0.0162099 -0.00403081)
(-0.0155089 0.0247787 -0.00828218)
(-0.0525991 0.0321975 0.000813953)
(-0.0993185 0.0425127 -0.0040439)
(-0.151757 0.0619852 -0.00680844)
(-0.20977 0.0754164 -0.0113991)
(-0.26784 0.0843547 -0.0182539)
(-0.345113 0.0929195 -0.0439052)
(-0.450733 0.094998 -0.0588328)
(-0.496364 0.101257 -0.0763768)
(-0.583052 0.100774 -0.0977609)
(-0.536617 0.12848 -0.0946737)
(-0.402902 0.143543 -0.125616)
(-0.388742 0.189077 -0.135308)
(-0.373433 0.212896 -0.14552)
(-0.364719 0.237429 -0.157334)
(-0.325858 0.258766 -0.163626)
(-0.277737 0.2797 -0.165069)
(-0.205489 0.294985 -0.15347)
(-0.130302 0.301195 -0.133679)
(-0.0571822 0.305204 -0.109979)
(0.00665283 0.289954 -0.0768534)
(0.0700408 0.259334 -0.0466828)
(0.107783 0.211521 -0.0390399)
(0.120215 0.159801 -0.0262735)
(0.115333 0.109367 -0.0128882)
(0.0968268 0.0696864 -0.0054108)
(0.0776421 0.0411866 -0.00105449)
(0.0533354 0.0263858 -7.15353e-05)
(0.0318671 0.0165407 0.00137614)
(0.00771952 0.00810719 0.0014384)
(-0.000471629 -0.00474168 0.00155)
(0.0152538 -0.0222089 -0.00198536)
(0.0322145 -0.0169912 -0.00303485)
(0.0430481 -0.00492974 -0.00430653)
(0.0453114 0.0046049 -0.00593312)
(0.0432832 0.0157433 -0.00725471)
(0.0361725 0.0307657 -0.00834278)
(0.0219232 0.044912 -0.00985435)
(0.00629191 0.0690207 -0.0017719)
(-0.0238918 0.0899761 -0.00498423)
(-0.0617438 0.116648 -0.00816612)
(-0.114496 0.148999 -0.0132347)
(-0.169146 0.182599 -0.0178336)
(-0.247411 0.211416 -0.0324379)
(-0.342783 0.231551 -0.0358221)
(-0.439279 0.245205 -0.0424148)
(-0.522933 0.250336 -0.0591789)
(-0.611275 0.270035 -0.07801)
(-0.651789 0.300551 -0.0958007)
(-0.723445 0.335496 -0.115974)
(-0.662944 0.373662 -0.105012)
(-0.502652 0.403683 -0.123852)
(-0.465028 0.460612 -0.125152)
(-0.438503 0.491074 -0.123405)
(-0.420791 0.523181 -0.126453)
(-0.377626 0.544568 -0.12501)
(-0.329001 0.558974 -0.1204)
(-0.262685 0.562004 -0.105137)
(-0.196849 0.551933 -0.0829253)
(-0.130734 0.531654 -0.059496)
(-0.0754115 0.499816 -0.0400318)
(-0.0307957 0.452192 -0.0278883)
(0.00256283 0.379688 -0.017362)
(0.0248418 0.306989 -0.00873433)
(0.0385234 0.227578 -0.0107236)
(0.0449775 0.162923 -0.0109461)
(0.0457065 0.115553 -0.00732579)
(0.0371093 0.0786528 -0.00511823)
(0.0264877 0.0525127 -0.00148191)
(0.00768167 0.0262452 0.00122063)
(0.000800132 -0.00885441 0.00193406)
(0.0176215 -0.0233603 -0.00128524)
(0.0384402 -0.0107209 -0.0038604)
(0.0460594 0.00619629 -0.00706317)
(0.0441559 0.0301367 -0.00778939)
(0.0402156 0.0545462 -0.0093211)
(0.0275839 0.0897871 -0.00910086)
(0.00918579 0.12258 -0.00589713)
(-0.0177316 0.167263 -0.0106165)
(-0.0635423 0.20723 -0.01302)
(-0.109387 0.251379 -0.0173947)
(-0.174102 0.288783 -0.0250265)
(-0.257447 0.317836 -0.0275431)
(-0.348028 0.334697 -0.0292269)
(-0.433811 0.355904 -0.0319861)
(-0.513179 0.379198 -0.0365758)
(-0.581069 0.409681 -0.051785)
(-0.656299 0.438529 -0.0618442)
(-0.682905 0.480625 -0.071414)
(-0.740798 0.525945 -0.0778653)
(-0.669425 0.55913 -0.0466255)
(-0.488102 0.580188 -0.0456395)
(-0.436292 0.622353 -0.0399123)
(-0.40994 0.62867 -0.0294727)
(-0.393252 0.641891 -0.0273816)
(-0.359206 0.642073 -0.0224571)
(-0.322261 0.634712 -0.018986)
(-0.272612 0.615758 -0.0113153)
(-0.224379 0.589995 0.000667258)
(-0.17859 0.557068 0.00789552)
(-0.147548 0.516007 0.0127892)
(-0.122026 0.471245 0.0115019)
(-0.0981577 0.411887 0.00563359)
(-0.0756788 0.349499 -0.00235692)
(-0.0521321 0.269912 -0.00589522)
(-0.022023 0.202389 -0.0106772)
(-0.00109805 0.147716 -0.010911)
(0.00785589 0.11152 -0.00816548)
(0.0161684 0.0784596 -0.00365615)
(0.00607145 0.0386845 0.000947641)
(0.00106516 -0.00916784 0.000633078)
(0.0234223 -0.0125106 -0.00410709)
(0.0457662 0.00433086 -0.0078757)
(0.0546175 0.0385016 -0.00881076)
(0.0521268 0.0756763 -0.00848479)
(0.0463486 0.121411 -0.0156859)
(0.0283399 0.175957 -0.0135833)
(0.000481224 0.235686 -0.00657305)
(-0.0323739 0.291868 -0.00806067)
(-0.0854752 0.339242 -0.0102229)
(-0.145313 0.376852 -0.0130459)
(-0.223568 0.397076 -0.0156825)
(-0.298035 0.419745 -0.0164288)
(-0.3729 0.444403 -0.0215616)
(-0.444906 0.474488 -0.0210665)
(-0.512813 0.507167 -0.0216797)
(-0.567876 0.535474 -0.0258667)
(-0.62437 0.570564 -0.0236615)
(-0.631358 0.617848 -0.0179989)
(-0.67442 0.664845 -0.0261613)
(-0.604411 0.692508 0.00520877)
(-0.416804 0.698094 0.0167577)
(-0.360593 0.710988 0.0281097)
(-0.343687 0.683787 0.0365877)
(-0.339077 0.667048 0.0366945)
(-0.324288 0.640562 0.0424463)
(-0.307301 0.608715 0.0436394)
(-0.276212 0.571708 0.0476321)
(-0.248632 0.530524 0.040836)
(-0.222923 0.490607 0.0325403)
(-0.203102 0.445385 0.0223786)
(-0.192995 0.412103 0.0152101)
(-0.184282 0.374255 0.00767489)
(-0.177322 0.343383 -0.00434233)
(-0.154147 0.279082 -0.013964)
(-0.104642 0.20973 -0.0148268)
(-0.0531345 0.161807 -0.0140352)
(-0.0175086 0.131412 -0.0118631)
(0.00252625 0.0973355 -0.00637729)
(0.00320397 0.0486399 0.000939174)
(0.00583016 -0.0036014 -0.000111116)
(0.0284484 0.00264929 -0.00686287)
(0.0597338 0.0294007 -0.00658048)
(0.0715442 0.081253 -0.010196)
(0.0661468 0.139046 -0.0151722)
(0.0626081 0.202504 -0.0189256)
(0.046406 0.27768 -0.0141565)
(0.0127881 0.332248 -0.00561976)
(-0.0398492 0.377504 -0.00572033)
(-0.109742 0.411764 -0.00792671)
(-0.179107 0.44162 -0.01006)
(-0.244525 0.468943 -0.0102367)
(-0.303658 0.502414 -0.00853648)
(-0.362202 0.530411 -0.00549928)
(-0.411784 0.560292 0.000123855)
(-0.464316 0.588766 0.00585502)
(-0.496512 0.618882 0.00891847)
(-0.530968 0.64995 0.00855123)
(-0.531917 0.698644 0.0103344)
(-0.56182 0.734027 0.00950214)
(-0.495519 0.758311 0.0391922)
(-0.325382 0.709455 0.0532196)
(-0.285648 0.691583 0.0636444)
(-0.290625 0.63338 0.0751371)
(-0.300714 0.593127 0.0769748)
(-0.304925 0.550166 0.0764131)
(-0.30395 0.507576 0.0736827)
(-0.293027 0.465387 0.0672094)
(-0.278796 0.418282 0.0651139)
(-0.26716 0.37958 0.0437357)
(-0.257469 0.335916 0.0322525)
(-0.246366 0.305153 0.0171904)
(-0.232157 0.279022 0.00640751)
(-0.238768 0.267214 -0.00538395)
(-0.241702 0.242912 -0.0171082)
(-0.175959 0.193999 -0.0148902)
(-0.0937568 0.162818 -0.0156304)
(-0.0410537 0.136992 -0.0122138)
(-0.0050925 0.105376 -0.00716382)
(0.00225119 0.0523611 0.00146709)
(0.00649854 0.00194366 -0.00107367)
(0.0378719 0.0159392 -0.0102409)
(0.0807437 0.056547 -0.0105029)
(0.105097 0.111819 -0.0127198)
(0.100185 0.177928 -0.0178117)
(0.0974245 0.250875 -0.0203954)
(0.0596337 0.319142 -0.0138246)
(-0.00397621 0.347413 0.00101349)
(-0.0554742 0.391334 -0.00393673)
(-0.112773 0.429151 -0.00454033)
(-0.161463 0.473887 -0.00454689)
(-0.212365 0.516171 -0.00260689)
(-0.258815 0.556208 0.000867063)
(-0.305982 0.589784 0.00587395)
(-0.345608 0.623031 0.0140759)
(-0.380752 0.647903 0.0193902)
(-0.402884 0.675773 0.0256758)
(-0.421371 0.687755 0.0289651)
(-0.409228 0.713671 0.0273484)
(-0.429644 0.726169 0.017816)
(-0.424084 0.746321 0.0352005)
(-0.287891 0.639184 0.056419)
(-0.234408 0.590732 0.0608658)
(-0.256594 0.527834 0.0724186)
(-0.277298 0.485945 0.0722717)
(-0.298398 0.447351 0.0713506)
(-0.313386 0.41235 0.0673624)
(-0.319142 0.377621 0.0599163)
(-0.31804 0.340642 0.0465625)
(-0.318495 0.306203 0.0304854)
(-0.315309 0.273002 0.0170726)
(-0.307129 0.244883 0.00421993)
(-0.292422 0.224516 -0.00392491)
(-0.287066 0.209024 -0.0112953)
(-0.289978 0.219556 -0.0198317)
(-0.227991 0.194498 -0.0214588)
(-0.128368 0.168734 -0.0223547)
(-0.0563863 0.148176 -0.0172612)
(-0.0102727 0.114663 -0.0111159)
(0.00220872 0.0575392 -0.000284641)
(0.00724544 0.00825973 -0.00382813)
(0.045432 0.0346901 -0.0139361)
(0.0993303 0.083729 -0.0139461)
(0.125423 0.139848 -0.0117998)
(0.12815 0.199266 -0.012745)
(0.117746 0.272541 -0.0139656)
(0.0572889 0.305755 -0.00390867)
(0.00604758 0.352209 0.00424046)
(-0.0253203 0.398467 -6.78249e-05)
(-0.0754198 0.452555 0.00151709)
(-0.117607 0.49747 0.00195131)
(-0.160654 0.535641 0.0085604)
(-0.196972 0.569758 0.0142643)
(-0.228973 0.597189 0.0225847)
(-0.255838 0.623796 0.026994)
(-0.284994 0.639201 0.031383)
(-0.302761 0.651582 0.034353)
(-0.320875 0.649531 0.033695)
(-0.317981 0.645755 0.0309716)
(-0.330897 0.619929 0.0154091)
(-0.372906 0.626076 0.0173718)
(-0.290044 0.544159 0.0368065)
(-0.221541 0.463337 0.0395037)
(-0.244445 0.421681 0.0506256)
(-0.272978 0.386496 0.0538488)
(-0.304383 0.36113 0.0549287)
(-0.329583 0.335636 0.0557344)
(-0.346858 0.30939 0.0481322)
(-0.357086 0.281799 0.0383315)
(-0.364198 0.251497 0.0160069)
(-0.365367 0.219939 0.006927)
(-0.355484 0.195107 -0.00248966)
(-0.340293 0.182374 -0.00982045)
(-0.321762 0.172557 -0.0137943)
(-0.328368 0.193821 -0.0232397)
(-0.277856 0.198074 -0.0214034)
(-0.162511 0.17431 -0.0229961)
(-0.0749787 0.15762 -0.0178508)
(-0.0154389 0.122096 -0.010709)
(0.00319475 0.0615601 0.000527098)
(0.00584923 0.0218099 -0.00659349)
(0.0538602 0.0661617 -0.0179625)
(0.119736 0.122541 -0.0194826)
(0.152094 0.178488 -0.0138513)
(0.160543 0.2397 -0.014285)
(0.131639 0.293516 -0.0140854)
(0.0759835 0.326548 -0.00421538)
(0.0354292 0.385275 0.00350839)
(0.0085307 0.422939 0.00977639)
(-0.0256131 0.464159 0.00930741)
(-0.0652901 0.501361 0.0135891)
(-0.0970169 0.529575 0.0189455)
(-0.123198 0.552773 0.0265759)
(-0.148239 0.566795 0.0329018)
(-0.171629 0.572321 0.0352457)
(-0.197515 0.569242 0.0357852)
(-0.21947 0.563814 0.0345273)
(-0.24623 0.547136 0.0298616)
(-0.266913 0.533236 0.0238608)
(-0.281548 0.498017 0.0099927)
(-0.333129 0.48816 -0.000519555)
(-0.313295 0.457811 0.0112888)
(-0.241316 0.359615 0.020572)
(-0.243124 0.341472 0.0268783)
(-0.277022 0.316597 0.0345296)
(-0.312627 0.301522 0.0385654)
(-0.347232 0.283821 0.0437046)
(-0.372068 0.262036 0.0392351)
(-0.392377 0.23869 0.0234981)
(-0.409263 0.205617 0.00744556)
(-0.411037 0.180668 -0.00234458)
(-0.397719 0.157552 -0.00836509)
(-0.382094 0.144245 -0.0134727)
(-0.353486 0.144627 -0.0223905)
(-0.342516 0.157624 -0.0259296)
(-0.307872 0.193424 -0.0300893)
(-0.198186 0.177473 -0.0267601)
(-0.0902622 0.167426 -0.0250068)
(-0.0205017 0.132547 -0.0139538)
(0.00412124 0.068213 -0.00168375)
(0.00773048 0.037733 -0.00919671)
(0.062949 0.10407 -0.0255538)
(0.138456 0.164611 -0.024498)
(0.177547 0.218595 -0.0150717)
(0.181073 0.273465 -0.0157596)
(0.150476 0.307111 -0.015021)
(0.107273 0.352855 -0.00542397)
(0.0747481 0.400176 0.00625429)
(0.0445862 0.439094 0.0133506)
(0.0197161 0.465721 0.0241796)
(-0.00630327 0.489568 0.0215456)
(-0.0365768 0.503043 0.0318038)
(-0.059951 0.511298 0.0371556)
(-0.0832056 0.503427 0.0427626)
(-0.106218 0.489079 0.0430844)
(-0.133367 0.466284 0.0399146)
(-0.16089 0.443881 0.0345246)
(-0.192057 0.417956 0.0268327)
(-0.223912 0.401167 0.0180351)
(-0.253531 0.381836 0.00424888)
(-0.305673 0.365634 -0.00892765)
(-0.337846 0.365268 -0.00685874)
(-0.273253 0.296652 0.00967687)
(-0.24104 0.28723 0.0119784)
(-0.278075 0.269461 0.0230244)
(-0.314284 0.261432 0.0297982)
(-0.354652 0.242749 0.0392465)
(-0.387103 0.226494 0.0325775)
(-0.416065 0.196876 0.0241985)
(-0.430864 0.170245 0.00831598)
(-0.436114 0.142213 0.00937395)
(-0.430191 0.119959 0.0162232)
(-0.410183 0.100658 0.0125566)
(-0.383802 0.102096 0.00834259)
(-0.363201 0.115304 -0.0148052)
(-0.331036 0.163485 -0.0257064)
(-0.228606 0.1746 -0.0258349)
(-0.108349 0.167562 -0.0217591)
(-0.0264047 0.140298 -0.0131421)
(0.0050531 0.0726312 -0.000531283)
(0.0088151 0.061301 -0.0118197)
(0.0719661 0.148011 -0.0318379)
(0.156489 0.212036 -0.0310897)
(0.201985 0.261617 -0.0191161)
(0.200926 0.300839 -0.0118415)
(0.175093 0.333845 -0.0152894)
(0.147251 0.374294 -0.00463267)
(0.116397 0.412177 0.00285717)
(0.0913859 0.441371 0.0109379)
(0.0635056 0.463125 0.0269003)
(0.0353845 0.46968 0.0356789)
(0.0171607 0.470408 0.0458791)
(-0.00541257 0.45884 0.0471714)
(-0.0340323 0.436438 0.0492048)
(-0.0613996 0.409086 0.0478752)
(-0.0930463 0.376997 0.0416407)
(-0.125818 0.347972 0.0331762)
(-0.161848 0.320839 0.0239439)
(-0.19686 0.304109 0.0151362)
(-0.235039 0.291351 0.002292)
(-0.285079 0.280585 -0.00809096)
(-0.332753 0.284472 -0.011511)
(-0.278991 0.264063 0.00256726)
(-0.235066 0.251189 0.00358395)
(-0.266731 0.238572 0.0160428)
(-0.305711 0.226665 0.0242975)
(-0.351495 0.211896 0.0333882)
(-0.388241 0.189489 0.0308279)
(-0.421056 0.163953 0.0195995)
(-0.444005 0.134041 0.0289588)
(-0.457748 0.0992822 0.0306313)
(-0.458469 0.0708928 0.0166974)
(-0.443604 0.0552043 0.0119821)
(-0.409198 0.0523272 0.00313744)
(-0.370767 0.0666269 -0.00183437)
(-0.339409 0.115034 -0.0241821)
(-0.253012 0.154287 -0.0290053)
(-0.125532 0.164612 -0.0240007)
(-0.0295909 0.144938 -0.0152203)
(0.00441841 0.0780692 -0.00220085)
(0.00996593 0.0799577 -0.0125315)
(0.0779636 0.187711 -0.0358296)
(0.170453 0.25467 -0.0344122)
(0.215738 0.293536 -0.0182803)
(0.219828 0.321665 -0.0105384)
(0.204323 0.354187 -0.0080486)
(0.181928 0.386233 -0.00689632)
(0.156049 0.410992 0.00589086)
(0.129553 0.431796 0.011428)
(0.105416 0.440907 0.0229081)
(0.0826924 0.44499 0.0346793)
(0.0543143 0.434676 0.0503909)
(0.028065 0.410727 0.0547598)
(0.00410585 0.376346 0.0549329)
(-0.0267423 0.343696 0.0483172)
(-0.0624161 0.311258 0.0395946)
(-0.0994936 0.285277 0.0285031)
(-0.136824 0.26283 0.0189779)
(-0.174741 0.253561 0.0102735)
(-0.218039 0.242878 -0.000191288)
(-0.265268 0.238432 -0.00764693)
(-0.310393 0.239165 -0.0117575)
(-0.264018 0.240144 -0.00023925)
(-0.217749 0.225061 -0.00118604)
(-0.247167 0.209622 0.0110926)
(-0.283584 0.194097 0.0200521)
(-0.332116 0.177658 0.0280478)
(-0.372458 0.154716 0.0220481)
(-0.409587 0.127413 0.0375116)
(-0.441949 0.0922966 0.0444004)
(-0.463182 0.0578732 0.0376247)
(-0.464862 0.0317658 0.0482367)
(-0.457057 0.00959143 0.0382597)
(-0.437279 0.0058371 0.0349026)
(-0.398225 0.0148157 0.0245817)
(-0.354493 0.0610081 0.00294047)
(-0.266146 0.1166 -0.0258843)
(-0.139693 0.15202 -0.0256105)
(-0.0357877 0.143337 -0.0147826)
(0.00551814 0.0809313 -0.00215481)
(0.0106019 0.101847 -0.0115654)
(0.0831198 0.229227 -0.0381206)
(0.176713 0.297067 -0.0373145)
(0.227351 0.326428 -0.0190828)
(0.242161 0.348912 -0.00621496)
(0.234719 0.372746 -0.000616618)
(0.214459 0.39554 0.00358692)
(0.190339 0.410465 0.00449401)
(0.169551 0.420495 0.0141858)
(0.14647 0.422977 0.025012)
(0.119962 0.414209 0.034289)
(0.0932399 0.395788 0.0413308)
(0.0603768 0.368242 0.0540995)
(0.027878 0.332998 0.0545724)
(-0.000687 0.292603 0.0482424)
(-0.0367238 0.265582 0.0351442)
(-0.0766931 0.242318 0.0228376)
(-0.113177 0.225982 0.0142128)
(-0.152054 0.220619 0.00555269)
(-0.196466 0.211945 -0.000655975)
(-0.238343 0.212367 -0.00676067)
(-0.275288 0.209239 -0.00952066)
(-0.232587 0.227047 -0.00158648)
(-0.194023 0.20492 -0.00376083)
(-0.217594 0.18314 0.0073409)
(-0.252817 0.161971 0.0155274)
(-0.299968 0.139039 0.0202198)
(-0.343056 0.11672 0.0324226)
(-0.387947 0.0842669 0.0447643)
(-0.426268 0.0511321 0.0457743)
(-0.449048 0.019816 0.0661928)
(-0.47229 -0.0176873 0.0473053)
(-0.478355 -0.0569159 0.0340245)
(-0.461554 -0.0775029 0.0117204)
(-0.419936 -0.0654073 0.00391767)
(-0.373147 -0.0186204 0.00726822)
(-0.286986 0.0657185 -0.00301074)
(-0.15476 0.122954 -0.0314843)
(-0.0407918 0.137366 -0.0146403)
(0.00544229 0.084323 -0.00368508)
(0.0102599 0.107902 -0.0107206)
(0.0818162 0.251872 -0.0404441)
(0.177144 0.322724 -0.0411539)
(0.23345 0.349402 -0.0221165)
(0.259054 0.363655 -0.00387916)
(0.259186 0.375962 0.00570884)
(0.241296 0.388157 0.0119045)
(0.219051 0.397093 0.0151954)
(0.199081 0.402733 0.0183293)
(0.176685 0.397649 0.0224628)
(0.153107 0.383402 0.0280255)
(0.121455 0.359974 0.0391774)
(0.0876445 0.328076 0.0406911)
(0.0500839 0.295956 0.0486305)
(0.0186585 0.261311 0.0459199)
(-0.0122474 0.23087 0.0291608)
(-0.0538342 0.213506 0.0176288)
(-0.0867424 0.199747 0.0102501)
(-0.125514 0.194985 0.00264736)
(-0.165689 0.189508 -0.000432123)
(-0.203649 0.187939 -0.00516804)
(-0.222153 0.189645 -0.00457843)
(-0.188048 0.218221 -0.000741449)
(-0.169637 0.187416 -0.00189092)
(-0.189427 0.157191 0.00382308)
(-0.219331 0.126963 0.01133)
(-0.261139 0.103922 0.0155337)
(-0.304035 0.0749091 0.0334979)
(-0.350367 0.0459887 0.0405422)
(-0.387169 0.0167497 0.0626245)
(-0.434181 -0.0242684 0.046143)
(-0.475922 -0.0772441 0.0381277)
(-0.49258 -0.121839 0.0234202)
(-0.479213 -0.154194 0.0123607)
(-0.437895 -0.156403 -0.00830789)
(-0.377151 -0.116484 -0.00730874)
(-0.293364 -0.0156068 -0.00122184)
(-0.172415 0.0801524 -0.0174216)
(-0.0453693 0.121952 -0.0204868)
(0.00679321 0.0836752 -0.00235517)
(0.00914264 0.118528 -0.00843312)
(0.0810008 0.276694 -0.0395684)
(0.177434 0.352314 -0.0423581)
(0.240105 0.376351 -0.0228841)
(0.272854 0.382949 -0.00246646)
(0.278578 0.38248 0.0115139)
(0.267133 0.385231 0.0212355)
(0.250319 0.388099 0.0239269)
(0.232019 0.387363 0.0266032)
(0.208534 0.377385 0.0287592)
(0.182155 0.359716 0.0303844)
(0.150957 0.331103 0.0289391)
(0.11427 0.300837 0.0295709)
(0.0759097 0.264651 0.0312497)
(0.0374822 0.238739 0.035261)
(0.00579069 0.206337 0.0239275)
(-0.0278104 0.189237 0.012087)
(-0.0606133 0.179275 0.00727731)
(-0.0937155 0.17199 0.00078897)
(-0.131688 0.166185 -0.000501578)
(-0.158856 0.164068 -0.00197192)
(-0.157875 0.184448 0.00251101)
(-0.140844 0.193739 0.000359087)
(-0.151504 0.162936 -7.29617e-05)
(-0.166134 0.130462 0.00312157)
(-0.185399 0.0953369 0.00724801)
(-0.221306 0.0683957 0.019988)
(-0.260996 0.0380649 0.0288149)
(-0.299326 0.0122327 0.0481394)
(-0.351587 -0.0255915 0.0413085)
(-0.409134 -0.0782279 0.0387707)
(-0.457123 -0.129368 0.0286702)
(-0.487041 -0.180819 0.0177614)
(-0.48966 -0.221593 0.00207662)
(-0.455096 -0.240522 -0.0135775)
(-0.388438 -0.210249 -0.0214846)
(-0.298426 -0.120934 -0.0188748)
(-0.182069 0.0229316 0.00118456)
(-0.0544847 0.101232 -0.0270362)
(0.00569337 0.0865093 -0.00368986)
(0.00680248 0.0986135 -0.00891152)
(0.0747559 0.270281 -0.0398698)
(0.171493 0.351913 -0.0417762)
(0.238807 0.376638 -0.0224456)
(0.278737 0.378074 0.000982373)
(0.29291 0.373459 0.0151337)
(0.288941 0.371763 0.0214061)
(0.273405 0.366773 0.0251289)
(0.254476 0.35878 0.0274984)
(0.232273 0.346468 0.0283633)
(0.205962 0.326471 0.0279358)
(0.172757 0.301938 0.0248814)
(0.13436 0.27039 0.0203644)
(0.0960351 0.240333 0.0137475)
(0.0582083 0.21347 0.0186462)
(0.0246095 0.194362 0.0133201)
(-0.00254407 0.174222 0.0078874)
(-0.0295273 0.164147 0.00286976)
(-0.0628512 0.152022 -0.000973781)
(-0.0923402 0.150346 0.000108826)
(-0.09766 0.159775 0.00339078)
(-0.0997828 0.17126 0.00420465)
(-0.11074 0.160042 0.0032395)
(-0.128236 0.134017 0.00264987)
(-0.1455 0.109872 0.00305994)
(-0.160925 0.0711338 0.00591869)
(-0.1872 0.0420567 0.0145277)
(-0.217035 0.0123988 0.0316687)
(-0.259793 -0.0209249 0.0315189)
(-0.314956 -0.0680156 0.0343964)
(-0.370577 -0.116347 0.0305105)
(-0.423383 -0.173131 0.0259922)
(-0.46178 -0.231582 0.0156768)
(-0.477992 -0.286532 0.00209284)
(-0.456184 -0.31941 -0.0153717)
(-0.396836 -0.308814 -0.0280584)
(-0.292484 -0.229817 -0.0316636)
(-0.182217 -0.0768953 -0.0192163)
(-0.0613684 0.0559555 -0.019444)
(0.00733476 0.0755681 -0.00787039)
(0.00750955 0.106365 -0.0034163)
(0.0740409 0.284603 -0.0338947)
(0.169595 0.370067 -0.0388237)
(0.243216 0.392353 -0.0182707)
(0.292697 0.388075 0.00654532)
(0.316235 0.374599 0.0153398)
(0.314906 0.365124 0.0233441)
(0.300024 0.354229 0.0250525)
(0.283574 0.344804 0.0240876)
(0.260981 0.328732 0.0214884)
(0.235443 0.306879 0.0184426)
(0.20181 0.279007 0.013875)
(0.161572 0.249614 0.00973516)
(0.122281 0.219739 0.0061992)
(0.0853179 0.196666 0.00423715)
(0.0513636 0.179669 0.00403999)
(0.0210654 0.167939 0.000936149)
(-0.004512 0.158706 -0.000640308)
(-0.0263966 0.152523 -0.000305845)
(-0.0388394 0.153771 0.00158639)
(-0.0490562 0.157278 0.00408641)
(-0.0654903 0.144435 0.00619636)
(-0.0829669 0.129257 0.00603701)
(-0.10319 0.107819 0.0051784)
(-0.125663 0.0869068 0.00710753)
(-0.141809 0.0557252 0.00590055)
(-0.158087 0.0207466 0.0149427)
(-0.189189 -0.0119192 0.0161108)
(-0.230094 -0.0541629 0.0210839)
(-0.279334 -0.0961485 0.0223859)
(-0.333602 -0.144021 0.0239408)
(-0.386415 -0.200157 0.0216863)
(-0.429313 -0.26204 0.0157425)
(-0.454752 -0.3275 0.00368659)
(-0.445337 -0.376867 -0.0128472)
(-0.396155 -0.390143 -0.0299135)
(-0.302718 -0.326342 -0.0432817)
(-0.187409 -0.178569 -0.032352)
(-0.0594895 0.0125525 -0.00896559)
(0.00657291 0.0738115 -0.0125201)
(-0.00273997 0.0785172 -0.0151986)
(0.0528984 0.265077 -0.0404861)
(0.150101 0.360953 -0.0463462)
(0.231385 0.385666 -0.0262617)
(0.290529 0.383542 -0.00444214)
(0.325708 0.363466 0.00901852)
(0.33589 0.346735 0.0151209)
(0.324917 0.32828 0.0157551)
(0.306594 0.315345 0.0142738)
(0.281232 0.305043 0.0106881)
(0.252734 0.292729 0.00771049)
(0.218488 0.275142 0.00467108)
(0.178734 0.253996 0.00207729)
(0.141567 0.232599 0.000331714)
(0.108884 0.211864 0.000838086)
(0.079941 0.200912 0.0023532)
(0.0570387 0.194596 -0.00381127)
(0.0356828 0.187183 -0.00276173)
(0.0146588 0.178956 -0.00157207)
(-0.00298522 0.167677 0.00258012)
(-0.0208146 0.146268 0.00538568)
(-0.0406599 0.12636 0.00780991)
(-0.0597671 0.105965 0.0073475)
(-0.0812461 0.0860317 0.00752139)
(-0.104678 0.0663528 0.00546698)
(-0.127799 0.0452072 0.00413178)
(-0.145708 0.00991878 0.00293775)
(-0.169996 -0.0261783 0.00564498)
(-0.204513 -0.0647598 0.00887778)
(-0.244883 -0.110833 0.0127966)
(-0.291434 -0.163549 0.0148492)
(-0.340581 -0.227744 0.0145991)
(-0.385782 -0.298306 0.0103763)
(-0.418193 -0.37694 0.000981077)
(-0.421211 -0.442665 -0.0138851)
(-0.381955 -0.473516 -0.0309928)
(-0.292426 -0.430495 -0.0554189)
(-0.180437 -0.300939 -0.0503326)
(-0.0546347 -0.0723731 -0.0166306)
(0.00634581 0.0515007 -0.00389262)
(-0.00328827 0.150197 -0.0053286)
(0.049146 0.353167 -0.0200296)
(0.140076 0.452232 -0.0310242)
(0.224563 0.473765 -0.0115062)
(0.292248 0.462007 -0.00431853)
(0.333492 0.4298 0.0123511)
(0.349169 0.393903 0.0158351)
(0.344368 0.380305 0.0183668)
(0.340475 0.386935 0.0147006)
(0.324211 0.389646 0.0102208)
(0.297247 0.383039 0.00440123)
(0.259449 0.365167 0.000253355)
(0.21687 0.337616 -0.00291336)
(0.174521 0.308369 -0.0036516)
(0.141947 0.278658 -0.00293099)
(0.117503 0.253024 0.000889237)
(0.0883526 0.232126 -0.00240616)
(0.0602672 0.212209 -0.00752004)
(0.0354398 0.189373 -0.00431661)
(0.0102843 0.165195 -0.00232262)
(-0.00909791 0.13956 0.00495505)
(-0.0253778 0.112451 0.00677985)
(-0.0432896 0.0907778 0.00780662)
(-0.0620717 0.0689631 0.00906676)
(-0.0830494 0.0485752 0.0035434)
(-0.109591 0.0281288 0.00256312)
(-0.132277 0.00455146 0.00164919)
(-0.1542 -0.0302938 -0.00393544)
(-0.188202 -0.0693757 -0.00483133)
(-0.229472 -0.113037 -0.00256307)
(-0.274191 -0.156075 0.00322675)
(-0.317379 -0.213596 0.00768782)
(-0.359008 -0.282411 0.00912155)
(-0.391858 -0.366753 0.00381741)
(-0.396094 -0.448377 -0.00974991)
(-0.367344 -0.517061 -0.0337206)
(-0.304023 -0.516512 -0.0647413)
(-0.190564 -0.389809 -0.0595233)
(-0.0496174 -0.172859 -0.03596)
(0.00893638 0.0258705 -0.00459481)
(-0.0180485 0.233867 -0.0237754)
(0.0192067 0.474222 -0.0428908)
(0.109285 0.583905 -0.0512507)
(0.194823 0.622947 -0.0363812)
(0.266839 0.613571 -0.0253967)
(0.315729 0.58324 -0.00841169)
(0.359769 0.538485 0.00122772)
(0.395736 0.513321 0.00161775)
(0.396291 0.503141 -0.00481571)
(0.361541 0.483819 -0.00907869)
(0.317068 0.456623 -0.0110566)
(0.265469 0.421556 -0.0118643)
(0.215796 0.380411 -0.0114308)
(0.174878 0.338464 -0.0100103)
(0.141669 0.299538 -0.00782426)
(0.116935 0.261057 -0.00355474)
(0.0975604 0.227642 0.000786354)
(0.0731565 0.198813 -0.000733849)
(0.0464811 0.176869 -0.00366092)
(0.0250844 0.149519 -0.0011677)
(0.0026391 0.127457 0.00215733)
(-0.0148098 0.099765 0.00612534)
(-0.0293984 0.0765156 0.00744928)
(-0.0492581 0.0533824 0.00774743)
(-0.06903 0.0301118 0.00287583)
(-0.0908292 0.008026 0.00665487)
(-0.115874 -0.00822005 0.00594235)
(-0.144229 -0.0326841 0.00388353)
(-0.170929 -0.0628782 0.000885003)
(-0.192398 -0.10656 -0.00339883)
(-0.224125 -0.158958 -0.00985153)
(-0.264468 -0.233364 -0.0146741)
(-0.305585 -0.319223 -0.0181644)
(-0.342986 -0.426593 -0.0229734)
(-0.371781 -0.526893 -0.0314926)
(-0.370811 -0.627447 -0.0481648)
(-0.298422 -0.654686 -0.0710615)
(-0.218692 -0.547534 -0.08552)
(-0.0846902 -0.262748 -0.0443452)
(0.0149085 0.00988036 -0.00402238)
(0.000461125 0.205121 0.00111205)
(0.0388194 0.448877 -0.0362733)
(0.11342 0.574423 -0.0488518)
(0.198813 0.631316 -0.0447921)
(0.270036 0.636462 -0.0366797)
(0.320463 0.617579 -0.0254157)
(0.360485 0.581506 -0.0185051)
(0.391753 0.538829 -0.00878062)
(0.394161 0.497069 -0.0103596)
(0.361974 0.460655 -0.00936781)
(0.32087 0.425327 -0.00886692)
(0.27157 0.389786 -0.00692232)
(0.22344 0.351051 -0.00521281)
(0.182822 0.315228 -0.00287538)
(0.151674 0.279332 -0.00231709)
(0.129795 0.246631 0.000503982)
(0.107248 0.212532 0.00207116)
(0.0885711 0.181458 0.00483018)
(0.0631024 0.159971 0.00513225)
(0.0352507 0.13741 -0.000138248)
(0.0134315 0.114348 0.0027691)
(-0.0057222 0.089728 0.00525671)
(-0.0199919 0.064873 0.00768312)
(-0.0385307 0.0405066 0.00693705)
(-0.0565233 0.0200992 0.00594127)
(-0.0724216 -0.00137118 0.00923954)
(-0.091154 -0.0177931 0.00929706)
(-0.117329 -0.0349933 0.00605488)
(-0.15576 -0.0500595 0.00295261)
(-0.197118 -0.0808954 0.00349863)
(-0.242224 -0.12637 0.00630885)
(-0.28215 -0.195013 0.0081467)
(-0.316215 -0.282764 0.00717707)
(-0.331375 -0.415434 -0.00111864)
(-0.339087 -0.562105 -0.0120236)
(-0.333388 -0.703358 -0.0242268)
(-0.278751 -0.780017 -0.0470595)
(-0.16749 -0.751744 -0.0631417)
(-0.0471371 -0.463109 -0.0679585)
(0.00385015 -0.0977755 0.00665497)
(0.000447743 0.22013 -0.00148411)
(0.0372953 0.438965 -0.0320971)
(0.105384 0.562783 -0.0430507)
(0.18367 0.619283 -0.041068)
(0.253428 0.625468 -0.0265346)
(0.306782 0.603964 -0.0204777)
(0.352251 0.56616 -0.0112861)
(0.388179 0.525448 -0.00420159)
(0.395168 0.481422 -0.00420548)
(0.367492 0.446838 -0.00309906)
(0.325119 0.412393 -0.00234)
(0.273142 0.37483 -0.000889066)
(0.226031 0.337391 0.000515859)
(0.189197 0.301763 0.00148098)
(0.158613 0.268239 0.00216626)
(0.134198 0.233505 0.00385406)
(0.114042 0.198921 0.00566206)
(0.0993652 0.164117 0.00809042)
(0.0780634 0.137284 0.00862412)
(0.0521416 0.117009 0.0091334)
(0.0250265 0.0985019 0.00476692)
(0.0039309 0.0751141 0.00505095)
(-0.0112139 0.0509089 0.0101931)
(-0.0263743 0.0292104 0.00818447)
(-0.041748 0.00867159 0.00730894)
(-0.0565306 -0.010299 0.00934153)
(-0.0720208 -0.0303306 0.00987743)
(-0.090611 -0.0516561 0.00986673)
(-0.118111 -0.0680858 0.0078175)
(-0.150525 -0.0862706 0.00551602)
(-0.191182 -0.104302 0.00534829)
(-0.235408 -0.143362 0.00583947)
(-0.297628 -0.197994 0.00854087)
(-0.353129 -0.297715 0.0130565)
(-0.375642 -0.424281 0.0126438)
(-0.371813 -0.582394 0.00734846)
(-0.328533 -0.702221 -0.00686781)
(-0.228177 -0.731215 -0.0299094)
(-0.0613535 -0.520425 -0.0432396)
(0.024448 -0.0935927 -0.0210301)
(0.00668921 0.195728 -0.00211463)
(0.045644 0.394372 -0.0258761)
(0.107406 0.526235 -0.0357468)
(0.182173 0.588007 -0.0350073)
(0.249208 0.604913 -0.0228777)
(0.301332 0.587698 -0.0151057)
(0.348196 0.55194 -0.00595804)
(0.381792 0.508765 0.000311787)
(0.391253 0.458895 0.000596612)
(0.369467 0.418668 0.000967217)
(0.326217 0.379698 0.00178641)
(0.276272 0.342233 0.00392959)
(0.232895 0.308331 0.00505637)
(0.198143 0.275512 0.00590374)
(0.168408 0.243843 0.00577019)
(0.144819 0.21164 0.00663007)
(0.120376 0.180543 0.00783902)
(0.106534 0.14561 0.0113214)
(0.0920518 0.115538 0.0137829)
(0.0688999 0.0937858 0.0128268)
(0.0409858 0.0806541 0.0117776)
(0.0142632 0.0601237 0.0102054)
(0.00074653 0.0405029 0.0095375)
(-0.0138724 0.0202433 0.00918706)
(-0.0278512 -0.000222999 0.0094194)
(-0.0408854 -0.0189426 0.00916562)