/*--------------------------------*- C++ -*----------------------------------*\
| =========                 |                                                 |
| \\      /  F ield         | OpenFOAM: The Open Source CFD Toolbox           |
|  \\    /   O peration     | Version:  v1806                                 |
|   \\  /    A nd           | Web:      www.OpenFOAM.com                      |
|    \\/     M anipulation  |                                                 |
\*---------------------------------------------------------------------------*/
FoamFile
{
    version     2.0;
    format      ascii;
    class       surfaceScalarField;
    location    "0.095";
    object      phi;
}
// * * * * * * * * * * * * * * * * * * * * * * * * * * * * * * * * * * * * * //

dimensions      [0 3 -1 0 0 0 0];
oriented        oriented;


internalField   nonuniform List<scalar> 
187200
(
8.10963e-06
2.38101e-06
-1.04966e-05
5.57687e-05
-2.40114e-05
-2.36479e-05
7.89208e-05
-1.10268e-05
-1.21253e-05
9.8388e-05
-9.58518e-06
-9.88191e-06
0.000114186
-6.0679e-06
-9.73007e-06
0.000131556
-5.36255e-06
-1.20065e-05
0.000147038
-1.05116e-06
-1.44308e-05
0.000164102
5.38744e-07
-1.76027e-05
0.000178236
4.97971e-06
-1.91134e-05
0.000189758
8.09277e-06
-1.96149e-05
0.000202682
7.25798e-06
-2.01826e-05
0.000212212
1.20929e-05
-2.16229e-05
0.00020648
2.10788e-05
-1.53478e-05
0.000179894
3.61213e-05
-9.53521e-06
0.000136525
4.4959e-05
-1.58955e-06
9.9317e-05
2.95666e-05
7.64146e-06
4.80026e-05
3.20761e-05
1.92383e-05
-2.61238e-06
4.50156e-05
5.59946e-06
-9.90084e-05
9.96632e-05
-3.26714e-06
-0.000238312
0.00014096
-1.65629e-06
-0.00050179
0.000231818
3.16595e-05
-0.00069216
0.000238632
-4.82606e-05
-0.00083204
0.000285732
-0.000145852
-0.000879834
0.000309508
-0.000261714
-0.00086664
0.000339979
-0.000353173
-0.000798364
0.000368546
-0.000436822
-0.00068831
0.000394023
-0.000504077
-0.000547676
0.000409602
-0.000550236
-0.000381648
0.000404199
-0.000570228
-0.000214337
0.00038723
-0.000554541
-8.02594e-05
0.000346931
-0.00048101
8.70694e-06
0.000299583
-0.000388549
4.46466e-05
0.000238986
-0.000274925
4.10125e-05
0.000175168
-0.000171533
1.96465e-05
0.000121401
-0.000100035
7.39202e-08
8.16477e-05
-6.20753e-05
-9.60271e-06
5.57946e-05
-4.6118e-05
-1.299e-05
4.31688e-05
-3.97818e-05
-1.1039e-05
3.35913e-05
-3.55428e-05
2.39404e-05
-3.49796e-05
3.4903e-06
1.82181e-05
-1.93274e-05
4.60833e-05
-3.29166e-05
-3.36879e-05
8.8846e-05
-2.54299e-05
-2.83595e-05
0.000120415
-1.47861e-05
-2.63681e-05
0.000143213
-3.92979e-06
-2.49356e-05
0.000160493
6.39808e-06
-2.90398e-05
0.000169017
2.55986e-05
-3.51735e-05
0.00017315
3.75697e-05
-4.11644e-05
0.000166958
6.27171e-05
-5.15455e-05
0.000151949
8.11342e-05
-5.8032e-05
0.000111403
0.000123529
-7.57255e-05
4.78124e-05
0.000166251
-9.05685e-05
-3.64039e-05
0.00020233
-9.70358e-05
-0.000137899
0.000245487
-0.000107871
-0.000259765
0.000300356
-0.000133531
-0.000438023
0.000373621
-0.000165796
-0.000610258
0.000449972
-0.000245661
-0.000792561
0.000531693
-0.000304375
-0.000956319
0.000636551
-0.000373129
-0.00111814
0.000741012
-0.000438236
-0.0012803
0.000869461
-0.000475474
-0.00138364
0.000946076
-0.000604103
-0.00145114
0.00105198
-0.000698752
-0.00144731
0.00109304
-0.000787365
-0.00136998
0.00113713
-0.000874477
-0.00122946
0.00116045
-0.000932423
-0.00103824
0.00116747
-0.00096467
-0.000811027
0.00114475
-0.000962367
-0.000572652
0.00108721
-0.000921385
-0.000344205
0.00100588
-0.000847098
-0.000149154
0.000881116
-0.000729235
1.02224e-05
0.000735866
-0.00059566
0.000101033
0.000581135
-0.000432959
0.000129127
0.00045197
-0.000304898
0.000119101
0.000333468
-0.000202042
9.20817e-05
0.000247464
-0.000138797
6.12213e-05
0.000186379
-9.97242e-05
3.69496e-05
0.000146489
-7.90486e-05
1.35693e-05
0.000116886
-5.99151e-05
8.1435e-05
-4.39263e-05
1.94579e-05
1.17119e-05
-1.29518e-05
5.92274e-05
-3.67941e-05
-3.5892e-05
0.000100728
-2.5966e-05
-4.09643e-05
0.000131341
-3.3479e-06
-4.20515e-05
0.000147578
2.77878e-05
-4.79539e-05
0.000153585
5.75473e-05
-5.71566e-05
0.000145327
9.9048e-05
-6.51914e-05
0.000129043
0.000136698
-8.28437e-05
0.000102593
0.000196528
-0.000107361
4.71171e-05
0.000264735
-0.000128125
-3.60208e-05
0.000347277
-0.00014061
-0.00014005
0.000432181
-0.0001619
-0.000294621
0.000536184
-0.000179283
-0.000469847
0.000644296
-0.000223583
-0.000665319
0.000754275
-0.000258447
-0.000846749
0.000864805
-0.000309755
-0.00100395
0.000974939
-0.000367766
-0.0011432
0.00109636
-0.00042542
-0.001275
0.00124495
-0.000476599
-0.00140994
0.00139602
-0.000520065
-0.00154331
0.00153459
-0.000531756
-0.001617
0.00162174
-0.000601979
-0.00164627
0.00172657
-0.000645316
-0.00161922
0.00174233
-0.000676332
-0.00153058
0.00176464
-0.000716151
-0.00139348
0.00175129
-0.000727945
-0.0012189
0.00171138
-0.00071849
-0.00101889
0.00163014
-0.000685394
-0.000806046
0.00151156
-0.000637198
-0.000586266
0.00136106
-0.000574958
-0.000394222
0.00118242
-0.000493347
-0.000233071
0.00100035
-0.000425636
-0.000112073
0.000798616
-0.00033848
-2.82491e-05
0.000636803
-0.000268657
1.73117e-05
0.0004885
-0.000200594
3.42343e-05
0.000383536
-0.000152995
3.74114e-05
0.000305495
-0.000122295
3.01451e-05
0.000254901
-0.000101145
1.3638e-05
0.000206449
-7.30575e-05
0.000139331
-4.42587e-05
2.19794e-05
7.74702e-06
-1.80148e-05
6.06397e-05
-2.76942e-05
-4.77603e-05
0.000100877
-6.69043e-06
-5.95131e-05
0.000123274
4.08001e-05
-6.6545e-05
0.000128298
9.47764e-05
-7.20116e-05
0.000117929
0.000152992
-8.50758e-05
9.87759e-05
0.000227502
-0.0001093
6.2981e-05
0.000307638
-0.000135145
7.72057e-06
0.000418892
-0.000167103
-7.38968e-05
0.000532926
-0.000186573
-0.000190463
0.000666498
-0.000202655
-0.000334765
0.000798401
-0.000221919
-0.000493779
0.000931159
-0.00023596
-0.000646309
0.00104998
-0.000253158
-0.00079521
0.00117873
-0.00027555
-0.000934007
0.00130747
-0.000303872
-0.00106068
0.00143569
-0.000334079
-0.00117142
0.00155853
-0.00035143
-0.0012777
0.00170807
-0.000356832
-0.00138716
0.00184272
-0.00033724
-0.00151351
0.00193955
-0.000278604
-0.00158192
0.00198177
-0.000291621
-0.00160927
0.00204162
-0.000287713
-0.00159036
0.00200073
-0.0002773
-0.00152136
0.00197906
-0.000283428
-0.00142049
0.00192177
-0.00027135
-0.00129536
0.0018398
-0.00025355
-0.00115331
0.0017221
-0.000234006
-0.000999496
0.00156931
-0.000211567
-0.000831962
0.00140084
-0.000207317
-0.000652404
0.00120899
-0.000206126
-0.000474383
0.00102737
-0.000205045
-0.000315543
0.000838845
-0.000199071
-0.000188028
0.000701736
-0.000192449
-9.81215e-05
0.000571767
-0.000173174
-3.68248e-05
0.000473676
-0.000151437
2.04667e-06
0.000403239
-0.000136616
1.68147e-05
0.000351403
-0.00011127
1.49286e-05
0.000288429
-8.00941e-05
0.000196255
-4.19952e-05
2.20903e-05
2.17706e-05
-3.61139e-05
6.18394e-05
8.43702e-06
-7.58801e-05
0.000105154
4.24017e-05
-9.24064e-05
0.000124018
0.000120521
-9.85847e-05
0.00012006
0.00020559
-0.000106855
9.23202e-05
0.00030217
-0.000121437
5.12086e-05
0.000421087
-0.000152474
7.80751e-06
0.000532918
-0.000181878
-3.85485e-05
0.000675318
-0.00021007
-0.000109678
0.000825107
-0.000221052
-0.000202194
0.00098263
-0.000223615
-0.000306273
0.0011233
-0.000220817
-0.000430414
0.00126821
-0.000212911
-0.000567162
0.00139959
-0.000212864
-0.000703588
0.00152269
-0.000207541
-0.000824518
0.00163304
-0.000204634
-0.000925742
0.00173024
-0.000193323
-0.00100017
0.00179693
-0.000163974
-0.00109026
0.0018924
-9.4237e-05
-0.00119119
0.00196412
-2.04785e-05
-0.00133665
0.00200175
8.32617e-05
-0.0014128
0.00195449
0.000103426
-0.00145782
0.00197073
0.00011592
-0.00147026
0.00189753
0.000115636
-0.00144633
0.00185868
9.64444e-05
-0.00140234
0.00179247
8.53184e-05
-0.00133947
0.00170612
7.08099e-05
-0.00126971
0.00159593
5.64074e-05
-0.00117355
0.0014584
1.47506e-05
-0.00105232
0.00131009
-3.04726e-05
-0.000903223
0.00114299
-8.31014e-05
-0.000734402
0.000990496
-0.000131943
-0.000563465
0.000831879
-0.000163972
-0.000396156
0.000715843
-0.000181417
-0.000256274
0.000618062
-0.000186178
-0.00014081
0.000528169
-0.000169958
-5.757e-05
0.000470257
-0.000150258
-6.72624e-06
0.000424564
-0.000124005
8.913e-06
0.000356838
-8.40496e-05
0.000242924
-3.77573e-05
1.52648e-05
7.01656e-05
-6.36596e-05
6.41621e-05
7.69949e-05
-0.000117455
0.000108237
0.000137556
-0.00013923
0.000127524
0.000240562
-0.000139327
0.000117468
0.000354454
-0.000138808
8.72135e-05
0.000482651
-0.000150227
5.71417e-05
0.000636076
-0.000184916
2.79225e-05
0.000780316
-0.000218179
-1.70451e-05
0.000951658
-0.000231372
-7.8772e-05
0.00110747
-0.000220635
-0.000150255
0.00125627
-0.000202158
-0.000231817
0.00138442
-0.00017956
-0.000317122
0.00150638
-0.000152871
-0.000397801
0.00160371
-0.000123435
-0.000478625
0.00169257
-8.90553e-05
-0.000545245
0.00175229
-5.26325e-05
-0.000627545
0.00179807
1.44655e-05
-0.000727361
0.0018145
8.22432e-05
-0.00082958
0.00183109
0.00016353
-0.000930208
0.00180927
0.000255483
-0.00108093
0.00183036
0.000322111
-0.0011882
0.00172835
0.000333412
-0.00126855
0.00171979
0.000331284
-0.00132866
0.00163415
0.000323487
-0.00135688
0.00158854
0.000298373
-0.00137055
0.00152861
0.000277521
-0.00136903
0.00146023
0.000244375
-0.00135612
0.00137806
0.000204975
-0.00131683
0.00127586
0.000143246
-0.00123057
0.00116962
5.42096e-05
-0.0011136
0.00104754
-2.15172e-05
-0.000947726
0.000932661
-0.000108043
-0.000768415
0.000816956
-0.000164389
-0.000569987
0.000721158
-0.000203744
-0.000388473
0.000651214
-0.000214666
-0.00023504
0.000571049
-0.000196314
-0.000112896
0.000523914
-0.0001758
-3.26664e-05
0.000483001
-0.000138667
5.24205e-06
0.000410301
-9.13726e-05
0.000284756
-3.65903e-05
1.77655e-05
0.00014827
-9.58701e-05
8.23104e-05
0.000182815
-0.000170366
0.000133162
0.000272846
-0.000186141
0.00015553
0.000395677
-0.000177482
0.000147718
0.000535495
-0.00017323
0.000103819
0.00070269
-0.000176139
9.4215e-05
0.000859665
-0.000213985
7.44114e-05
0.00102398
-0.00022386
5.6125e-05
0.00118292
-0.000212973
1.88385e-05
0.00132411
-0.00017935
-3.00912e-05
0.00144978
-0.000144582
-9.36581e-05
0.00155429
-0.000106309
-0.000162039
0.00164111
-6.63465e-05
-0.000231034
0.00169557
-2.28676e-05
-0.000301259
0.00172847
3.43254e-05
-0.000361347
0.00172733
8.50494e-05
-0.000426958
0.00171713
0.000146554
-0.000492438
0.00166583
0.000214145
-0.000593383
0.00163558
0.000296461
-0.000699745
0.00154594
0.000369687
-0.000848484
0.00154655
0.000432549
-0.000993697
0.00142479
0.000448775
-0.00108756
0.00138566
0.000427998
-0.00119609
0.00133515
0.000407524
-0.00127423
0.00130167
0.000365008
-0.00134329
0.00126843
0.000329238
-0.00139562
0.00123144
0.000281112
-0.00142998
0.0011844
0.000228013
-0.00143854
0.00112579
0.00015862
-0.00138692
0.00106053
5.74715e-05
-0.00129811
0.000977939
-1.92159e-05
-0.00115338
0.000889232
-0.000101297
-0.000964813
0.00080184
-0.000173454
-0.000739496
0.000709826
-0.000213985
-0.000504912
0.000667173
-0.000250543
-0.000321354
0.000616542
-0.00022905
-0.000160587
0.000570967
-0.00020782
-5.48032e-05
0.000537662
-0.000160445
5.29545e-07
0.000460701
-0.000105733
0.000324841
-3.95553e-05
2.78147e-05
0.000249584
-0.000129128
0.000109871
0.000319019
-0.00021826
0.000174957
0.000436155
-0.000228395
0.000201227
0.000572227
-0.000202821
0.000196113
0.00072364
-0.00018303
0.000179453
0.000901843
-0.000182493
0.000188796
0.00105441
-0.000204083
0.000188428
0.00122154
-0.000197187
0.000178094
0.0013597
-0.000166445
0.000140847
0.00148166
-0.00012031
9.56754e-05
0.00157716
-8.22015e-05
4.08855e-05
0.00164417
-3.5084e-05
-1.84014e-05
0.00168219
1.82061e-05
-8.16949e-05
0.00168233
7.65351e-05
-0.000142449
0.00166011
0.000129109
-0.000205564
0.00160433
0.000186116
-0.00027034
0.00154073
0.000241175
-0.000339512
0.00145034
0.000284667
-0.000426286
0.00138538
0.000336966
-0.000536135
0.00127301
0.000382787
-0.000661908
0.00124633
0.000425986
-0.000839
0.0011689
0.000432977
-0.000957615
0.00109618
0.000408095
-0.00110397
0.0010985
0.000383006
-0.00122312
0.00107681
0.00034402
-0.0013278
0.00106824
0.000304859
-0.00141634
0.00105589
0.000264093
-0.00148654
0.00103383
0.000220784
-0.00152329
0.00100883
0.000153717
-0.0015041
0.000963694
7.76488e-05
-0.00143986
0.000903192
1.0507e-05
-0.00131557
0.000830991
-6.60564e-05
-0.00112452
0.000763754
-0.000152957
-0.000902304
0.000697073
-0.000209466
-0.000644072
0.000656718
-0.000247777
-0.000414361
0.000647427
-0.000260596
-0.000216964
0.000604343
-0.000230773
-8.04522e-05
0.000584778
-0.000183628
-6.66502e-06
0.000505228
-0.000118313
0.000362418
-4.42428e-05
4.57812e-05
0.000362531
-0.000158728
0.000152228
0.000473262
-0.000260691
0.000245808
0.000611709
-0.000269134
0.000290292
0.000753664
-0.000225921
0.000287838
0.00091788
-0.000191787
0.000286148
0.00108178
-0.000178248
0.000286864
0.00122598
-0.000172293
0.000290226
0.00137049
-0.000152314
0.000288737
0.00148032
-0.000119138
0.000262492
0.00157711
-6.92015e-05
0.000219336
0.00163518
-1.48655e-05
0.000168229
0.00165683
3.84445e-05
0.000104418
0.0016505
9.55037e-05
3.71975e-05
0.0016068
0.00014275
-2.92884e-05
0.00153836
0.000188244
-9.90558e-05
0.00144395
0.000230148
-0.000170984
0.00134901
0.000263648
-0.00024633
0.0012401
0.000285587
-0.000323465
0.00115676
0.000305762
-0.000441457
0.00105971
0.000331285
-0.000554915
0.00100781
0.000351979
-0.000732025
0.000985851
0.000360161
-0.000887578
0.000904996
0.000346734
-0.00104694
0.000935454
0.000322412
-0.00119088
0.00092159
0.000299151
-0.00131471
0.000928728
0.000263353
-0.00142823
0.000925207
0.000244204
-0.00152074
0.000923619
0.000202716
-0.00158788
0.000904455
0.000171514
-0.00160641
0.000867635
0.000114591
-0.00156068
0.000815225
4.22347e-05
-0.00145135
0.000757257
-3.56024e-05
-0.00126467
0.000697431
-0.000120357
-0.00102934
0.00064859
-0.000186838
-0.000753199
0.000616378
-0.000235805
-0.000494085
0.000643201
-0.000254888
-0.000269684
0.000628967
-0.000249025
-0.0001026
0.000619005
-0.000201311
-1.50801e-05
0.000550089
-0.00013238
0.000398501
-5.11621e-05
6.43904e-05
0.000472837
-0.000174697
0.000196539
0.000633128
-0.000292014
0.000316589
0.000787631
-0.000295972
0.00037555
0.000930575
-0.000235872
0.000392145
0.00108312
-0.000181834
0.000393779
0.00122689
-0.000146743
0.000384889
0.00136011
-0.000125241
0.000383186
0.00147367
-0.000101475
0.000374465
0.00155535
-6.63002e-05
0.000360654
0.00160539
-1.44671e-05
0.000329678
0.00163373
3.24247e-05
0.000265238
0.0016254
9.5869e-05
0.000194524
0.00157834
0.00014287
0.000121413
0.00149405
0.000185861
4.61716e-05
0.00139562
0.000217979
-3.21011e-05
0.00128111
0.000241107
-0.000110454
0.00117414
0.000253223
-0.000192116
0.00106777
0.000253994
-0.000276156
0.000987432
0.000253366
-0.000394682
0.000919133
0.000259107
-0.000521532
0.000864826
0.000269834
-0.000675817
0.000859246
0.000280889
-0.000852538
0.000794454
0.000287263
-0.0010018
0.000814311
0.000270408
-0.00115492
0.0008076
0.000267103
-0.00128248
0.000817828
0.000238459
-0.00140953
0.000817257
0.000235005
-0.00152366
0.000816396
0.000221352
-0.00161046
0.00079205
0.000199207
-0.00165486
0.000759256
0.000152775
-0.00163623
0.000718811
7.778e-05
-0.00154582
0.000673809
-6.95796e-06
-0.0013797
0.000627456
-9.6141e-05
-0.00114429
0.000589525
-0.000176345
-0.000867391
0.000554128
-0.000214654
-0.000571545
0.000588403
-0.000241047
-0.000321567
0.0006243
-0.000245313
-0.000128974
0.000635285
-0.000208874
-2.39059e-05
0.000584099
-0.000139077
0.000430484
-5.58891e-05
8.10031e-05
0.000572531
-0.000180697
0.000242951
0.000782469
-0.00031129
0.00039031
0.000950351
-0.000310079
0.000467908
0.00108946
-0.000236488
0.000501159
0.00122075
-0.000170885
0.000501845
0.00134024
-0.000114035
0.000493287
0.00144963
-8.09589e-05
0.000479381
0.00153379
-4.62169e-05
0.000454742
0.00159142
-1.14352e-05
0.000421588
0.00161593
2.26156e-05
0.000385651
0.00159886
7.08047e-05
0.000333825
0.00155029
0.000126932
0.000263643
0.00147951
0.000169014
0.000176541
0.00137606
0.000205087
9.06445e-05
0.00125721
0.000224302
3.23058e-06
0.00113705
0.000231478
-8.40198e-05
0.00103314
0.000228246
-0.000173133
0.000937984
0.000218895
-0.000267038
0.000870404
0.000210933
-0.000376977
0.000820924
0.000208148
-0.000501522
0.000777344
0.000212027
-0.000627087
0.00075884
0.000225971
-0.000803618
0.000726846
0.000244139
-0.000946456
0.000715004
0.000242145
-0.00109382
0.000707842
0.000247121
-0.001227
0.000708394
0.000242613
-0.00136153
0.000711506
0.000240278
-0.00149167
0.000697633
0.000248906
-0.00160204
0.000677031
0.000225391
-0.0016707
0.000649342
0.000178569
-0.001689
0.000610879
0.000126233
-0.0016291
0.00058219
3.17181e-05
-0.00148123
0.00054509
-6.54979e-05
-0.00123612
0.000518259
-0.000173845
-0.000944678
0.000488596
-0.000225913
-0.000635148
0.000517698
-0.000238826
-0.000368525
0.000583478
-0.0002258
-0.000151206
0.00063828
-0.000220315
-3.07817e-05
0.000608205
-0.00014453
0.000462665
-6.29622e-05
9.4051e-05
0.000654917
-0.000176437
0.000282865
0.000913633
-0.000319977
0.000455062
0.00109489
-0.00031674
0.000551225
0.00122277
-0.000229474
0.000596722
0.00132932
-0.000154067
0.000601922
0.00142099
-8.59522e-05
0.000592149
0.00150216
-4.27585e-05
0.00056747
0.00155942
-9.55882e-07
0.000529842
0.00159209
3.69603e-05
0.000479345
0.00158471
8.17093e-05
0.000423639
0.00154964
0.00010492
0.000357208
0.00147477
0.000141956
0.000289102
0.00136983
0.000177791
0.00020877
0.00125224
0.000204154
0.000119106
0.00113467
0.00021221
2.63126e-05
0.00102012
0.00020972
-6.4705e-05
0.000925326
0.000198836
-0.00015909
0.000844623
0.000187745
-0.000264542
0.000793517
0.000182339
-0.000365465
0.000746448
0.000175399
-0.000480267
0.000711657
0.000180488
-0.000588551
0.000673711
0.000193413
-0.000741317
0.000660807
0.000218805
-0.000871241
0.000621572
0.000223354
-0.0010072
0.000604761
0.00023904
-0.00113526
0.000597293
0.00023916
-0.00127904
0.000587855
0.000267436
-0.00141991
0.000576124
0.000262377
-0.00154462
0.00056051
0.000241223
-0.00164474
0.000540632
0.000208839
-0.00168444
0.0005271
0.000123479
-0.00165832
0.000505543
5.05282e-05
-0.00154926
0.000474239
-3.82105e-05
-0.00134089
0.000446214
-0.000136328
-0.0010434
0.000430094
-0.000238989
-0.000703824
0.000439699
-0.000261576
-0.000402341
0.000511365
-0.00022937
-0.000174498
0.000609793
-0.000199356
-3.83074e-05
0.00061968
-0.000147665
0.000490558
-6.61994e-05
0.000104807
0.000712593
-0.000162483
0.000317519
0.00101761
-0.000316686
0.000516173
0.0012095
-0.000313265
0.000632505
0.00132282
-0.000216373
0.000684338
0.00140906
-0.000131572
0.000694261
0.00147487
-6.3804e-05
0.000683041
0.00152548
-1.2098e-05
0.000651728
0.00155343
3.73039e-05
0.000603109
0.0015588
8.19064e-05
0.000538005
0.00153285
0.000116971
0.000464337
0.00147437
0.000148941
0.00038278
0.00138548
0.000170845
0.000301766
0.00127296
0.000177882
0.000216907
0.00114724
0.000189857
0.000131691
0.00102876
0.000191116
4.20033e-05
0.000925874
0.000183936
-4.86058e-05
0.000843634
0.000172301
-0.000143477
0.000773606
0.000165888
-0.000243744
0.000729636
0.000164147
-0.000342521
0.000681246
0.000163979
-0.000443914
0.000644028
0.000169022
-0.000541431
0.000592531
0.000178697
-0.000666881
0.000585465
0.000200792
-0.000775786
0.000525771
0.000204706
-0.000894615
0.000502059
0.000221531
-0.00102065
0.000482529
0.000240801
-0.00116364
0.000471195
0.00025965
-0.00130981
0.000460586
0.000261704
-0.00145338
0.000451445
0.000252636
-0.00157091
0.000450478
0.000207687
-0.00165373
0.000449101
0.000160817
-0.00166461
0.000423313
9.31127e-05
-0.00160177
0.000382778
2.86222e-05
-0.00143129
0.000343957
-6.82201e-05
-0.00115291
0.000330306
-0.000178595
-0.000798994
0.000349922
-0.000264138
-0.00045357
0.000431063
-0.000265123
-0.00019755
0.000546732
-0.000192958
-4.62514e-05
0.000616277
-0.000147896
0.000517218
-7.29106e-05
0.000108682
0.000750524
-0.000146613
0.000340224
0.00109476
-0.000308694
0.000563385
0.0012958
-0.000309452
0.000697564
0.00139627
-0.000207633
0.000755832
0.0014609
-0.000110106
0.000765779
0.00150297
-3.80472e-05
0.000751044
0.00152927
1.09475e-05
0.000709725
0.00152842
6.63326e-05
0.000652692
0.0015088
0.000107033
0.000582962
0.00145968
0.000142896
0.000498465
0.00138724
0.000171625
0.000404106
0.00128795
0.000191893
0.000307473
0.00117457
0.000195024
0.000222524
0.00105082
0.000181368
0.000137853
0.000940964
0.000172471
5.62353e-05
0.000847446
0.000160045
-2.74094e-05
0.000774133
0.000153146
-0.0001181
0.000712777
0.00015152
-0.000210045
0.000667552
0.000154029
-0.000304013
0.000616311
0.000158901
-0.000390041
0.000567202
0.000162854
-0.000484198
0.000519015
0.000167672
-0.000574795
0.000496509
0.000179553
-0.000666403
0.000431853
0.000185527
-0.000771861
0.000403003
0.000204513
-0.000888123
0.000371503
0.000227287
-0.00102201
0.000360046
0.000245041
-0.0011657
0.000351011
0.000253261
-0.00131245
0.000357054
0.000241141
-0.00146181
0.000367829
0.000232006
-0.00157132
0.00035698
0.000201634
-0.00163702
0.000318475
0.000170539
-0.00161972
0.000265023
0.00010045
-0.00149447
0.00021294
5.76633e-06
-0.00124524
0.000185421
-0.000104338
-0.000894519
0.000211956
-0.000212759
-0.000511179
0.000321968
-0.000274246
-0.00021958
0.000479008
-0.000223876
-5.10053e-05
0.000596122
-0.000148421
0.000544439
-7.8226e-05
0.000114451
0.000755145
-0.000119072
0.000364174
0.00113227
-0.000287232
0.000607243
0.00134575
-0.000293023
0.0007582
0.00144092
-0.000195611
0.000821773
0.00148631
-8.89877e-05
0.000829287
0.00150381
-8.35421e-06
0.00080715
0.00150268
4.87228e-05
0.000763821
0.00147975
9.19976e-05
0.000702094
0.00143853
0.000131996
0.000624274
0.00137479
0.000162712
0.000534525
0.00128983
0.000187162
0.000434524
0.00118506
0.000202885
0.000329684
0.00107324
0.000206171
0.000233647
0.000960747
0.000186112
0.000151911
0.000861904
0.000160796
7.39554e-05
0.000776424
0.000148977
-2.24364e-06
0.000711575
0.000138756
-8.86361e-05
0.000654785
0.000144384
-0.000170488
0.000601039
0.000148364
-0.000256689
0.000548814
0.000153698
-0.000334217
0.00049171
0.00015302
-0.000415587
0.000444101
0.000156283
-0.000479174
0.000407943
0.000152153
-0.000559322
0.000349934
0.000162067
-0.000648049
0.000317496
0.000174233
-0.000749668
0.000277197
0.000195926
-0.000869533
0.000263521
0.000216391
-0.0010016
0.000259229
0.000223848
-0.00115783
0.000278145
0.000235136
-0.00130535
0.000280895
0.000234459
-0.00144818
0.000260265
0.000239545
-0.00155624
0.000216742
0.000209792
-0.00159642
0.000151655
0.000153552
-0.00153044
7.74428e-05
6.95162e-05
-0.00132644
2.56978e-05
-4.42843e-05
-0.0010063
3.71901e-05
-0.000145373
-0.00059632
0.00015391
-0.000241917
-0.000249071
0.000388637
-0.000256877
-6.09504e-05
0.00055473
-0.000146729
0.00056385
-8.03646e-05
0.000114525
0.000738132
-9.75116e-05
0.00037382
0.00113829
-0.000265319
0.000631321
0.00136492
-0.000276673
0.000795838
0.0014575
-0.000181093
0.000866995
0.00148966
-7.4509e-05
0.000871913
0.00148184
1.70546e-05
0.000844719
0.00145856
7.1317e-05
0.000793003
0.00141312
0.000118347
0.000726506
0.00135627
0.00014876
0.000647904
0.00128069
0.000172696
0.000554973
0.00118649
0.000196269
0.000452626
0.00108285
0.000204555
0.000348816
0.000975315
0.00020173
0.000250932
0.000873909
0.000184722
0.000168643
0.000784402
0.000159791
9.3128e-05
0.000709494
0.000142444
2.65897e-05
0.00064211
0.000136003
-5.18902e-05
0.000595009
0.000138255
-0.000130074
0.000538588
0.000140634
-0.000201222
0.000477798
0.000142164
-0.000273969
0.000421827
0.000142628
-0.000342112
0.000379009
0.000133236
-0.000399385
0.000335076
0.00013014
-0.000461641
0.000281025
0.000131165
-0.000536499
0.000246436
0.000145919
-0.000625158
0.000202316
0.00016354
-0.000720186
0.000180039
0.000178511
-0.000845982
0.00018649
0.000198535
-0.000979834
0.000195562
0.000216434
-0.00113066
0.000184372
0.000247353
-0.00128842
0.000163534
0.000254489
-0.00142852
0.000115147
0.000241696
-0.00151659
4.35137e-05
0.000196212
-0.00150825
-5.18705e-05
0.000120969
-0.0013689
-0.000133312
1.96592e-05
-0.00107911
-0.000159771
-9.28273e-05
-0.000683655
-5.0158e-05
-0.000191384
-0.000283393
0.000223596
-0.000235221
-6.74958e-05
0.000502853
-0.000164019
0.000574477
-7.81229e-05
0.000127991
0.000647036
-3.68949e-05
0.000398528
0.00108645
-0.000218693
0.000668638
0.00133589
-0.000241076
0.000851524
0.00142765
-0.000153032
0.000925167
0.00145037
-3.43506e-05
0.000924124
0.00142775
5.51316e-05
0.000885546
0.00138423
0.000112903
0.000829046
0.00131983
0.00014979
0.000760374
0.0012519
0.000173041
0.000680672
0.00117076
0.000189639
0.000592282
0.00108085
0.000194031
0.000493304
0.000982012
0.000199819
0.000390764
0.000884864
0.000192991
0.00029266
0.000793963
0.000178049
0.000206166
0.000713622
0.000157273
0.000127734
0.000647576
0.000140349
4.94815e-05
0.000588061
0.000132301
-1.70116e-05
0.000530621
0.000130881
-7.81442e-05
0.00047011
0.00012961
-0.000146809
0.000420369
0.000126094
-0.00021999
0.000372911
0.000122097
-0.000277516
0.000322883
0.000113652
-0.000328864
0.000276865
0.000109559
-0.000382454
0.000226321
0.000108293
-0.000439159
0.000185749
0.000117392
-0.000514323
0.000144858
0.000132622
-0.000597523
0.000114318
0.000148921
-0.000702558
0.000117988
0.000173536
-0.000822935
0.000106489
0.00020945
-0.000967762
8.99678e-05
0.000239231
-0.00112814
6.27643e-05
0.000261143
-0.00128399
9.32066e-06
0.000261676
-0.00140707
-6.78831e-05
0.000234484
-0.00145105
-0.00018017
0.000172282
-0.00137284
-0.000289932
7.84053e-05
-0.00114342
-0.00035765
-3.15394e-05
-0.000777589
-0.000283108
-0.000132882
-0.000346112
-1.67362e-05
-0.000191145
-6.78171e-05
0.000409883
-0.000185322
0.000575592
-6.89298e-05
0.000121481
0.000540001
-1.44464e-05
0.000381646
0.00103176
-0.00020548
0.000663965
0.00129548
-0.000241909
0.000862726
0.00138751
-0.000158631
0.000950148
0.00139927
-3.6317e-05
0.000952483
0.00135633
6.9086e-05
0.000919891
0.00129198
0.000124844
0.000856977
0.00122149
0.00016125
0.000775743
0.00115076
0.000182369
0.000688803
0.00106305
0.000194644
0.000598934
0.000970724
0.000199996
0.000505791
0.000879552
0.000195603
0.000412378
0.000790324
0.000187953
0.000324383
0.000714077
0.000167881
0.000243515
0.000643959
0.000150531
0.000173526
0.000582213
0.000135352
0.00010409
0.000526339
0.000131158
3.15414e-05
0.000474441
0.000128728
-4.35657e-05
0.000424838
0.000120379
-0.000109497
0.000373917
0.000112383
-0.000170037
0.000326923
0.000106527
-0.000222225
0.000276253
9.88167e-05
-0.000271554
0.000230409
9.57852e-05
-0.000319839
0.000182266
9.23401e-05
-0.000367797
0.000137512
9.61958e-05
-0.000428544
9.29269e-05
0.000112678
-0.000498212
5.033e-05
0.000133656
-0.000575856
3.02268e-05
0.000165405
-0.000675939
8.72569e-06
0.000197847
-0.000798614
-1.83443e-05
0.000230986
-0.000947156
-4.64128e-05
0.000257719
-0.00110803
-0.000101233
0.000271431
-0.00125775
-0.00017757
0.000259408
-0.00135141
-0.000299651
0.000213138
-0.00133575
-0.000438279
0.000132689
-0.00116353
-0.000565894
3.60257e-05
-0.000823084
-0.000546073
-7.74852e-05
-0.000409297
-0.000280187
-0.000150337
-6.9713e-05
0.000226217
-0.000155919
0.000556867
-5.09863e-05
0.000152986
0.000337585
4.94304e-05
0.000392859
0.000912095
-0.000120207
0.000681241
0.00119176
-0.000184665
0.000886399
0.00129074
-0.000108386
0.000983265
0.00129563
6.76896e-06
0.000978447
0.0012545
0.000106652
0.00093079
0.00118117
0.00015847
0.000863513
0.00109618
0.000192586
0.000797506
0.001013
0.000203771
0.000731147
0.000924308
0.000205102
0.000657943
0.000844158
0.000199769
0.000575795
0.000770065
0.000191636
0.000487841
0.000700787
0.000177491
0.000398708
0.000640147
0.000163062
0.000315832
0.000587661
0.000139174
0.000237626
0.000539747
0.000120671
0.000155954
0.000493356
0.000114655
7.31826e-05
0.000439139
0.000118073
-6.81857e-06
0.000390217
0.000114621
-7.05124e-05
0.000337734
9.98761e-05
-0.000129857
0.0002892
9.70682e-05
-0.00017742
0.000236475
8.73413e-05
-0.000224206
0.000191631
8.5564e-05
-0.000265841
0.00014273
8.11709e-05
-0.000310592
9.60434e-05
8.62191e-05
-0.000357405
4.54486e-05
9.42905e-05
-0.000419885
-2.46542e-06
0.000115275
-0.000487909
-4.6845e-05
0.000145097
-0.000581586
-7.70142e-05
0.000179416
-0.000692254
-0.000124502
0.000216826
-0.000822548
-0.000174976
0.000258858
-0.000970582
-0.000248088
0.000294888
-0.00112831
-0.000331927
0.00031208
-0.00125244
-0.00046874
0.00029322
-0.00128928
-0.000637147
0.000235715
-0.00118187
-0.000829279
0.000155974
-0.000884292
-0.000881713
3.8062e-05
-0.000448842
-0.000642167
-7.34701e-05
-8.39751e-05
-2.81367e-05
-0.000110515
0.000494988
-2.20949e-05
0.000126271
0.000198515
1.27997e-05
0.000343374
0.000831831
-0.000136839
0.000634679
0.0011064
-0.000205941
0.000852678
0.00120628
-0.000133538
0.000969627
0.00119484
-1.61559e-05
0.000999067
0.0011367
8.83522e-05
0.000976343
0.00104651
0.000157384
0.000925629
0.000967622
0.000179276
0.00085722
0.000898886
0.000182524
0.000775428
0.000827746
0.000178354
0.000689911
0.000758163
0.000171512
0.000601305
0.000694427
0.000164243
0.000514055
0.00063478
0.000153256
0.00042893
0.000585626
0.000139646
0.000345302
0.000542509
0.00012878
0.000266282
0.000500866
0.0001179
0.00019478
0.000460467
0.000104391
0.000122807
0.000407489
0.000103622
4.38163e-05
0.00036062
0.000108588
-2.35308e-05
0.000301513
0.000103568
-8.46045e-05
0.000256289
9.39849e-05
-0.00013687
0.000203024
8.57168e-05
-0.000182875
0.00015658
8.10571e-05
-0.000222811
0.000104972
7.76923e-05
-0.000265876
5.67932e-05
8.23148e-05
-0.000309871
1.20469e-06
8.8239e-05
-0.000359201
-4.69509e-05
9.38144e-05
-0.000408925
-0.000113576
0.000116456
-0.000464871
-0.000171334
0.000150266
-0.00053855
-0.000239806
0.000188982
-0.000640333
-0.000305418
0.000232226
-0.000771847
-0.000395986
0.000279412
-0.000936642
-0.00048903
0.000321899
-0.00109972
-0.000653544
0.000347887
-0.0012097
-0.000857725
0.000330556
-0.00118988
-0.00110697
0.000257873
-0.00100701
-0.00121746
0.000152873
-0.00058237
-0.00109053
2.37228e-05
-0.00015704
-0.00043077
-2.26991e-05
0.000302622
3.53265e-05
9.20398e-05
9.02478e-05
1.62277e-05
0.000336554
0.0007099
-0.000122583
0.000621043
0.00101126
-0.000189346
0.000857598
0.00111998
-0.00015025
0.000986569
0.00111265
-4.6782e-05
0.00101994
0.00105207
5.12677e-05
0.000979834
0.000960739
0.00012587
0.000913804
0.00087417
0.000159483
0.00085457
0.000797519
0.0001606
0.00078987