/*--------------------------------*- C++ -*----------------------------------*\
| =========                 |                                                 |
| \\      /  F ield         | OpenFOAM: The Open Source CFD Toolbox           |
|  \\    /   O peration     | Version:  v1806                                 |
|   \\  /    A nd           | Web:      www.OpenFOAM.com                      |
|    \\/     M anipulation  |                                                 |
\*---------------------------------------------------------------------------*/
FoamFile
{
    version     2.0;
    format      ascii;
    class       volVectorField;
    location    "0.098";
    object      U;
}
// * * * * * * * * * * * * * * * * * * * * * * * * * * * * * * * * * * * * * //

dimensions      [0 1 -1 0 0 0 0];


internalField   nonuniform List<vector> 
64000
(
(-0.0105204 -0.0125958 -0.00887373)
(0.0163568 -0.0121823 -0.00639316)
(0.0232248 -0.00415049 9.90979e-05)
(0.0283129 -0.00336754 0.000986548)
(0.0298197 -0.00234684 0.00132494)
(0.0304688 -0.0028217 0.00180154)
(0.0303033 -0.00382086 0.00192552)
(0.0275835 -0.00431563 0.00241123)
(0.0265969 -0.00526044 0.00368167)
(0.0204372 -0.00530423 0.00382857)
(0.0144346 -0.00552913 0.00431142)
(0.00376003 -0.00711185 0.00755331)
(-0.011601 -0.012398 0.00560321)
(-0.036652 -0.0172375 0.00372485)
(-0.0632699 -0.0179175 0.00436403)
(-0.0995527 -0.0175419 0.00233102)
(-0.125289 -6.55e-05 0.00102986)
(-0.170582 -0.00449305 -0.00320935)
(-0.166604 -0.00937003 0.0041833)
(-0.228748 -0.0269857 -0.014439)
(-0.198379 -0.019611 -0.0197521)
(-0.0967517 -0.0220844 -0.0379173)
(-0.107309 -0.00623238 -0.0244183)
(-0.106561 -0.00195765 -0.0370878)
(-0.126215 0.00409655 -0.0481307)
(-0.1207 0.0121823 -0.0579589)
(-0.109589 0.0223742 -0.0625188)
(-0.0730792 0.0328566 -0.0591584)
(-0.0388421 0.040188 -0.0544484)
(0.0048912 0.0510665 -0.040909)
(0.0491524 0.0493332 -0.0322137)
(0.0863609 0.039055 -0.025488)
(0.102439 0.0289136 -0.0128738)
(0.0997345 0.0150995 -0.00558379)
(0.0860662 0.00641369 0.000712185)
(0.0680378 -0.00154064 0.00329298)
(0.0494644 -0.00566868 0.00412868)
(0.0296893 -0.00522082 0.0049243)
(0.0158816 -0.0038396 0.00527424)
(0.00218778 -0.0024761 0.00334984)
(-0.00752662 0.0026909 -0.00529367)
(0.00930008 -0.0166791 -0.00496658)
(0.0253071 -0.0106874 -0.0022675)
(0.0364225 -0.00694619 -0.00113704)
(0.0423978 -0.00239213 -0.00163549)
(0.0428664 -0.000633789 -0.00191819)
(0.0419129 0.0031876 -0.00353279)
(0.0353506 0.00473044 -0.0030128)
(0.0282537 0.00952366 -0.0077611)
(0.0118574 0.0159511 -0.00369784)
(-0.0105704 0.0243054 -0.00855472)
(-0.0473546 0.0330024 0.000836686)
(-0.0928008 0.0421235 -0.00416575)
(-0.145172 0.0619344 -0.00686903)
(-0.202631 0.0752751 -0.0116256)
(-0.25991 0.0842834 -0.0180931)
(-0.335069 0.0928725 -0.0445492)
(-0.44092 0.0947926 -0.0593627)
(-0.484703 0.101247 -0.0770182)
(-0.571802 0.101177 -0.097331)
(-0.522382 0.130041 -0.0927281)
(-0.392048 0.145125 -0.125408)
(-0.384204 0.191546 -0.134193)
(-0.370148 0.214559 -0.145013)
(-0.363154 0.238865 -0.156995)
(-0.324496 0.260095 -0.163389)
(-0.277354 0.281044 -0.164862)
(-0.204929 0.296128 -0.153245)
(-0.130616 0.302435 -0.1336)
(-0.0570501 0.305767 -0.10998)
(0.00609566 0.291167 -0.0771234)
(0.0693739 0.260203 -0.0465706)
(0.107293 0.212766 -0.0391507)
(0.119767 0.160635 -0.0261979)
(0.114921 0.11043 -0.0130086)
(0.0965433 0.070725 -0.00550422)
(0.0774245 0.0422853 -0.00119403)
(0.0532871 0.0273342 -0.000220017)
(0.0318787 0.0174488 0.00114236)
(0.00772066 0.00905016 0.00112062)
(-0.000309936 -0.00433037 0.00142281)
(0.0159481 -0.0223171 -0.00222985)
(0.0333837 -0.0172313 -0.00327155)
(0.0445827 -0.00519768 -0.00461396)
(0.0470343 0.00410016 -0.00619488)
(0.0453018 0.015086 -0.00750124)
(0.0385656 0.0299377 -0.00851612)
(0.0242913 0.0438752 -0.0101667)
(0.00943288 0.068081 -0.00169658)
(-0.0198117 0.0897251 -0.0049935)
(-0.0572912 0.116087 -0.00828576)
(-0.109592 0.148437 -0.0132041)
(-0.162887 0.182185 -0.0177601)
(-0.240674 0.211302 -0.032787)
(-0.335064 0.231753 -0.0363197)
(-0.43118 0.245869 -0.042833)
(-0.513199 0.250725 -0.0598556)
(-0.601397 0.270165 -0.0789366)
(-0.640265 0.301449 -0.0968162)
(-0.712508 0.337118 -0.115961)
(-0.648587 0.375168 -0.103383)
(-0.491459 0.406846 -0.124225)
(-0.460545 0.463804 -0.124459)
(-0.43529 0.493714 -0.123329)
(-0.419324 0.525739 -0.126708)
(-0.376285 0.546883 -0.125377)
(-0.328658 0.561365 -0.12071)
(-0.262286 0.564065 -0.105256)
(-0.197302 0.553967 -0.0828867)
(-0.13094 0.533327 -0.059581)
(-0.076137 0.500975 -0.0400224)
(-0.0309993 0.453183 -0.0280295)
(0.00201886 0.380672 -0.0176425)
(0.0245019 0.307793 -0.00892132)
(0.0384497 0.228674 -0.0107012)
(0.0449197 0.164172 -0.0110246)
(0.0457863 0.117144 -0.00745252)
(0.0371694 0.0803689 -0.00528294)
(0.0265686 0.0541907 -0.00171459)
(0.0076965 0.0281448 0.000949009)
(0.00110111 -0.00845108 0.00184509)
(0.0182577 -0.0235272 -0.00146243)
(0.0394158 -0.0109664 -0.0040753)
(0.0473496 0.00566684 -0.00731944)
(0.0455816 0.0295353 -0.00804475)
(0.0420244 0.0536605 -0.00945206)
(0.0295202 0.0888033 -0.0093689)
(0.0117825 0.121566 -0.00592582)
(-0.0142735 0.166616 -0.0107425)
(-0.0596003 0.206353 -0.0130714)
(-0.104973 0.250376 -0.0175727)
(-0.168856 0.288262 -0.0251048)
(-0.250587 0.317612 -0.0280459)
(-0.340873 0.334419 -0.0296074)
(-0.425638 0.356201 -0.0325585)
(-0.50462 0.379508 -0.0370521)
(-0.571162 0.410553 -0.0526484)
(-0.646268 0.439663 -0.0629692)
(-0.671395 0.483045 -0.0728332)
(-0.730701 0.52944 -0.0782591)
(-0.655412 0.561995 -0.0447298)
(-0.477043 0.585281 -0.0458201)
(-0.432522 0.626799 -0.0391808)
(-0.407205 0.632418 -0.0295027)
(-0.392162 0.645613 -0.0278135)
(-0.358096 0.645534 -0.0230086)
(-0.322181 0.63821 -0.0195606)
(-0.272411 0.618932 -0.0117357)
(-0.22506 0.592975 0.000243412)
(-0.17926 0.559582 0.00750136)
(-0.148727 0.518028 0.0123012)
(-0.122782 0.472571 0.0110327)
(-0.0987203 0.412363 0.00508909)
(-0.0758126 0.350338 -0.00278741)
(-0.0519486 0.271238 -0.00625139)
(-0.021663 0.20406 -0.0108958)
(-0.000747748 0.149668 -0.011186)
(0.00793005 0.113515 -0.00840345)
(0.0161467 0.0805314 -0.00388538)
(0.00607062 0.0410673 0.000693301)
(0.00115883 -0.0089444 0.000436076)
(0.0239311 -0.0127433 -0.00411404)
(0.0466476 0.00402991 -0.00813916)
(0.0557595 0.0377132 -0.00905279)
(0.0534241 0.0747531 -0.00884449)
(0.0478548 0.120194 -0.0159195)
(0.030425 0.17474 -0.0140602)
(0.00298013 0.234174 -0.00674901)
(-0.0292578 0.290302 -0.00829757)
(-0.0817517 0.337882 -0.0105575)
(-0.140454 0.375976 -0.0135449)
(-0.217817 0.396913 -0.0161774)
(-0.291323 0.419667 -0.0167067)
(-0.365235 0.444459 -0.0218413)
(-0.43609 0.475042 -0.0218024)
(-0.504057 0.50807 -0.0224425)
(-0.557935 0.537352 -0.0269732)
(-0.614667 0.571729 -0.0252071)
(-0.620112 0.622008 -0.0190083)
(-0.664521 0.669845 -0.0265001)
(-0.590313 0.696731 0.00724188)
(-0.405652 0.704156 0.017017)
(-0.357296 0.716146 0.0292671)
(-0.341463 0.68778 0.0366198)
(-0.338586 0.671315 0.0363402)
(-0.323737 0.644575 0.0420971)
(-0.307639 0.612884 0.0431224)
(-0.27652 0.575599 0.0469276)
(-0.249867 0.534227 0.0400697)
(-0.224017 0.49389 0.0315662)
(-0.204891 0.448369 0.0213198)
(-0.194585 0.414715 0.0143433)
(-0.185275 0.376175 0.00699088)
(-0.176842 0.344988 -0.0049997)
(-0.153367 0.281386 -0.0144279)
(-0.104099 0.212017 -0.0152251)
(-0.0527391 0.164059 -0.0143437)
(-0.0173574 0.133726 -0.0121055)
(0.00258642 0.099781 -0.00665201)
(0.00317015 0.0514988 0.000697072)
(0.00587303 -0.00319207 -0.000192981)
(0.0287782 0.00253145 -0.00696169)
(0.0602079 0.0292112 -0.00685099)
(0.0721664 0.0803217 -0.0103192)
(0.0670535 0.137868 -0.0153595)
(0.0639935 0.201096 -0.0193001)
(0.0479448 0.275684 -0.014669)
(0.0150569 0.330619 -0.00632442)
(-0.0361495 0.3759 -0.00636948)
(-0.104978 0.41066 -0.00866817)
(-0.173462 0.440943 -0.0107729)
(-0.238229 0.468624 -0.0108843)
(-0.296223 0.502619 -0.00921811)
(-0.354317 0.531262 -0.00606792)
(-0.402959 0.561552 -0.000598134)
(-0.455395 0.590433 0.00521465)
(-0.487347 0.62101 0.00877692)
(-0.520547 0.652165 0.00847689)
(-0.519292 0.701939 0.00927158)
(-0.551641 0.738695 0.00955419)
(-0.480534 0.761207 0.0415485)
(-0.313791 0.714961 0.053957)
(-0.282786 0.697011 0.0652923)
(-0.28877 0.63749 0.0758496)
(-0.300421 0.597973 0.0770946)
(-0.304699 0.554821 0.076173)
(-0.304538 0.512563 0.0733407)
(-0.293555 0.469939 0.0665622)
(-0.280096 0.422831 0.0644107)
(-0.268325 0.383656 0.0427728)
(-0.259013 0.33968 0.0310485)
(-0.24786 0.308803 0.0154369)
(-0.233498 0.282085 0.00516804)
(-0.238692 0.270229 -0.00650606)
(-0.240931 0.245621 -0.0179968)
(-0.175791 0.196597 -0.0153757)
(-0.0934808 0.165207 -0.0159893)
(-0.0409117 0.13955 -0.0125077)
(-0.00510056 0.10794 -0.00744949)
(0.00222161 0.0554966 0.00121193)
(0.00608894 0.00265528 -0.00151562)
(0.0378602 0.0163625 -0.010275)
(0.080853 0.0568114 -0.0108034)
(0.105256 0.11171 -0.013002)
(0.101012 0.177947 -0.0183855)
(0.098162 0.250106 -0.021229)
(0.061491 0.318802 -0.015231)
(-0.00104886 0.34644 0.000177426)
(-0.051835 0.390627 -0.00486449)
(-0.108055 0.428394 -0.00548166)
(-0.155578 0.473153 -0.00543382)
(-0.20549 0.516237 -0.00342061)
(-0.251006 0.557052 0.000242757)
(-0.29764 0.590933 0.00494067)
(-0.336667 0.624657 0.0133725)
(-0.37184 0.64985 0.0185426)
(-0.392814 0.6784 0.0251657)
(-0.412023 0.691037 0.0283671)
(-0.397384 0.716408 0.0274771)
(-0.41849 0.729321 0.0175979)
(-0.408049 0.74891 0.0375958)
(-0.273451 0.640272 0.0572094)
(-0.230284 0.595754 0.062649)
(-0.254093 0.532051 0.0735487)
(-0.276648 0.491197 0.0728616)
(-0.298155 0.452568 0.0715864)
(-0.314141 0.417894 0.0673685)
(-0.320002 0.382847 0.0595519)
(-0.319612 0.34565 0.0459132)
(-0.320144 0.310865 0.0294825)
(-0.317142 0.2774 0.0159206)
(-0.309055 0.248939 0.00268492)
(-0.293801 0.227951 -0.00496986)
(-0.286973 0.21237 -0.0125218)
(-0.289556 0.222375 -0.020705)
(-0.227881 0.197317 -0.0219048)
(-0.128241 0.171592 -0.0226547)
(-0.0562349 0.151014 -0.017538)
(-0.0103184 0.117679 -0.0113611)
(0.00218526 0.0610866 -0.000528411)
(0.00707728 0.00905302 -0.00409454)
(0.0454865 0.0353375 -0.0140587)
(0.0993327 0.0841471 -0.0141411)
(0.125704 0.140258 -0.0121672)
(0.128465 0.199675 -0.0131891)
(0.118585 0.272258 -0.0149904)
(0.0586386 0.306203 -0.00510978)
(0.00832883 0.352027 0.00338025)
(-0.0210049 0.398151 -0.00111627)
(-0.0702989 0.453009 0.000569674)
(-0.111045 0.498209 0.0010843)
(-0.153047 0.537079 0.00754428)
(-0.189051 0.571282 0.0131624)
(-0.220883 0.598939 0.0216172)
(-0.246807 0.625892 0.0259978)
(-0.27569 0.641365 0.0306554)
(-0.292584 0.654406 0.0338469)
(-0.31061 0.651957 0.0332283)
(-0.306398 0.649911 0.0305183)
(-0.319208 0.62244 0.0149933)
(-0.357899 0.630499 0.01853)
(-0.274294 0.541918 0.0381113)
(-0.213559 0.46866 0.0407502)
(-0.241068 0.426682 0.0518927)
(-0.271691 0.392637 0.0546953)
(-0.30408 0.367132 0.0554838)
(-0.330388 0.341966 0.0559844)
(-0.348082 0.31534 0.0480494)
(-0.359183 0.287781 0.0378116)
(-0.366129 0.257089 0.0152493)
(-0.367515 0.225259 0.00563339)
(-0.357739 0.199962 -0.00386367)
(-0.34222 0.186909 -0.0111838)
(-0.322359 0.176476 -0.0148357)
(-0.32831 0.197148 -0.0243094)
(-0.277787 0.201181 -0.0218136)
(-0.162571 0.177441 -0.0232923)
(-0.0749317 0.160682 -0.0180325)
(-0.0155172 0.125264 -0.0109476)
(0.00310367 0.0653288 0.000276146)
(0.00561922 0.0234452 -0.00699031)
(0.0539311 0.0674631 -0.0180982)
(0.119738 0.12356 -0.0196842)
(0.152305 0.179697 -0.0142526)
(0.160942 0.240495 -0.0147743)
(0.132346 0.294514 -0.0152487)
(0.0784606 0.327413 -0.00544281)
(0.0381645 0.387319 0.00224018)
(0.0127844 0.425034 0.00865889)
(-0.0199079 0.466955 0.00786714)
(-0.0588117 0.502794 0.0123627)
(-0.0899534 0.532073 0.0174562)
(-0.115605 0.554985 0.0255733)
(-0.139835 0.569268 0.0317254)
(-0.162771 0.575153 0.0342081)
(-0.188132 0.571764 0.0348142)
(-0.209059 0.566478 0.0336755)
(-0.235083 0.549221 0.0290663)
(-0.25515 0.535781 0.0229131)
(-0.269207 0.499959 0.00919564)
(-0.320134 0.491979 -0.000793531)
(-0.296873 0.456545 0.012831)
(-0.229035 0.364397 0.0209881)
(-0.239014 0.347826 0.0282228)
(-0.275335 0.323738 0.0355999)
(-0.312369 0.308452 0.0394921)
(-0.348228 0.290978 0.0443403)
(-0.373662 0.268917 0.039489)
(-0.39482 0.245565 0.0231772)
(-0.411846 0.211949 0.00659929)
(-0.413654 0.186437 -0.00300618)
(-0.400352 0.163092 -0.0101046)
(-0.3844 0.149475 -0.0144672)
(-0.354664 0.149221 -0.0240097)
(-0.343144 0.161702 -0.0269735)
(-0.308121 0.19705 -0.0308483)
(-0.19848 0.181115 -0.0269267)
(-0.0904006 0.170957 -0.0252589)
(-0.0207056 0.136166 -0.0141266)
(0.0040227 0.0724919 -0.00194187)
(0.00778756 0.0396749 -0.00957187)
(0.0631161 0.105378 -0.0258039)
(0.138568 0.165703 -0.0247706)
(0.177801 0.219788 -0.0154109)
(0.181286 0.274544 -0.0164202)
(0.15168 0.308408 -0.0162695)
(0.110247 0.35445 -0.00660135)
(0.0784478 0.402228 0.00475576)
(0.0492665 0.442308 0.0118367)
(0.0238228 0.468803 0.0225683)
(-0.000341684 0.493126 0.0211033)
(-0.0286216 0.506874 0.0306071)
(-0.0524926 0.513538 0.0362176)
(-0.0748867 0.507051 0.0418022)
(-0.0973035 0.492686 0.0420404)
(-0.124208 0.470004 0.0388631)
(-0.15095 0.447576 0.0334261)
(-0.181332 0.420808 0.0258133)
(-0.212096 0.403294 0.0171726)
(-0.240434 0.383851 0.00356969)
(-0.293327 0.368314 -0.00965321)
(-0.321119 0.366784 -0.00548619)
(-0.25739 0.300828 0.0102055)
(-0.23527 0.295014 0.0129581)
(-0.276126 0.277411 0.0243627)
(-0.314092 0.269219 0.0307707)
(-0.355711 0.250557 0.0401388)
(-0.389091 0.234227 0.0329582)
(-0.419029 0.204268 0.0238688)
(-0.433973 0.177171 0.00694541)
(-0.439134 0.148671 0.00769702)
(-0.432835 0.125682 0.0152983)
(-0.412852 0.106419 0.0113013)
(-0.385446 0.107077 0.00788873)
(-0.364115 0.119839 -0.0159503)
(-0.331552 0.167423 -0.026448)
(-0.22904 0.178391 -0.026289)
(-0.108751 0.171207 -0.0219832)
(-0.0266761 0.143971 -0.0134048)
(0.00487152 0.0770424 -0.000806081)
(0.00881712 0.0639808 -0.012225)
(0.0722927 0.149824 -0.0320742)
(0.156694 0.21361 -0.0313091)
(0.202331 0.263237 -0.0196487)
(0.201486 0.302599 -0.0124511)
(0.176566 0.336105 -0.0163804)
(0.150772 0.376656 -0.00576618)
(0.120675 0.415138 0.00137769)
(0.0965135 0.444928 0.00916976)
(0.0692093 0.467179 0.0248625)
(0.0421383 0.475303 0.0343394)
(0.0225825 0.475542 0.0445353)
(0.00181744 0.464617 0.0475552)
(-0.024236 0.440503 0.0484065)
(-0.0522968 0.414488 0.0473464)
(-0.0833668 0.382043 0.0407844)
(-0.116019 0.353443 0.0320783)
(-0.151873 0.325944 0.0226598)
(-0.18556 0.307638 0.0140033)
(-0.22247 0.296098 0.00111378)
(-0.272844 0.284426 -0.0090298)
(-0.315079 0.288894 -0.0102484)
(-0.260518 0.269828 0.00363316)
(-0.227574 0.260246 0.00497388)
(-0.264871 0.247412 0.017818)
(-0.30564 0.235395 0.0257258)
(-0.352749 0.220572 0.0345418)
(-0.390394 0.197964 0.0313107)
(-0.424173 0.172185 0.0187796)
(-0.447341 0.141547 0.0279811)
(-0.461305 0.10623 0.0297942)
(-0.461401 0.0772224 0.0156793)
(-0.446105 0.059655 0.0112581)
(-0.411188 0.0566601 0.00213487)
(-0.37217 0.0703809 -0.00264562)
(-0.340505 0.119861 -0.025281)
(-0.25378 0.158335 -0.0293738)
(-0.126252 0.168849 -0.0242761)
(-0.0301001 0.149097 -0.0153987)
(0.00419603 0.0830782 -0.00249018)
(0.010135 0.0830899 -0.0129655)
(0.0783286 0.18969 -0.0360966)
(0.170784 0.256298 -0.0346906)
(0.216167 0.295551 -0.0188169)
(0.220726 0.323897 -0.0113378)
(0.20625 0.357092 -0.00884893)
(0.18569 0.389777 -0.0077905)
(0.16093 0.414727 0.00435254)
(0.135104 0.436023 0.0100259)
(0.111279 0.445365 0.0209943)
(0.0895132 0.449977 0.0314761)
(0.0621748 0.439888 0.0494758)
(0.0343556 0.418151 0.0536257)
(0.0123019 0.383264 0.0553995)
(-0.0164169 0.349117 0.0478916)
(-0.0528555 0.317663 0.0394169)
(-0.0892025 0.292218 0.0277291)
(-0.127677 0.269788 0.0176775)
(-0.163057 0.259102 0.00959642)
(-0.20514 0.250194 -0.00221244)
(-0.253865 0.244885 -0.00877927)
(-0.292086 0.24587 -0.0107398)
(-0.244026 0.248978 0.000555439)
(-0.209247 0.234824 0.000277983)
(-0.245294 0.219211 0.0129631)
(-0.28351 0.203401 0.021627)
(-0.333416 0.187118 0.0293582)
(-0.374588 0.163551 0.022837)
(-0.412969 0.135888 0.0368372)
(-0.445605 0.100075 0.0434596)
(-0.46666 0.0642178 0.0360117)
(-0.469562 0.0366313 0.0459562)
(-0.461238 0.0153067 0.0376846)
(-0.439008 0.0111665 0.0355979)
(-0.398173 0.019562 0.0245858)
(-0.354605 0.0648404 0.00192611)
(-0.267237 0.121121 -0.0264697)
(-0.140457 0.155897 -0.0259605)
(-0.0364604 0.147404 -0.0150011)
(0.0052815 0.0858022 -0.00242928)
(0.010698 0.105197 -0.0119744)
(0.0835667 0.231307 -0.0383539)
(0.177359 0.298967 -0.0375678)
(0.228326 0.328687 -0.019711)
(0.243627 0.351808 -0.00689413)
(0.237489 0.376066 -0.00138385)
(0.218715 0.399781 0.00251952)
(0.195228 0.415042 0.003363)
(0.175321 0.425495 0.011968)
(0.152806 0.428321 0.0233801)
(0.12733 0.420203 0.0323794)
(0.10099 0.402055 0.0395955)
(0.0694507 0.375243 0.0513756)
(0.0359923 0.341947 0.0536363)
(0.00829326 0.301549 0.0494684)
(-0.0251443 0.272083 0.0357473)
(-0.0660421 0.250896 0.0226537)
(-0.104263 0.234119 0.0131753)
(-0.140444 0.22872 0.00513353)
(-0.18365 0.220244 -0.00289085)
(-0.227473 0.219793 -0.00786186)
(-0.255595 0.217639 -0.00831509)
(-0.211562 0.235425 -0.000682165)
(-0.185907 0.213046 -0.0022821)
(-0.215852 0.192454 0.00951125)
(-0.252752 0.171772 0.0173482)
(-0.301481 0.149003 0.0218181)
(-0.345658 0.126234 0.0315483)
(-0.391296 0.0936339 0.0445669)
(-0.43088 0.0582 0.0447795)
(-0.454815 0.0265601 0.0656505)
(-0.475476 -0.0108205 0.0485459)
(-0.480326 -0.0485565 0.0335499)
(-0.464366 -0.0694373 0.0109945)
(-0.422518 -0.058307 0.00381092)
(-0.374289 -0.0132038 0.00704569)
(-0.287762 0.0700402 -0.00390144)
(-0.156321 0.127815 -0.0318878)
(-0.0415923 0.141886 -0.0149015)
(0.00504179 0.0898069 -0.00402633)
(0.0104359 0.112172 -0.0112248)
(0.0823595 0.254698 -0.0408)
(0.178045 0.325402 -0.041555)
(0.234876 0.352625 -0.0227766)
(0.260945 0.367486 -0.00467768)
(0.262377 0.38039 0.0049667)
(0.246157 0.393111 0.0109519)
(0.224498 0.402136 0.0139555)
(0.20524 0.407952 0.0169991)
(0.183504 0.403256 0.0212851)
(0.160955 0.389474 0.0256593)
(0.130482 0.366274 0.0376011)
(0.0968837 0.33548 0.038737)
(0.0606802 0.303413 0.0458117)
(0.0269208 0.271911 0.0455821)
(-0.00277806 0.239444 0.0320738)
(-0.0416088 0.224103 0.0179723)
(-0.07784 0.209965 0.00967326)
(-0.113847 0.205813 0.00229268)
(-0.154079 0.198997 -0.00274838)
(-0.192896 0.197949 -0.00601072)
(-0.20305 0.200256 -0.00378005)
(-0.168646 0.224946 -0.00099577)
(-0.160092 0.193226 -0.00107768)
(-0.185512 0.167057 0.0056468)
(-0.218394 0.137861 0.0132578)
(-0.262411 0.115037 0.015413)
(-0.306208 0.0859505 0.0337065)
(-0.355513 0.0545615 0.0403092)
(-0.392865 0.0246852 0.063147)
(-0.437862 -0.0156657 0.0475805)
(-0.479164 -0.0678272 0.0384736)
(-0.495739 -0.114062 0.0233599)
(-0.482247 -0.146904 0.0118904)
(-0.440324 -0.149426 -0.00864992)
(-0.379763 -0.110007 -0.00742055)
(-0.295052 -0.010668 -0.000804245)
(-0.173291 0.0839052 -0.0178034)
(-0.0467281 0.126047 -0.020593)
(0.00652031 0.08894 -0.00248198)
(0.00935482 0.12234 -0.00877872)
(0.0818254 0.279054 -0.0398117)
(0.178893 0.354615 -0.0426939)
(0.242151 0.379199 -0.0235078)
(0.275321 0.386411 -0.00304062)
(0.282245 0.386569 0.0110816)
(0.271723 0.389391 0.0206263)
(0.255213 0.392136 0.0231875)
(0.238195 0.392111 0.0256414)
(0.215705 0.382892 0.0278947)
(0.190384 0.366473 0.0292609)
(0.160395 0.338742 0.0280954)
(0.124933 0.309729 0.0274528)
(0.087687 0.274906 0.0296801)
(0.0479099 0.248896 0.0346495)
(0.0174968 0.220972 0.0270727)
(-0.0152982 0.20101 0.012701)
(-0.0513326 0.191683 0.00689251)
(-0.0830584 0.186785 0.000322608)
(-0.120324 0.178761 -0.00234424)
(-0.147417 0.177745 -0.00290074)
(-0.14132 0.197554 0.00187339)
(-0.124857 0.201137 0.000304993)
(-0.139928 0.169292 0.00132312)
(-0.158964 0.139155 0.00526966)
(-0.183821 0.106296 0.00938191)
(-0.222293 0.0800863 0.0215933)
(-0.265649 0.0489768 0.0294215)
(-0.305291 0.0219033 0.0484423)
(-0.356109 -0.0141836 0.0430402)
(-0.413898 -0.0667053 0.0397867)
(-0.461825 -0.118926 0.0293282)
(-0.491846 -0.171042 0.0179185)
(-0.49381 -0.212699 0.00199383)
(-0.458681 -0.231979 -0.0141578)
(-0.391224 -0.202925 -0.0213707)
(-0.301768 -0.11378 -0.0190241)
(-0.184677 0.0284026 0.00147404)
(-0.055157 0.105557 -0.0274822)
(0.00526219 0.0916314 -0.00381484)
(0.00707335 0.103853 -0.00948823)
(0.0757059 0.273989 -0.0402735)
(0.173238 0.355686 -0.0422503)
(0.241275 0.381217 -0.023032)
(0.281625 0.383354 0.000406425)
(0.296462 0.379616 0.0149002)
(0.293431 0.377478 0.0211742)
(0.279092 0.37261 0.0248873)
(0.261818 0.364767 0.0269832)
(0.241046 0.353068 0.0276981)
(0.216111 0.334178 0.0269573)
(0.184296 0.310952 0.0244589)
(0.146697 0.28141 0.019987)
(0.10833 0.252496 0.0129785)
(0.0711725 0.225968 0.0164975)
(0.0357687 0.209728 0.015493)
(0.00755585 0.188851 0.00952069)
(-0.0175483 0.179882 0.00316813)
(-0.0513662 0.169831 -0.002158)
(-0.0823181 0.167536 -0.00110875)
(-0.0864153 0.1766 0.00221883)
(-0.0869124 0.186304 0.00340668)
(-0.0981831 0.169791 0.00398771)
(-0.117016 0.142074 0.00491802)
(-0.136705 0.116791 0.00499606)
(-0.15677 0.0815224 0.00818837)
(-0.188216 0.0533365 0.0152521)
(-0.220782 0.0215729 0.0312889)
(-0.264188 -0.00908155 0.0336837)
(-0.318843 -0.0571447 0.0356993)
(-0.375297 -0.106249 0.0313348)
(-0.428856 -0.163952 0.0265078)
(-0.467302 -0.223044 0.0158978)
(-0.483185 -0.278547 0.00212195)
(-0.46084 -0.312163 -0.0156465)
(-0.400855 -0.302093 -0.0280627)
(-0.295659 -0.223948 -0.0316843)
(-0.185963 -0.0703478 -0.0191157)
(-0.0644059 0.0607698 -0.019524)
(0.00664497 0.0816947 -0.00751518)
(0.00832472 0.10919 -0.00301178)
(0.0759501 0.286 -0.0335977)
(0.17227 0.37151 -0.0385579)
(0.246461 0.394433 -0.0182974)
(0.296352 0.390569 0.00679724)
(0.320003 0.377782 0.0153251)
(0.318906 0.368502 0.0234824)
(0.305033 0.357909 0.0251332)
(0.290445 0.34944 0.0242052)
(0.269986 0.334877 0.0214761)
(0.246345 0.315239 0.0183109)
(0.214911 0.289226 0.0136402)
(0.175824 0.261813 0.00962597)
(0.135984 0.233224 0.00634884)
(0.0992819 0.211385 0.00360191)
(0.0653791 0.195977 0.00492267)
(0.0340147 0.186336 0.0019147)
(0.00778622 0.182086 -0.000159128)
(-0.0144682 0.174863 -0.000610572)
(-0.028432 0.177423 0.000850991)
(-0.0397473 0.178415 0.00375847)
(-0.0561174 0.162277 0.00623713)
(-0.0737527 0.143202 0.00753455)
(-0.0942594 0.118185 0.00767178)
(-0.116048 0.0960102 0.00878603)
(-0.135701 0.0640826 0.00796426)
(-0.160087 0.0320611 0.0177343)
(-0.193118 -4.2107e-05 0.0207779)
(-0.234288 -0.04102 0.0238895)
(-0.285459 -0.08383 0.0245622)
(-0.340125 -0.132551 0.0256968)
(-0.392976 -0.189959 0.0230808)
(-0.435857 -0.252857 0.0167858)
(-0.461022 -0.31904 0.00441217)
(-0.45111 -0.368946 -0.0123257)
(-0.401091 -0.383407 -0.0292395)
(-0.306145 -0.320306 -0.0419233)
(-0.190887 -0.174828 -0.0317234)
(-0.0617834 0.0153042 -0.00962701)
(0.00622971 0.0764715 -0.013088)
(-0.00176872 0.0826946 -0.0151369)
(0.0550749 0.267503 -0.0404372)
(0.153147 0.363692 -0.0463712)
(0.23519 0.389351 -0.0259278)
(0.294813 0.388271 -0.00360197)
(0.330503 0.368894 0.010138)
(0.341404 0.352443 0.0160107)
(0.332414 0.333751 0.0166244)
(0.316885 0.320451 0.0146333)
(0.29416 0.311307 0.0109564)
(0.267383 0.301831 0.00776136)
(0.234339 0.288199 0.00497517)
(0.194838 0.269466 0.0021655)
(0.156869 0.249844 0.000986479)
(0.125043 0.230376 0.000592392)
(0.094989 0.220031 0.00388451)
(0.0743319 0.217834 -0.0015338)
(0.0516807 0.216169 -0.00289555)
(0.0264598 0.207577 -0.00126936)
(0.0058111 0.196034 0.00196954)
(-0.0154112 0.172688 0.00627266)
(-0.0348969 0.148714 0.00890121)
(-0.0546119 0.124767 0.00984946)
(-0.0748599 0.100656 0.0110648)
(-0.097881 0.0776504 0.0115808)
(-0.121391 0.0528566 0.00841242)
(-0.143184 0.0186771 0.00706809)
(-0.171968 -0.0157805 0.00910808)
(-0.208378 -0.0578407 0.0113362)
(-0.250413 -0.105481 0.0144717)
(-0.298269 -0.157362 0.0160446)
(-0.348272 -0.221191 0.0159414)
(-0.393136 -0.291476 0.0116885)
(-0.425139 -0.36961 0.00228811)
(-0.428402 -0.435464 -0.0131601)
(-0.388837 -0.469543 -0.0297298)
(-0.29939 -0.425438 -0.0547643)
(-0.18711 -0.293799 -0.0477406)
(-0.0595392 -0.0645243 -0.0146341)
(0.00453234 0.0586542 -0.00281613)
(-0.00214452 0.147509 -0.00475556)
(0.051635 0.347329 -0.0192999)
(0.143636 0.446416 -0.0306858)
(0.229357 0.467817 -0.011176)
(0.297911 0.456336 -0.00377692)
(0.338903 0.423653 0.0123848)
(0.354097 0.387147 0.0153137)
(0.349396 0.372818 0.0179816)
(0.348565 0.383016 0.0150018)
(0.337806 0.390385 0.0105411)
(0.315502 0.389456 0.00475444)
(0.279245 0.378154 2.54189e-05)
(0.235463 0.355436 -0.00343329)
(0.191364 0.328678 -0.00446197)
(0.157989 0.300545 -0.00281108)
(0.136407 0.277408 0.000210251)
(0.111138 0.260379 0.00222177)
(0.0779027 0.240774 -0.00616074)
(0.046677 0.222551 -0.00325557)
(0.0184424 0.194934 -0.0017196)
(-0.00575136 0.168916 0.00602816)
(-0.0236103 0.138444 0.00843032)
(-0.0418724 0.113647 0.0100256)
(-0.0607208 0.0879832 0.0117168)
(-0.0804535 0.0645231 0.0104182)
(-0.106167 0.0417735 0.00738323)
(-0.131658 0.0139879 0.00468525)
(-0.160183 -0.0209543 -0.000806183)
(-0.197666 -0.0585912 1.31118e-05)
(-0.236352 -0.102521 0.00273219)
(-0.27922 -0.14948 0.00732994)
(-0.3227 -0.21038 0.0107944)
(-0.363878 -0.281002 0.0114875)
(-0.396816 -0.366724 0.00547152)
(-0.404382 -0.449673 -0.00829044)
(-0.373762 -0.516176 -0.0284394)
(-0.304226 -0.51742 -0.0603009)
(-0.191319 -0.392215 -0.0589311)
(-0.0525899 -0.176809 -0.0337853)
(0.00725013 0.0233348 -0.00392776)
(-0.0178755 0.230539 -0.0243134)
(0.0202478 0.470025 -0.0419616)
(0.111176 0.579477 -0.0503433)
(0.197223 0.618038 -0.0347058)
(0.269636 0.608036 -0.0232555)
(0.318645 0.576884 -0.00595958)
(0.363948 0.530872 0.00272116)
(0.406843 0.50485 0.00340006)
(0.415477 0.499527 -0.00380989)
(0.38509 0.484662 -0.00872987)
(0.344095 0.462322 -0.0113967)
(0.292733 0.432273 -0.0120803)
(0.239158 0.395662 -0.0117023)
(0.1942 0.356814 -0.0100032)
(0.161893 0.32218 -0.00751471)
(0.138431 0.286991 -0.00296131)
(0.119035 0.254999 0.00164236)
(0.0940555 0.2271 0.00416824)
(0.0594597 0.208258 -0.00208422)
(0.0300641 0.181133 0.000737263)
(0.00432892 0.157695 0.00403889)
(-0.0155954 0.125773 0.00853251)
(-0.0312922 0.100848 0.00952646)
(-0.0498848 0.075124 0.0118758)
(-0.0677229 0.0496097 0.00778232)
(-0.0911101 0.0226966 0.00884571)
(-0.117849 0.000331885 0.00732697)
(-0.145058 -0.0271425 0.00315779)
(-0.173861 -0.058317 -0.00255937)
(-0.20245 -0.106166 -0.00735581)
(-0.238634 -0.162083 -0.0109829)
(-0.277872 -0.235775 -0.0133894)
(-0.316886 -0.317187 -0.0150898)
(-0.353661 -0.418185 -0.0182729)
(-0.379662 -0.51614 -0.0267629)
(-0.378738 -0.614205 -0.0442374)
(-0.309038 -0.641969 -0.0673619)
(-0.227892 -0.539752 -0.0817316)
(-0.0890936 -0.25615 -0.0396777)
(0.0137677 0.0132615 -0.00251572)
(0.000730303 0.205457 0.000372552)
(0.0396943 0.449948 -0.0372001)
(0.115558 0.575623 -0.0499042)
(0.202215 0.633277 -0.046016)
(0.274326 0.639116 -0.0372556)
(0.324603 0.621193 -0.0264634)
(0.364266 0.58551 -0.0197912)
(0.401519 0.540997 -0.00949826)
(0.412317 0.498982 -0.0111698)
(0.385652 0.463625 -0.0103851)
(0.349593 0.430996 -0.00989563)
(0.301314 0.399594 -0.00769464)
(0.249884 0.363613 -0.00549677)
(0.207139 0.331415 -0.00250216)
(0.175408 0.300573 -0.000805753)
(0.15355 0.270104 0.00206261)
(0.132516 0.238846 0.00497374)
(0.110272 0.208234 0.00801805)
(0.0775971 0.187695 0.00974698)
(0.0421855 0.167246 0.00237326)
(0.0110897 0.142418 0.00515196)
(-0.00991986 0.114169 0.00891018)
(-0.0229217 0.0883309 0.0104118)
(-0.0421054 0.0604908 0.0114527)
(-0.0611186 0.034521 0.00746576)
(-0.0800465 0.00645635 0.0106763)
(-0.099864 -0.0133645 0.0116224)
(-0.12747 -0.0352339 0.00744813)
(-0.170398 -0.0554694 0.00399394)
(-0.211477 -0.091963 0.00499255)
(-0.249656 -0.138425 0.00671507)
(-0.281618 -0.209008 0.00647513)
(-0.30945 -0.300022 0.00341973)
(-0.327412 -0.437304 -0.00642073)
(-0.343781 -0.586015 -0.0157357)
(-0.341021 -0.726997 -0.0265923)
(-0.28768 -0.798884 -0.0502098)
(-0.177334 -0.763177 -0.0646138)
(-0.0560672 -0.470529 -0.0681117)
(-0.000167882 -0.1026 0.00774682)
(0.000806753 0.218647 -0.00222903)
(0.0379176 0.438105 -0.0333027)
(0.106658 0.561791 -0.0442993)
(0.186158 0.618271 -0.0425107)
(0.256831 0.625024 -0.0273118)
(0.310951 0.603583 -0.021783)
(0.355943 0.566414 -0.0129866)
(0.398275 0.52492 -0.00530884)
(0.415871 0.481309 -0.00565326)
(0.395118 0.448826 -0.00462091)
(0.358811 0.418434 -0.00369388)
(0.306897 0.384393 -0.00185744)
(0.25531 0.348619 0.000638127)
(0.216807 0.316016 0.00241408)
(0.185845 0.285953 0.00375877)
(0.160679 0.254458 0.00593791)
(0.138818 0.222196 0.00872449)
(0.121656 0.186346 0.0125931)
(0.0940196 0.161211 0.0130737)
(0.0573281 0.141352 0.0133743)
(0.0211942 0.122247 0.00757942)
(-0.00156209 0.0965794 0.00969801)
(-0.0176533 0.06952 0.0116459)
(-0.0361226 0.0428358 0.0105182)
(-0.052702 0.0182487 0.00975519)
(-0.0669335 -0.00587575 0.0120712)
(-0.0822147 -0.0268635 0.0120783)
(-0.101472 -0.0511891 0.0114565)
(-0.132134 -0.0676894 0.00788165)
(-0.167457 -0.0849268 0.00516149)
(-0.208649 -0.105004 0.00487496)
(-0.253817 -0.150157 0.00615152)
(-0.315755 -0.212978 0.00997804)
(-0.368001 -0.324985 0.0157189)
(-0.382078 -0.45998 0.0140441)
(-0.372507 -0.621576 0.00759956)
(-0.327186 -0.74316 -0.00730061)
(-0.227027 -0.769812 -0.0309097)
(-0.0633022 -0.554402 -0.0429388)
(0.0223501 -0.122458 -0.0177441)
(0.00698166 0.196579 -0.00266166)
(0.0460443 0.395787 -0.0269803)
(0.108426 0.527552 -0.0368438)
(0.184713 0.589338 -0.0361143)
(0.252341 0.60662 -0.0242499)
(0.304568 0.589934 -0.0156202)
(0.350928 0.554049 -0.00699502)
(0.390736 0.51144 -0.000436375)
(0.411643 0.459808 -0.000862545)
(0.399187 0.42149 -0.000488699)
(0.362266 0.38524 0.000229665)
(0.310846 0.347556 0.0032655)
(0.26365 0.314365 0.00555713)
(0.228629 0.283709 0.00720248)
(0.198615 0.254797 0.00769541)
(0.174029 0.22515 0.0091209)
(0.146928 0.195914 0.0111197)
(0.128895 0.161139 0.0151278)
(0.108583 0.128736 0.0195631)
(0.0755316 0.109514 0.0181458)
(0.0356318 0.0963423 0.0171735)
(0.00479743 0.0741253 0.0135321)
(-0.0101027 0.0493014 0.016474)
(-0.0265539 0.0253597 0.0132194)
(-0.0417407 0.00416864 0.0124107)
(-0.0547359 -0.016805 0.0120566)
(-0.0706759 -0.0376656 0.0115771)
(-0.0868467 -0.0632647 0.0113888)