/*--------------------------------*- C++ -*----------------------------------*\
| =========                 |                                                 |
| \\      /  F ield         | OpenFOAM: The Open Source CFD Toolbox           |
|  \\    /   O peration     | Version:  v1806                                 |
|   \\  /    A nd           | Web:      www.OpenFOAM.com                      |
|    \\/     M anipulation  |                                                 |
\*---------------------------------------------------------------------------*/
FoamFile
{
    version     2.0;
    format      ascii;
    class       volScalarField;
    location    "0.096";
    object      p;
}
// * * * * * * * * * * * * * * * * * * * * * * * * * * * * * * * * * * * * * //

dimensions      [0 2 -2 0 0 0 0];


internalField   nonuniform List<scalar> 
64000
(
-9.24098e-05
-0.115451
-0.285943
-0.402332
-0.492434
-0.571587
-0.646434
-0.717467
-0.788445
-0.860888
-0.938783
-1.00062
-1.11545
-1.23651
-1.3133
-1.44702
-1.48685
-1.66452
-1.63139
-1.94455
-1.76868
-2.15285
-2.12316
-2.25831
-2.19642
-2.2113
-2.12852
-2.11349
-2.07374
-2.08763
-2.10521
-2.16865
-2.24475
-2.30894
-2.38045
-2.42117
-2.4739
-2.49529
-2.52151
-2.52701
-0.105251
-0.220098
-0.329526
-0.418431
-0.500122
-0.570574
-0.639018
-0.702642
-0.769713
-0.82682
-0.911422
-0.992864
-1.07013
-1.17504
-1.24384
-1.35182
-1.45877
-1.61917
-1.59176
-1.85014
-1.72135
-2.06805
-2.09315
-2.20404
-2.14043
-2.15912
-2.09269
-2.08977
-2.06427
-2.08714
-2.11812
-2.14703
-2.2323
-2.28549
-2.36163
-2.40386
-2.45746
-2.48445
-2.51751
-2.5271
-0.248598
-0.298259
-0.367275
-0.439704
-0.511802
-0.5734
-0.638315
-0.697991
-0.742759
-0.829256
-0.902137
-1.00117
-1.07948
-1.2459
-1.33341
-1.4802
-1.52737
-1.70449
-1.69671
-1.99693
-1.93487
-2.32759
-2.42631
-2.58356
-2.56177
-2.61079
-2.56465
-2.565
-2.51441
-2.49043
-2.46582
-2.44916
-2.45467
-2.44535
-2.47578
-2.48619
-2.51861
-2.53457
-2.55983
-2.56988
-0.322815
-0.345664
-0.389536
-0.452859
-0.505403
-0.559986
-0.61962
-0.667731
-0.751631
-0.836148
-0.928001
-1.05094
-1.17792
-1.31969
-1.42227
-1.57712
-1.67546
-1.87518
-1.91932
-2.24664
-2.22329
-2.64722
-2.80281
-2.98275
-2.98824
-3.04462
-3.00184
-2.98649
-2.91623
-2.8555
-2.78263
-2.70107
-2.64826
-2.60055
-2.58985
-2.57486
-2.60119
-2.59757
-2.616
-2.62645
-0.36616
-0.36811
-0.418063
-0.458102
-0.523827
-0.570947
-0.646862
-0.703512
-0.799619
-0.908005
-1.02965
-1.18098
-1.3052
-1.47499
-1.62223
-1.81547
-1.93524
-2.15402
-2.20956
-2.55791
-2.56627
-3.00382
-3.17418
-3.36645
-3.38364
-3.44167
-3.39606
-3.37152
-3.29263
-3.21483
-3.11013
-3.00274
-2.89028
-2.80501
-2.74417
-2.6962
-2.68308
-2.68089
-2.69116
-2.69884
-0.39148
-0.397163
-0.425973
-0.483047
-0.534473
-0.598002
-0.684067
-0.772623
-0.901241
-1.03577
-1.175
-1.32351
-1.48126
-1.6615
-1.81739
-2.02275
-2.1517
-2.35662
-2.48516
-2.78764
-2.82438
-3.27
-3.44907
-3.62151
-3.64338
-3.69727
-3.65282
-3.63477
-3.54723
-3.47634
-3.35734
-3.23784
-3.10692
-3.00816
-2.91956
-2.80508
-2.78423
-2.76802
-2.77627
-2.78558
-0.428264
-0.414386
-0.459148
-0.510621
-0.601161
-0.67467
-0.803425
-0.894006
-1.02094
-1.15967
-1.31378
-1.50035
-1.67581
-1.88358
-2.0527
-2.25426
-2.399
-2.61718
-2.7005
-3.01566
-3.08328
-3.46064
-3.65709
-3.81288
-3.84319
-3.89684
-3.86439
-3.84978
-3.77801
-3.70716
-3.58326
-3.45798
-3.29128
-3.16147
-3.05065
-2.91971
-2.86943
-2.85539
-2.86003
-2.87045
-0.455162
-0.445262
-0.491598
-0.560924
-0.652573
-0.753413
-0.889356
-0.95671
-1.13828
-1.30131
-1.4829
-1.68279
-1.8774
-2.06954
-2.25254
-2.45656
-2.61069
-2.81952
-2.94214
-3.18114
-3.32627
-3.56027
-3.81904
-3.97419
-4.01776
-4.07256
-4.04927
-4.04538
-3.97985
-3.91884
-3.80712
-3.67115
-3.51099
-3.34313
-3.23837
-3.06303
-2.99257
-2.96488
-2.96472
-2.97734
-0.489278
-0.468768
-0.53526
-0.613644
-0.734717
-0.86683
-0.981354
-1.13956
-1.27073
-1.48694
-1.66101
-1.87185
-2.04894
-2.25906
-2.43985
-2.63893
-2.80471
-3.00914
-3.16367
-3.3458
-3.5279
-3.66697
-3.95684
-4.13415
-4.18867
-4.24772
-4.2345
-4.22823
-4.18282
-4.1235
-4.00353
-3.86137
-3.6907
-3.50478
-3.36958
-3.21875
-3.09692
-3.06802
-3.05696
-3.07336
-0.549106
-0.539426
-0.607654
-0.71056
-0.846988
-0.975216
-1.1254
-1.29119
-1.46303
-1.64577
-1.79961
-2.03089
-2.21221
-2.40691
-2.59058
-2.78144
-2.94437
-3.13121
-3.29017
-3.48232
-3.66816
-3.80272
-4.06565
-4.30336
-4.37184
-4.43309
-4.4298
-4.43029
-4.38858
-4.31706
-4.21511
-4.07485
-3.89964
-3.70974
-3.54888
-3.39664
-3.25324
-3.2063
-3.18942
-3.20845
-0.602286
-0.588725
-0.675652
-0.788346
-0.947058
-1.07538
-1.24849
-1.43286
-1.61081
-1.80936
-1.98055
-2.18513
-2.31556
-2.55409
-2.72575
-2.91972
-3.08459
-3.25753
-3.39713
-3.58845
-3.75276
-3.91325
-4.19518
-4.48855
-4.55486
-4.63399
-4.62082
-4.63755
-4.58325
-4.52841
-4.40773
-4.27058
-4.0898
-3.8772
-3.6883
-3.54371
-3.39114
-3.31602
-3.29882
-3.31582
-0.708273
-0.699176
-0.787837
-0.920998
-1.06711
-1.22493
-1.3969
-1.59064
-1.7772
-1.96612
-2.14136
-2.34374
-2.51867
-2.65392
-2.87788
-3.05238
-3.23004
-3.40725
-3.52729
-3.75509
-3.89577
-4.06301
-4.3798
-4.69216
-4.76991
-4.83825
-4.85084
-4.851
-4.81499
-4.73768
-4.63342
-4.47658
-4.26191
-4.06638
-3.85294
-3.72506
-3.56264
-3.49185
-3.45637
-3.47911
-0.785468
-0.773875
-0.874732
-1.0053
-1.17356
-1.33474
-1.53159
-1.7135
-1.90043
-2.08888
-2.27073
-2.46446
-2.6363
-2.8425
-2.96764
-3.19782
-3.38569
-3.5636
-3.67877
-3.92465
-4.06088
-4.22462
-4.61324
-4.90613
-4.97619
-5.05209
-5.0582
-5.06257
-5.01106
-4.95466
-4.80544
-4.64473
-4.50288
-4.30669
-4.07665
-3.86606
-3.70916
-3.60862
-3.56872
-3.5881
-0.923658
-0.914432
-1.0104
-1.14797
-1.31566
-1.48675
-1.67974
-1.8676
-2.048
-2.23495
-2.41419
-2.61425
-2.8003
-2.9868
-3.19634
-3.314
-3.5604
-3.73208
-3.86212
-4.10707
-4.22753
-4.40729
-4.81431
-5.07361
-5.18113
-5.26883
-5.28555
-5.28464
-5.25502
-5.12018
-5.02472
-4.91149
-4.75084
-4.5517
-4.3247
-4.11604
-3.90474
-3.81543
-3.75541
-3.78121
-1.01993
-1.01098
-1.11493
-1.25454
-1.43375
-1.6009
-1.79594
-1.96303
-2.14287
-2.3268
-2.51295
-2.70683
-2.91119
-3.12239
-3.34311
-3.50131
-3.76544
-3.93769
-4.08347
-4.30143
-4.44586
-4.65408
-4.99899
-5.21855
-5.40315
-5.49457
-5.51201
-5.51452
-5.40374
-5.33585
-5.23379
-5.11657
-4.95256
-4.75344
-4.52677
-4.29388
-4.10019
-3.91609
-3.87525
-3.89365
-1.16187
-1.15225
-1.24865
-1.38741
-1.56178
-1.72664
-1.90644
-2.07371
-2.25731
-2.44956
-2.65701
-2.87433
-3.10837
-3.33856
-3.55943
-3.79354
-3.95232
-4.17046
-4.35961
-4.54411
-4.70241
-4.94866
-5.17294
-5.38931
-5.5644
-5.70051
-5.73569
-5.70787
-5.63415
-5.57644
-5.50121
-5.37614
-5.22174
-5.03183
-4.80723
-4.57636
-4.34878
-4.22966
-4.08665
-4.11047
-1.23001
-1.24407
-1.35082
-1.49848
-1.6784
-1.8588
-2.0289
-2.18505
-2.35578
-2.54907
-2.76193
-2.99887
-3.26768
-3.52708
-3.76485
-4.00266
-4.23144
-4.43956
-4.64864
-4.86074
-5.04325
-5.22267
-5.39146
-5.55867
-5.71568
-5.89485
-5.93314
-5.86549
-5.83972
-5.75098
-5.6413
-5.5052
-5.3516
-5.16836
-4.95458
-4.72365
-4.50302
-4.35499
-4.21837
-4.25258
-1.32887
-1.32496
-1.4117
-1.53892
-1.70415
-1.86423
-2.04317
-2.2101
-2.41567
-2.63704
-2.90076
-3.16807
-3.46792
-3.74054
-4.00913
-4.28335
-4.51702
-4.8694
-5.07512
-5.32148
-5.42607
-5.55826
-5.66642
-5.77155
-5.91399
-6.03381
-6.14874
-6.13937
-6.1085
-6.02226
-5.91461
-5.76241
-5.61374
-5.4418
-5.24704
-5.00481
-4.77115
-4.57408
-4.41986
-4.39903
-1.31628
-1.32486
-1.42547
-1.56148
-1.76569
-1.94722
-2.1297
-2.2686
-2.4137
-2.64758
-2.9655
-3.34143
-3.70027
-4.0324
-4.33001
-4.61477
-4.98348
-5.37249
-5.58101
-5.78991
-5.89881
-5.95623
-6.01828
-6.06183
-6.11766
-6.18597
-6.26056
-6.24904
-6.11804
-5.97899
-5.89703
-5.75206
-5.62794
-5.48749
-5.31978
-5.02676
-4.87955
-4.75551
-4.66893
-4.65094
-1.39115
-1.33306
-1.38197
-1.45172
-1.58426
-1.69785
-1.82881
-1.98524
-2.34239
-2.73503
-3.19138
-3.6646
-4.10499
-4.454
-4.7659
-5.12277
-5.45925
-5.81921
-6.13564
-6.26433
-6.36522
-6.38526
-6.41375
-6.40465
-6.43776
-6.51666
-6.53418
-6.5158
-6.51223
-6.39202
-6.16108
-5.94018
-5.76392
-5.58153
-5.38636
-5.236
-4.96394
-4.75289
-4.5138
-4.51963
-1.50038
-1.50721
-1.55117
-1.65383
-1.80543
-1.95304
-2.08054
-2.1867
-2.49173
-2.86077
-3.32378
-3.84014
-4.32209
-4.72838
-5.1266
-5.49607
-5.88152
-6.28503
-6.56586
-6.76498
-6.83853
-6.77959
-6.79189
-6.75176
-6.76861
-6.70403
-6.60931
-6.50811
-6.3376
-6.03847
-5.85388
-5.74354
-5.76019
-5.80429
-5.75497
-5.56328
-5.41278
-5.19575
-5.07584
-4.95339
-1.58417
-1.5823
-1.61335
-1.68887
-1.81638
-1.95314
-2.09879
-2.20849
-2.54619
-2.97201
-3.50412
-4.09807
-4.61539
-5.06347
-5.50806
-5.91914
-6.31745
-6.67411
-7.00688
-7.18026
-7.23219
-7.15057
-7.13322
-7.05286
-6.94819
-6.80076
-6.71452
-6.56902
-6.44177
-6.1686
-5.92915
-5.62293
-5.34694
-5.00456
-4.77251
-4.64675
-4.54993
-4.47848
-4.4179
-4.42376
-1.70941
-1.71908
-1.74548
-1.82236
-1.96228
-2.09183
-2.23231
-2.34133
-2.65128
-3.08775
-3.66063
-4.27543
-4.79688
-5.2793
-5.76603
-6.21215
-6.64954
-6.99719
-7.32721
-7.52214
-7.57201
-7.45183
-7.40071
-7.23498
-7.1022
-6.8956
-6.77061
-6.57601
-6.42543
-6.18976
-5.97311
-5.71044
-5.54247
-5.25475
-4.98701
-4.69714
-4.48792
-4.2538
-4.17624
-4.24229
-1.8133
-1.80885
-1.8533
-1.90981
-2.04152
-2.17634
-2.31417
-2.44915
-2.7182
-3.18921
-3.79365
-4.38106
-4.91434
-5.41661
-5.93197
-6.40717
-6.85835
-7.20539
-7.47084
-7.71745
-7.75053
-7.61746
-7.45707
-7.29651
-7.1437
-6.92188
-6.76083
-6.5437
-6.37576
-6.11543
-5.91586
-5.61222
-5.3832
-5.06425
-4.85412
-4.60179
-4.4121
-4.18005
-4.02632
-4.10952
-1.94979
-1.94219
-1.98542
-2.03002
-2.14809
-2.27068
-2.41787
-2.53985
-2.80472
-3.24988
-3.85295
-4.42901
-4.95263
-5.44991
-5.96223
-6.43748
-6.90375
-7.24286
-7.47685
-7.79284
-7.90586
-7.59999
-7.53297
-7.2838
-7.06667
-6.88481
-6.74623
-6.4932
-6.35347
-6.09966
-5.94971
-5.69585
-5.55364
-5.28391
-5.13075
-4.86854
-4.70522
-4.44427
-4.28405
-4.30982
-2.06011
-2.02859
-2.0897
-2.11701
-2.21939
-2.34842
-2.48077
-2.62963
-2.89696
-3.32649
-3.86552
-4.36452
-4.86233
-5.32131
-5.8252
-6.29623
-6.78758
-7.11338
-7.41744
-7.72274
-7.8546
-7.5653
-7.47617
-7.23995
-7.05449
-6.72533
-6.60646
-6.37395
-6.19988
-5.91899
-5.72403
-5.39831
-5.21026
-4.89913
-4.7585
-4.50631
-4.38424
-4.19029
-4.05005
-4.10763
-2.19947
-2.16813
-2.22257
-2.24439
-2.32826
-2.43967
-2.57105
-2.72484
-3.00419
-3.40138
-3.87724
-4.32681
-4.78012
-5.21052
-5.65996
-6.04997
-6.455
-6.85255
-7.20742
-7.56382
-7.74036
-7.54332
-7.36871
-7.13512
-6.97095
-6.68262
-6.49756
-6.27931
-6.1921
-5.91987
-5.87319
-5.68743
-5.67462
-5.45971
-5.38803
-5.10924
-4.94632
-4.63167
-4.38781
-4.17513
-2.28229
-2.25449
-2.31636
-2.32732
-2.38402
-2.48725
-2.59355
-2.75534
-3.03701
-3.38258
-3.80407
-4.20428
-4.63608
-5.03251
-5.48104
-5.85309
-6.22232
-6.54893
-6.96757
-7.27176
-7.38049
-7.32025
-7.20532
-6.98023
-6.80849
-6.56916
-6.3949
-6.13356
-6.09957
-5.91528
-5.85517
-5.58714
-5.52423
-5.27884
-5.29622
-5.11684
-5.16206
-5.02083
-5.05785
-5.11363
-2.42704
-2.40445
-2.43175
-2.45772
-2.50746
-2.55956
-2.68461
-2.83097
-3.09705
-3.4005
-3.77046
-4.12144
-4.50775
-4.87323
-5.24442
-5.57973
-5.95691
-6.27095
-6.4921
-6.7922
-6.98925
-7.01242
-6.93879
-6.79828
-6.66217
-6.46701
-6.29727
-6.07195
-6.01309
-5.81356
-5.73306
-5.44887
-5.39725
-5.11566
-5.12042
-4.88998
-4.90883
-4.68008
-4.68288
-4.51232
-2.47519
-2.45631
-2.47358
-2.49492
-2.54054
-2.57111
-2.68905
-2.82498
-3.07853
-3.33234
-3.66627
-3.96923
-4.33153
-4.63659
-5.00084
-5.34906
-5.70453
-5.95328
-6.19392
-6.36314
-6.59445
-6.60134
-6.58631
-6.46083
-6.36407
-6.23316
-6.08108
-5.87224
-5.81897
-5.62055
-5.47877
-5.18022
-5.14908
-4.82257
-4.86281
-4.56425
-4.62065
-4.32262
-4.3091
-4.17527
-2.63155
-2.62501
-2.62413
-2.65411
-2.67651
-2.6816
-2.78547
-2.9022
-3.11927
-3.34355
-3.6276
-3.89022
-4.19296
-4.47336
-4.80274
-5.15001
-5.39071
-5.68184
-5.84497
-5.98606
-6.17826
-6.23253
-6.22697
-6.17127
-6.0292
-6.05488
-5.73002
-5.71381
-5.57297
-5.46268
-5.32773
-5.03223
-5.05052
-4.65268
-4.73871
-4.37777
-4.41067
-4.01763
-3.92649
-3.69201
-2.63308
-2.62172
-2.62632
-2.61377
-2.66854
-2.65582
-2.75282
-2.83449
-3.04637
-3.2286
-3.50579
-3.72912
-4.03138
-4.2797
-4.62947
-4.84316
-5.09929
-5.34618
-5.47577
-5.57896
-5.72349
-5.85278
-5.83425
-5.79745
-5.72329
-5.71732
-5.39588
-5.53259
-5.30746
-5.18934
-5.10153
-4.87234
-4.84456
-4.4263
-4.49891
-4.03385
-4.14435
-3.60743
-3.50909
-3.08822
-2.80198
-2.80208
-2.79225
-2.76803
-2.78094
-2.76589
-2.85405
-2.90281
-3.08114
-3.22491
-3.46319
-3.6406
-3.92217
-4.19009
-4.41689
-4.64534
-4.84271
-5.04602
-5.1442
-5.25179
-5.38645
-5.56105
-5.507
-5.47488
-5.40064
-5.45605
-5.10019
-5.35137
-5.07325
-4.99004
-4.97036
-4.64411
-4.78254
-4.28799
-4.42958
-3.85949
-3.94051
-3.32193
-3.12303
-2.46274
-2.7525
-2.72949
-2.74796
-2.67949
-2.71159
-2.64324
-2.77691
-2.78573
-2.95618
-3.08755
-3.29236
-3.49355
-3.76541
-3.97085
-4.21664
-4.40875
-4.57443
-4.76747
-4.84341
-4.94725
-5.00762
-5.2454
-5.14076
-5.13449
-5.0945
-5.12362
-4.8274
-5.14885
-4.83642
-4.84245
-4.75668
-4.45831
-4.55917
-4.1091
-4.26429
-3.59917
-3.70621
-2.77565
-2.6711
-1.56529
-2.93946
-2.94975
-2.91934
-2.87294
-2.86428
-2.76901
-2.85083
-2.85295
-2.98427
-3.06477
-3.27131
-3.42903
-3.65763
-3.85281
-4.06229
-4.24886
-4.39191
-4.56913
-4.64205
-4.7077
-4.79306
-5.01371
-4.89647
-4.86192
-4.83272
-4.82278
-4.59104
-4.93886
-4.71528
-4.61981
-4.70192
-4.31525
-4.5362
-3.95626
-4.26821
-3.53318
-3.72682
-2.5005
-2.33076
-0.6479
-2.86524
-2.78093
-2.81915
-2.68455
-2.72617
-2.58725
-2.68806
-2.68174
-2.79611
-2.89702
-3.08894
-3.23462
-3.45111
-3.63234
-3.83581
-4.02702
-4.16803
-4.36128
-4.40983
-4.45148
-4.54566
-4.74444
-4.62056
-4.56133
-4.52766
-4.49834
-4.39089
-4.72479
-4.59545
-4.48637
-4.57161
-4.11436
-4.41726
-3.77201
-4.07065
-3.25131
-3.53106
-1.87562
-1.74877
1.04945
-3.05845
-3.13073
-3.01352
-2.9752
-2.85322
-2.77807
-2.72233
-2.71781
-2.79859
-2.87263
-3.03921
-3.16573
-3.3554
-3.51219
-3.70288
-3.88509
-4.0581
-4.23868
-4.32876
-4.37305
-4.4249
-4.59121
-4.46321
-4.35535
-4.30926
-4.21646
-4.24085
-4.52652
-4.483
-4.36723
-4.53648
-4.08523
-4.38406
-3.69579
-4.17581
-3.13304
-3.71285
-1.65422
-1.33522
2.78616
-3.36297
-2.91066
-3.00073
-2.65279
-2.68109
-2.48516
-2.48578
-2.49384
-2.58124
-2.66466
-2.84033
-2.962
-3.16134
-3.31721
-3.5193
-3.71262
-3.90066
-4.10253
-4.18372
-4.22205
-4.24742
-4.3689
-4.22256
-4.10345
-4.0732
-3.9556
-4.14325
-4.34572
-4.4887
-4.28634
-4.48529
-3.96378
-4.25503
-3.44686
-3.91517
-2.56182
-3.04233
-0.443755
0.158196
7.33198
-3.22207
-3.47737
-3.2661
-3.21606
-2.76677
-2.67695
-2.51372
-2.48261
-2.54446
-2.60448
-2.75421
-2.86823
-3.05235
-3.20276
-3.39773
-3.59348
-3.80176
-4.01026
-4.19579
-4.14557
-4.21099
-4.26746
-4.10981
-3.93146
-3.93301
-3.75624
-4.06208
-4.19088
-4.32207
-4.20235
-4.44697
-3.94194
-4.3159
-3.46696
-4.01467
-2.61355
-3.22977
0.346912
1.94734
11.4954
-5.76207
-2.99226
-3.27598
-2.81485
-2.67673
-2.40473
-2.37542
-2.33944
-2.42974
-2.5073
-2.68201
-2.79203
-2.98021
-3.1259
-3.32136
-3.51518
-3.76704
-3.97687
-4.16333
-4.06028
-4.06442
-4.09496
-3.84696
-3.67765
-3.79439
-3.71585
-4.18821
-4.31351
-4.45179
-4.24509
-4.43115
-3.81666
-4.1347
-3.25251
-3.60375
-1.77685
-1.49669
4.48015
9.45861
24.5462
-0.113408
-0.228609
-0.333919
-0.424217
-0.504082
-0.576088
-0.646923
-0.717586
-0.790963
-0.872132
-0.918641
-1.03799
-1.11917
-1.24139
-1.31728
-1.45949
-1.49804
-1.67724
-1.68688
-1.97602
-1.84996
-2.17
-2.22831
-2.33313
-2.27909
-2.29855
-2.22838
-2.22412
-2.18719
-2.19349
-2.20291
-2.22399
-2.30051
-2.33782
-2.3999
-2.43007
-2.47237
-2.49385
-2.51817
-2.52444
-0.219362
-0.284816
-0.361824
-0.438497
-0.508735
-0.577345
-0.63668
-0.709081
-0.745027
-0.83859
-0.890541
-1.01356
-1.07557
-1.18859
-1.25254
-1.3879
-1.4457
-1.62299
-1.60156
-1.88657
-1.86429
-2.16073
-2.23166
-2.35065
-2.30706
-2.34904
-2.29344
-2.3013
-2.27045
-2.26793
-2.27381
-2.29691
-2.30041
-2.335
-2.39345
-2.4271
-2.47343
-2.49372
-2.52149
-2.52376
-0.301975
-0.334201
-0.389753
-0.4509
-0.517207
-0.574999
-0.638216
-0.685026
-0.770068
-0.845798
-0.915168
-1.01041
-1.09659
-1.22812
-1.32635
-1.49395
-1.54888
-1.72839
-1.74116
-2.06217
-2.11023
-2.45866
-2.61822
-2.78388
-2.76964
-2.82916
-2.78517
-2.78701
-2.73356
-2.68759
-2.62101
-2.55638
-2.5311
-2.51211
-2.51323
-2.50508
-2.53421
-2.54436
-2.56555
-2.57011
-0.350247
-0.37111
-0.410842
-0.464864
-0.515028
-0.571191
-0.62579
-0.689586
-0.755785
-0.844029
-0.929735
-1.05036
-1.16765
-1.32964
-1.43649
-1.61582
-1.70521
-1.91677
-1.97032
-2.31881
-2.437
-2.8309
-3.02475
-3.20098
-3.19554
-3.24956
-3.19508
-3.1666
-3.08223
-2.999
-2.90047
-2.78897
-2.70043
-2.62969
-2.61919
-2.59347
-2.61408
-2.60773
-2.62312
-2.62816
-0.381487
-0.391944
-0.43144
-0.474263
-0.541861
-0.571681
-0.645059
-0.720149
-0.810659
-0.914867
-1.03174
-1.18537
-1.32306
-1.49441
-1.64052
-1.8477
-1.96797
-2.1942
-2.29834
-2.62193
-2.73843
-3.14337
-3.35406
-3.51777
-3.5074
-3.56586
-3.50696
-3.47913
-3.37424
-3.2713
-3.14096
-3.03083
-2.91689
-2.81671
-2.74912
-2.7056
-2.69387
-2.68821
-2.69417
-2.70165
-0.410251
-0.41935
-0.455176
-0.507974
-0.545192
-0.591934
-0.678388
-0.773679
-0.900049
-1.03093
-1.17091
-1.32537
-1.48738
-1.68198
-1.84539
-2.06732
-2.21514
-2.42123
-2.51752
-2.82743
-2.96959
-3.37847
-3.58666
-3.74881
-3.75002
-3.77959
-3.72778
-3.67755
-3.61112
-3.50185
-3.37647
-3.22787
-3.10593
-3.00908
-2.91283
-2.82211
-2.7997
-2.78196
-2.78194
-2.79148
-0.43919
-0.442783
-0.485859
-0.530392
-0.599288
-0.649621
-0.77103
-0.90151
-1.01103
-1.15278
-1.3096
-1.50082
-1.68457
-1.88475
-2.06911
-2.26612
-2.42571
-2.63997
-2.74328
-3.00147
-3.15571
-3.52147
-3.73218
-3.89034
-3.89752
-3.937
-3.89553
-3.86961
-3.77656
-3.69513
-3.56264
-3.41989
-3.27021
-3.13586
-3.04664
-2.92682
-2.88009
-2.86457
-2.86157
-2.87232
-0.470932
-0.476826
-0.523837
-0.581396
-0.656396
-0.725331
-0.87903
-0.958251
-1.12698
-1.29672
-1.47741
-1.68095
-1.87132
-2.07525
-2.25092
-2.46002
-2.61506
-2.81623
-2.93998
-3.1469
-3.32313
-3.59995
-3.83926
-4.01303
-4.04844
-4.09433
-4.07105
-4.04994
-3.98605
-3.88763
-3.7655
-3.63216
-3.47319
-3.32562
-3.21138
-3.08383
-3.01156
-2.98635
-2.97336
-2.98409
-0.503327
-0.506734
-0.567557
-0.634456
-0.731216
-0.837339
-0.961793
-1.12231
-1.27083
-1.46422
-1.64779
-1.84597
-2.03964
-2.24423
-2.42388
-2.6174
-2.77959
-2.97632
-3.12287
-3.30016
-3.46896
-3.68239
-3.94494
-4.14885
-4.20718
-4.2664
-4.25268
-4.24116
-4.15626
-4.07448
-3.96199
-3.79428
-3.65712
-3.43995
-3.3387
-3.19358
-3.11459
-3.07074
-3.06403
-3.07379
-0.564677
-0.569747
-0.641181
-0.739506
-0.83844
-0.94031
-1.10478
-1.27232
-1.43918
-1.6358
-1.80066
-2.01768
-2.19777
-2.39368
-2.56989
-2.75293
-2.90643
-3.08736
-3.24776
-3.43719
-3.60276
-3.7959
-4.06093
-4.29908
-4.39357
-4.4498
-4.46114
-4.42738
-4.36846
-4.2391
-4.14275
-4.07502
-3.90544
-3.76533
-3.53182
-3.38359
-3.25854
-3.22526
-3.19798
-3.21444
-0.615827
-0.620334
-0.710858
-0.809198
-0.958172
-1.04416
-1.22885
-1.39487
-1.56246
-1.7679
-1.963
-2.17046
-2.33705
-2.53596
-2.7155
-2.89361
-3.04385
-3.20367
-3.34635
-3.52775
-3.69145
-3.90669
-4.20384
-4.49333
-4.58715
-4.65789
-4.64625
-4.64018
-4.50827
-4.48798
-4.40044
-4.23664
-4.0824
-3.85969
-3.6994
-3.50367
-3.37306
-3.32656
-3.30379
-3.31611
-0.722869
-0.732326
-0.828081
-0.954362
-1.07458
-1.22011
-1.3667
-1.55562
-1.73447
-1.90765
-2.04229
-2.33757
-2.49546
-2.67544
-2.86224
-3.0444
-3.19571
-3.35075
-3.48543
-3.6695
-3.82991
-4.05241
-4.37881
-4.69724
-4.80026
-4.86239
-4.87116
-4.82317
-4.78381
-4.72342
-4.57448
-4.45997
-4.29777
-4.17066
-3.94532
-3.75037
-3.52985
-3.48144
-3.46255
-3.48018
-0.804302
-0.809584
-0.919735
-1.03983
-1.19681
-1.33797
-1.51676
-1.66932
-1.83112
-2.0394
-2.21265
-2.40134
-2.56105
-2.82026
-3.00566
-3.20924
-3.36845
-3.51687
-3.64761
-3.83238
-3.99632
-4.22445
-4.6139
-4.91162
-5.01486
-5.07977
-5.06976
-5.01524
-5.00961
-4.9042
-4.84883
-4.72441
-4.53762
-4.3
-4.09114
-3.90995
-3.72366
-3.55784
-3.57457
-3.58208
-0.942248
-0.94633
-1.05278
-1.18335
-1.34036
-1.49706
-1.67253
-1.84035
-2.00329
-2.18466
-2.32446
-2.56664
-2.72574
-2.9064
-3.19659
-3.39587
-3.55945
-3.70088
-3.83472
-4.01398
-4.17026
-4.4074
-4.76986
-5.06292
-5.20133
-5.29813
-5.23958
-5.28297
-5.22448
-5.18695
-5.09507
-4.95596
-4.77289
-4.57452
-4.31575
-4.12365
-3.9573
-3.80007
-3.73843
-3.79017
-1.04545
-1.04604
-1.15716
-1.29314
-1.46527
-1.62688
-1.81165
-1.95786
-2.12071
-2.30035
-2.47383
-2.66035
-2.83
-3.06525
-3.32888
-3.59731
-3.77196
-3.91415
-4.05327
-4.2199
-4.39151
-4.61548
-4.96463
-5.22576
-5.43723
-5.52455
-5.55039
-5.51383
-5.43539
-5.40032
-5.29068
-5.15647
-4.98059
-4.76292
-4.5082
-4.2852
-4.08305
-3.9763
-3.81247
-3.89973
-1.17544
-1.17801
-1.28773
-1.42617
-1.60033
-1.76119
-1.92565
-2.0826
-2.25235
-2.43484
-2.62622
-2.85348
-3.08082
-3.28343
-3.48886
-3.85482
-3.994
-4.15485
-4.31196
-4.48483
-4.65047
-4.90122
-5.16849
-5.43119
-5.59423
-5.74486
-5.7452
-5.70759
-5.71462
-5.63587
-5.54016
-5.41242
-5.24693
-5.04919
-4.79903
-4.5604
-4.32376
-4.22728
-4.06493
-4.11271
-1.28306
-1.29372
-1.40681
-1.55694
-1.74452
-1.88964
-2.06025
-2.20251
-2.36566
-2.54731
-2.75423
-2.97395
-3.23967
-3.51127
-3.73432
-4.00086
-4.24509
-4.4382
-4.61992
-4.81652
-5.01003
-5.20347
-5.4156
-5.61259
-5.75651
-5.9391
-6.01355
-6.00723
-5.92924
-5.81895
-5.70101
-5.55704
-5.39833
-5.20362
-4.97294
-4.72966
-4.503
-4.34354
-4.21417
-4.20774
-1.33553
-1.35257
-1.44701
-1.59688
-1.76721
-1.92568
-2.08166
-2.23569
-2.41849
-2.6298
-2.88447
-3.15596
-3.44567
-3.73367
-3.98663
-4.30738
-4.56357
-4.85224
-5.06192
-5.28047
-5.43195
-5.57353
-5.72314
-5.8655
-6.0828
-6.14543
-6.25688
-6.23306
-6.17388
-6.06834
-5.95348
-5.80939
-5.65824
-5.48567
-5.26545
-5.03076
-4.73848
-4.59343
-4.47617
-4.42789
-1.36509
-1.4036
-1.48429
-1.6437
-1.8139
-1.98828
-2.12839
-2.26441
-2.42076
-2.65082
-2.96262
-3.31817
-3.66281
-3.97934
-4.31617
-4.59152
-5.09615
-5.37943
-5.58566
-5.77511
-5.90632
-5.98512
-6.06507
-6.12905
-6.29614
-6.32942
-6.35577
-6.33546
-6.2491
-6.11702
-6.00001
-5.84645
-5.70917
-5.55219
-5.36849
-5.16779
-4.93694
-4.70916
-4.68936
-4.66614
-1.35031
-1.36122
-1.41661
-1.52137
-1.65383
-1.77537
-1.86811
-2.02045
-2.33789
-2.70644
-3.14391
-3.62322
-4.06098
-4.42063
-4.74894
-5.11546
-5.47326
-5.93673
-6.15082
-6.2919
-6.38731
-6.43656
-6.44939
-6.48849
-6.58977
-6.56873
-6.55412
-6.47783
-6.39901
-6.26873
-6.12416
-5.94645
-5.81459
-5.6767
-5.48527
-5.29618
-4.9903
-4.74252
-4.58522
-4.54794
-1.52721
-1.48847
-1.53667
-1.63384
-1.79242
-1.9134
-2.01549
-2.14693
-2.43727
-2.80417
-3.2676
-3.79534
-4.2902
-4.71506
-5.14963
-5.52371
-5.94719
-6.36088
-6.6836
-6.80543
-6.88055
-6.85732
-6.85708
-6.89536
-6.78602
-6.73444
-6.67179
-6.54119
-6.36222
-6.08912
-5.86631
-5.6956
-5.65101
-5.64108
-5.62439
-5.46428
-5.26304
-5.07755
-4.9761
-5.03246
-1.58864
-1.55402
-1.59526
-1.66806
-1.82793
-1.92517
-2.05368
-2.17363
-2.49303
-2.91468
-3.4491
-4.05244
-4.59939
-5.07038
-5.53639
-5.96418
-6.39072
-6.78926
-7.10798
-7.28967
-7.27961
-7.25321
-7.16988
-7.10416
-7.00438
-6.87182
-6.76864
-6.60877
-6.43773
-6.15259
-5.91242
-5.62447
-5.37608
-5.06996
-4.80043
-4.64253
-4.52152
-4.40838
-4.36881
-4.48597
-1.71059
-1.69242
-1.73128
-1.81172
-1.9497
-2.09549
-2.21372
-2.32422
-2.60422
-3.03558
-3.60135
-4.23878
-4.79325
-5.30084
-5.80718
-6.26984
-6.72867
-7.09226
-7.4679
-7.64162
-7.70358
-7.51676
-7.53963
-7.33122
-7.17638
-6.96385
-6.82225
-6.61571
-6.4499
-6.18802
-5.95666
-5.68167
-5.4853
-5.19088
-4.90042
-4.63086
-4.42446
-4.22509
-4.06921
-4.1335
-1.80647
-1.79841
-1.83717
-1.90196
-2.03392
-2.20044
-2.29935
-2.41472
-2.66522
-3.1167
-3.72443
-4.34693
-4.9143
-5.43668
-5.96456
-6.45357
-6.92707
-7.29693
-7.64002
-7.89235
-7.90491
-7.76594
-7.55064
-7.38122
-7.23515
-6.9913
-6.81278
-6.57288
-6.40097
-6.12598
-5.91891
-5.59842
-5.34792
-5.00447
-4.77742
-4.52547
-4.33853
-4.11071
-3.89406
-3.99132
-1.94417
-1.93879
-1.97669
-2.0334
-2.14761
-2.2951
-2.40402
-2.52365
-2.76042
-3.19517
-3.78593
-4.38054
-4.94101
-5.45823
-5.98595
-6.48148
-6.97343
-7.35752
-7.66892
-7.95382
-8.04232
-7.84337
-7.70227
-7.35968
-7.16735
-6.94627
-6.7965
-6.51507
-6.36355
-6.10126
-5.93649
-5.66717
-5.49854
-5.21608
-5.05775
-4.80603
-4.643
-4.38395
-4.15283
-4.20845
-2.0556
-2.03628
-2.08151
-2.11861
-2.21613
-2.3307
-2.45702
-2.58196
-2.8241
-3.23178
-3.77697
-4.3289
-4.8671
-5.35705
-5.8769
-6.36507
-6.86088
-7.23329
-7.57644
-7.78689
-7.91918
-7.82143
-7.59926
-7.34659
-7.10062
-6.87239
-6.5688
-6.40133
-6.22265
-5.91751
-5.71178
-5.37431
-5.18634
-4.85965
-4.722
-4.4563
-4.33873
-4.08735
-3.92702
-4.00901
-2.19207
-2.17694
-2.21616
-2.24835
-2.32621
-2.42745
-2.5481
-2.66242
-2.91202
-3.29195
-3.79524
-4.28477
-4.76387
-5.21633
-5.69873
-6.15135
-6.60499
-6.99946
-7.32836
-7.53081
-7.78049
-7.71765
-7.50067
-7.2209
-7.08295
-6.66746
-6.54895
-6.21304
-6.15133
-5.88035
-5.82137
-5.62508
-5.60128
-5.38544
-5.33601
-5.06926
-4.93449
-4.65475
-4.41375
-4.2438
-2.28656
-2.26038
-2.29803
-2.32291
-2.38051
-2.45708
-2.5874
-2.69811
-2.96105
-3.31205
-3.74205
-4.15671
-4.59569
-5.01117
-5.47152
-5.88681
-6.31763
-6.70432
-6.99674
-7.27829
-7.47093
-7.3606
-7.28208
-7.07444
-6.87841
-6.65372
-6.35443
-6.16174
-6.02725
-5.89
-5.82116
-5.55846
-5.51487
-5.25966
-5.29103
-5.08454
-5.13685
-4.9958
-4.94465
-4.98753
-2.42924
-2.41098
-2.43913
-2.45847
-2.50648
-2.55244
-2.66972
-2.78603
-3.04799
-3.3431
-3.71436
-4.06902
-4.4648
-4.84465
-5.2608
-5.65668
-6.05812
-6.40101
-6.52285
-6.87162
-7.06994
-7.01261
-6.96694
-6.83378
-6.71167
-6.49459
-6.31755
-6.15845
-5.87512
-5.79422
-5.70838
-5.4699
-5.43298
-5.15463
-5.19429
-4.95063
-4.98597
-4.72464
-4.6598
-4.56032
-2.48298
-2.46097
-2.48583
-2.49311
-2.53999
-2.56384
-2.67341
-2.79199
-3.01262
-3.27795
-3.60344
-3.91535
-4.27859
-4.61769
-5.01906
-5.39426
-5.78576
-6.03521
-6.34958
-6.44397
-6.7087
-6.59674
-6.58932
-6.48515
-6.39479
-6.23848
-6.04384
-5.86437
-5.80807
-5.65295
-5.44635
-5.17379
-5.17914
-4.86147
-4.92156
-4.60873
-4.71334
-4.34306
-4.36153
-4.15425
-2.6406
-2.62722
-2.63918
-2.64679
-2.67241
-2.68298
-2.771
-2.85155
-3.06857
-3.27945
-3.57406
-3.83978
-4.15402
-4.45435
-4.79587
-5.13132
-5.4449
-5.69494
-5.90927
-6.12118
-6.16646
-6.20933
-6.2205
-6.15167
-6.06978
-5.97626
-5.73363
-5.72721
-5.55392
-5.38632
-5.34835
-5.0842
-5.06734
-4.65739
-4.82186
-4.43491
-4.56003
-4.09962
-4.06745
-3.71832
-2.64514
-2.62558
-2.64226
-2.62497
-2.65882
-2.65533
-2.7444
-2.81438
-2.99883
-3.1855
-3.44638
-3.68365
-3.97571
-4.24669
-4.57032
-4.8209
-5.08439
-5.41004
-5.55339
-5.67065
-5.71483
-5.83271
-5.82207
-5.78458
-5.72276
-5.67496
-5.45267
-5.51153
-5.30304
-5.15393
-5.07382
-4.87262
-4.92065
-4.43958
-4.54704
-4.11939
-4.34526
-3.76064
-3.79264
-3.24998
-2.81783
-2.81753
-2.80532
-2.78875
-2.78906
-2.77093
-2.84963
-2.89072
-3.03229
-3.19495
-3.42444
-3.64614
-3.87097
-4.10587
-4.31355
-4.56921
-4.81316
-5.03057
-5.13165
-5.27857
-5.37436
-5.52793
-5.49913
-5.46786
-5.40128
-5.4018
-5.17047
-5.30331
-5.11419
-4.96727
-4.95097
-4.64137
-4.78623
-4.29355
-4.57599
-3.95476
-4.21152
-3.59813
-3.64385
-2.82698
-2.76693
-2.74929
-2.77118
-2.67932
-2.73354
-2.64963
-2.77808
-2.78057
-2.94392
-3.04364
-3.27815
-3.46613
-3.7209
-3.94575
-4.18093
-4.39422
-4.58658
-4.7747
-4.84304
-4.95747
-5.0231
-5.19808
-5.15091
-5.13258
-5.07839
-5.11609
-4.90955
-5.07417
-4.90212
-4.7857
-4.75518
-4.43367
-4.54753
-4.13286
-4.33059
-3.82013
-4.05403
-3.16927
-3.49793
-2.18955
-2.95462
-2.97156
-2.94308
-2.90761
-2.85575
-2.79743
-2.85402
-2.86203
-2.97706
-3.0556
-3.24223
-3.39629
-3.61587
-3.81917
-4.01589
-4.21407
-4.40202
-4.56625
-4.63869
-4.71156
-4.78027
-4.96202
-4.88807
-4.86149
-4.79826
-4.79692
-4.65232
-4.85982
-4.76215
-4.63229
-4.70684
-4.28482
-4.54
-3.96556
-4.34409
-3.67049
-4.17617
-3.18173
-3.36867
-1.59529
-2.86419
-2.81378
-2.84866
-2.70554
-2.76614
-2.59533
-2.70741
-2.69901
-2.8266
-2.91233
-3.10886
-3.22562
-3.44509
-3.59928
-3.8114
-4.02174
-4.18417
-4.37102
-4.41401
-4.46461
-4.52033
-4.70274
-4.6093
-4.56428
-4.51072
-4.4532
-4.4216
-4.61222
-4.61035
-4.45981
-4.59202
-4.13568
-4.41769
-3.76552
-4.21366
-3.34023
-3.99495
-2.64819
-3.30897
-0.130887
-3.05543
-3.15023
-3.04205
-3.01928
-2.90048
-2.81978
-2.76681
-2.77869
-2.84498
-2.91855
-3.0646
-3.19509
-3.37822
-3.53634
-3.72884
-3.91945
-4.0945
-4.2642
-4.37552
-4.41925
-4.47997
-4.568
-4.46056
-4.37671
-4.27871
-4.15369
-4.24368
-4.38852
-4.46539
-4.32964
-4.54181
-4.09036
-4.43552
-3.73545
-4.30491
-3.29157
-4.08453
-2.39436
-3.24027
1.69364
-3.29659
-2.89153
-3.00905
-2.695
-2.71377
-2.55623
-2.53658
-2.54874
-2.64288
-2.72214
-2.90324
-3.01393
-3.21559
-3.37342
-3.5869
-3.80379
-3.97357
-4.19821
-4.31862
-4.30719
-4.34913
-4.44928
-4.23638
-4.09726
-4.07699
-3.90662
-4.12039
-4.2396
-4.44266
-4.24327
-4.50011
-3.95944
-4.33073
-3.52134
-4.07034
-2.76537
-3.40053
-1.00903
-0.844726
6.92978
-2.9951
-3.44179
-3.30224
-3.28527
-2.96596
-2.72977
-2.62921
-2.5782
-2.62535
-2.68164
-2.82739
-2.95543
-3.1433
-3.29442
-3.49573
-3.71612
-3.94866
-4.11311
-4.35635
-4.31762
-4.3681
-4.42819
-4.14898
-3.94881
-3.93361
-3.71545
-4.01694
-4.05679
-4.27975
-4.17689
-4.4595
-3.96181
-4.35639
-3.46482
-4.07853
-2.66669
-3.17548
0.341594
2.43347
14.0346
-5.61661
-2.87677
-3.14418
-2.74366
-2.64879
-2.43593
-2.40263
-2.37342
-2.47332
-2.55202
-2.7222
-2.82376
-3.01582
-3.18248
-3.41152
-3.64883
-3.92285
-4.18248
-4.33263
-4.17374
-4.19209
-4.18494
-3.85865
-3.65373
-3.76028
-3.63824
-4.13262
-4.1984
-4.3934
-4.22305
-4.46743
-3.81313
-4.14562
-3.21744
-3.59318
-1.68829
-1.11564
5.0418
12.5116
30.8924
-0.244645
-0.297771
-0.363821
-0.433445
-0.505208
-0.572887
-0.644753
-0.709109
-0.781608
-0.837405
-0.932439
-1.02766
-1.11584
-1.23685
-1.31721
-1.4474
-1.52653
-1.68664
-1.65888
-1.94081
-1.78279
-2.20717
-2.24977
-2.36235
-2.29825
-2.28791
-2.20264
-2.17551
-2.12931
-2.13398
-2.15724
-2.19695
-2.23344
-2.3222
-2.38962
-2.43462
-2.47799
-2.49197
-2.51661
-2.51685
-0.296142
-0.327158
-0.382882
-0.436871
-0.51108
-0.564859
-0.628908
-0.675402
-0.747447
-0.834078
-0.89354
-0.975886