/*--------------------------------*- C++ -*----------------------------------*\
| =========                 |                                                 |
| \\      /  F ield         | OpenFOAM: The Open Source CFD Toolbox           |
|  \\    /   O peration     | Version:  v1806                                 |
|   \\  /    A nd           | Web:      www.OpenFOAM.com                      |
|    \\/     M anipulation  |                                                 |
\*---------------------------------------------------------------------------*/
FoamFile
{
    version     2.0;
    format      ascii;
    class       volVectorField;
    location    "0.0285";
    object      U_0;
}
// * * * * * * * * * * * * * * * * * * * * * * * * * * * * * * * * * * * * * //

dimensions      [0 1 -1 0 0 0 0];


internalField   nonuniform List<vector> 
64000
(
(-0.00454156 -0.0065899 -0.00169368)
(0.0129465 -0.00783359 -0.00072317)
(0.0268702 -0.00500583 0.00217058)
(0.0345464 -0.00464355 0.00262804)
(0.0283841 -0.00344075 0.00325186)
(0.0213176 -0.00216477 0.00467868)
(0.0202481 -0.00276588 0.00450375)
(0.0161084 -0.00312537 0.00435139)
(0.0133969 -0.00438843 0.00541255)
(0.00785888 -0.00463367 0.00486106)
(-0.00110694 -0.00832016 0.00574772)
(-0.0190212 -0.0107588 0.00696215)
(-0.0417776 -0.0140825 0.00624197)
(-0.070105 -0.0155382 0.00449623)
(-0.105171 -0.0132509 0.00511763)
(-0.141338 -0.00454771 0.00393307)
(-0.182745 0.00576365 0.00367075)
(-0.218537 0.000476473 0.00507194)
(-0.255302 -0.0096769 0.0047045)
(-0.272443 -0.0203931 -0.00767108)
(-0.289382 -0.0367679 -0.0402066)
(-0.168882 -0.0230964 -0.0356352)
(-0.0815548 -0.0222727 -0.036314)
(-0.0979532 -0.00656834 -0.0367736)
(-0.0804762 -0.00169555 -0.050256)
(-0.085365 0.00891846 -0.0578991)
(-0.0655463 0.0180114 -0.0643363)
(-0.0417035 0.0301452 -0.0591446)
(-0.00841475 0.0398516 -0.048866)
(0.0356782 0.0542115 -0.0300152)
(0.0814018 0.0416881 -0.0309748)
(0.114566 0.0347768 -0.0211182)
(0.128416 0.0235767 -0.00901537)
(0.12412 0.0100262 -0.00216258)
(0.106663 0.00193756 0.00340544)
(0.0831691 -0.00530712 0.00543592)
(0.0591946 -0.00825164 0.00773715)
(0.037053 -0.00671728 0.00864039)
(0.0187492 -0.00509609 0.00877426)
(0.0039625 -0.00380955 0.00734703)
(-0.00310149 -0.0078069 -1.74195e-05)
(0.0134696 -0.0183201 -0.000324247)
(0.0363583 -0.0155329 0.00067283)
(0.0500464 -0.0118333 0.000539614)
(0.0485326 -0.00627782 0.000822052)
(0.0409123 -0.0020659 -0.000105329)
(0.0375079 0.00141349 -0.00193712)
(0.0294309 0.00415389 -0.00174908)
(0.020626 0.00777383 -0.00674172)
(0.00280408 0.0176045 -0.00367836)
(-0.0227605 0.0257463 -0.00717827)
(-0.0601079 0.0371422 0.00040749)
(-0.107297 0.0509774 -0.0030111)
(-0.161059 0.07124 -0.00547001)
(-0.221884 0.0793496 -0.00851119)
(-0.289822 0.0862297 -0.0201119)
(-0.386957 0.0913699 -0.0411909)
(-0.482859 0.0965175 -0.0554479)
(-0.560517 0.0996597 -0.0731806)
(-0.613141 0.106121 -0.0947977)
(-0.624857 0.10802 -0.118503)
(-0.487155 0.141198 -0.127114)
(-0.38722 0.165146 -0.148695)
(-0.383809 0.205549 -0.152942)
(-0.344924 0.227176 -0.163376)
(-0.313436 0.251734 -0.16944)
(-0.25373 0.269422 -0.171644)
(-0.187128 0.284924 -0.162605)
(-0.107567 0.294572 -0.140222)
(-0.042578 0.299628 -0.114948)
(0.0230311 0.284204 -0.0748023)
(0.0922498 0.253496 -0.0491899)
(0.124899 0.201044 -0.0386986)
(0.137868 0.154329 -0.0276977)
(0.129974 0.106558 -0.0137911)
(0.107286 0.0674563 -0.00600417)
(0.0843882 0.0401057 -0.00128891)
(0.0590953 0.0250923 0.000177684)
(0.0341424 0.0153363 0.00198317)
(0.00999856 0.00573916 0.00401852)
(-7.51207e-05 -0.0174725 0.00198602)
(0.0178188 -0.0277874 -0.000634207)
(0.0432992 -0.0225956 -0.000989181)
(0.058689 -0.0115032 0.000279651)
(0.0547615 -0.000530307 -0.00240941)
(0.0436961 0.0171921 -0.00307307)
(0.0351021 0.0297354 -0.0045444)
(0.0195255 0.0462732 -0.00746703)
(0.00595241 0.0724821 -0.00045285)
(-0.020343 0.0984618 -0.00444936)
(-0.0613121 0.126141 -0.00837556)
(-0.115468 0.155148 -0.012401)
(-0.178488 0.180589 -0.0174311)
(-0.267556 0.20066 -0.0296931)
(-0.372951 0.219633 -0.0328572)
(-0.467936 0.232089 -0.0442175)
(-0.562149 0.242579 -0.0571787)
(-0.643029 0.26838 -0.0713126)
(-0.711696 0.295954 -0.0880108)
(-0.752214 0.330586 -0.107113)
(-0.747626 0.361448 -0.122333)
(-0.587892 0.394689 -0.120402)
(-0.464331 0.436231 -0.132892)
(-0.447934 0.47902 -0.125542)
(-0.40289 0.506465 -0.125649)
(-0.367105 0.528582 -0.123243)
(-0.308527 0.53881 -0.11931)
(-0.24467 0.538594 -0.10876)
(-0.174512 0.528197 -0.0889791)
(-0.108344 0.504641 -0.0656225)
(-0.0529426 0.484067 -0.0427458)
(-0.0146544 0.43834 -0.0269096)
(0.0209642 0.375146 -0.0112192)
(0.0490964 0.303549 -0.00639003)
(0.0542712 0.230154 -0.00964678)
(0.0544887 0.166418 -0.00918217)
(0.050843 0.115147 -0.00674512)
(0.0414003 0.0768972 -0.00399936)
(0.0280608 0.0497502 -0.000354269)
(0.00938747 0.0206886 0.00343164)
(0.00020389 -0.0246275 0.0014755)
(0.0204953 -0.0329038 -0.00268809)
(0.0495432 -0.0207167 -0.00202607)
(0.0623877 -0.000591532 -0.00303765)
(0.0609587 0.0221439 -0.00519883)
(0.0456027 0.0599379 -0.00682875)
(0.0269104 0.0968319 -0.0061978)
(0.0125333 0.132968 -0.00331358)
(-0.0129893 0.171696 -0.00851758)
(-0.0607778 0.199412 -0.011217)
(-0.118099 0.226549 -0.015164)
(-0.193037 0.251085 -0.0218228)
(-0.281844 0.281611 -0.0254491)
(-0.367951 0.298989 -0.0267655)
(-0.453153 0.331179 -0.0308881)
(-0.536877 0.363394 -0.0406552)
(-0.617815 0.396659 -0.0490253)
(-0.685226 0.431803 -0.0552158)
(-0.7367 0.465614 -0.0617446)
(-0.763155 0.506577 -0.0686754)
(-0.746177 0.537102 -0.0671304)
(-0.568842 0.561448 -0.0483266)
(-0.431618 0.590438 -0.0505378)
(-0.414172 0.611742 -0.033536)
(-0.37533 0.620358 -0.0264834)
(-0.348901 0.621591 -0.0200911)
(-0.304869 0.610304 -0.016563)
(-0.258253 0.588542 -0.0118762)
(-0.206152 0.560949 -0.00165424)
(-0.15741 0.524482 0.00589469)
(-0.118304 0.48376 0.0113765)
(-0.0891208 0.440067 0.0127824)
(-0.0718404 0.396776 0.00910424)
(-0.0518049 0.341304 0.00309838)
(-0.0319706 0.27782 -0.00162527)
(-0.0156606 0.209079 -0.00690456)
(-0.000343476 0.145243 -0.00835795)
(0.0109554 0.107317 -0.00643375)
(0.0168645 0.0731315 -0.00236415)
(0.00776768 0.0292794 0.00282765)
(0.00149323 -0.0283393 0.000774069)
(0.0261959 -0.0288971 -0.00411027)
(0.0590905 -0.00930356 -0.00112221)
(0.0725273 0.0201835 -0.00353498)
(0.0742615 0.0570162 -0.00329905)
(0.0627557 0.107844 -0.0146995)
(0.0335814 0.159534 -0.00902035)
(-0.00323149 0.204941 -0.00405373)
(-0.0501915 0.238295 -0.006241)
(-0.111885 0.2699 -0.00933575)
(-0.17531 0.302317 -0.0129283)
(-0.237232 0.33209 -0.015523)
(-0.308968 0.370034 -0.0205427)
(-0.387461 0.408491 -0.0187491)
(-0.460654 0.448734 -0.0191654)
(-0.530293 0.486074 -0.0203849)
(-0.592942 0.521253 -0.0181117)
(-0.642587 0.558295 -0.0134258)
(-0.676253 0.594107 -0.0089118)
(-0.691285 0.633663 -0.0138126)
(-0.673123 0.660719 -0.00967805)
(-0.493123 0.674287 0.0148688)
(-0.355828 0.678183 0.0163458)
(-0.344185 0.671025 0.0354185)
(-0.31799 0.649841 0.0387145)
(-0.310594 0.625359 0.0445435)
(-0.289243 0.591519 0.046742)
(-0.262034 0.552337 0.0473065)
(-0.231898 0.510767 0.0427448)
(-0.205333 0.467694 0.0355563)
(-0.181024 0.422736 0.026308)
(-0.161823 0.378706 0.0187336)
(-0.14378 0.340735 0.0132634)
(-0.12972 0.30375 0.00441205)
(-0.123141 0.262896 -0.00557115)
(-0.105095 0.203687 -0.0103449)
(-0.0589436 0.151554 -0.0098526)
(-0.0160225 0.121929 -0.00895994)
(0.00330046 0.0886035 -0.00360833)
(0.0049416 0.0344274 0.0031117)
(0.00440844 -0.0313676 0.000798557)
(0.0332223 -0.0237244 -0.00433682)
(0.0684606 0.00636547 -0.00480345)
(0.0830868 0.0459311 -0.00534713)
(0.0881182 0.0929796 -0.00599935)
(0.0710396 0.151043 -0.0128869)
(0.0287424 0.188432 3.55972e-05)
(-0.021448 0.238856 0.000207859)
(-0.0741052 0.28035 -0.00322943)
(-0.129157 0.327272 -0.0066671)
(-0.185563 0.373585 -0.00878955)
(-0.243149 0.416869 -0.00898552)
(-0.302573 0.453796 -0.00692256)
(-0.358865 0.490493 -0.00139686)
(-0.4136 0.526929 0.000426171)
(-0.468609 0.563588 0.00279155)
(-0.516213 0.601276 0.00611952)
(-0.550972 0.644182 0.0113704)
(-0.574089 0.679915 0.0136479)
(-0.58539 0.712504 0.0116245)
(-0.568827 0.732828 0.0192755)
(-0.401742 0.722129 0.0446306)
(-0.279583 0.66971 0.04644)
(-0.285448 0.632602 0.0644773)
(-0.278674 0.584981 0.0707947)
(-0.2876 0.542616 0.0730464)
(-0.285586 0.498058 0.0700537)
(-0.278729 0.453388 0.0662357)
(-0.264296 0.406467 0.0624324)
(-0.251589 0.365634 0.0482558)
(-0.242419 0.325947 0.0364396)
(-0.228121 0.291148 0.0226917)
(-0.215156 0.262451 0.0105957)
(-0.196972 0.234089 0.00495116)
(-0.187291 0.210309 -0.00597046)
(-0.163106 0.184588 -0.0122117)
(-0.0953079 0.153877 -0.0120871)
(-0.0354367 0.127954 -0.0103943)
(-0.00310278 0.095521 -0.00574685)
(0.00408237 0.0360485 0.00304243)
(0.00531821 -0.0272292 -0.000998148)
(0.0419809 -0.00704274 -0.00625547)
(0.0847403 0.0288262 -0.00981912)
(0.100149 0.0768371 -0.00705045)
(0.106044 0.132069 -0.0099289)
(0.0710575 0.183373 -0.00697062)
(0.0225853 0.222965 0.00437736)
(-0.0164701 0.274889 0.000572143)
(-0.0655966 0.331655 -0.000935586)
(-0.112833 0.384728 -0.00292197)
(-0.161785 0.435131 -0.0029834)
(-0.20794 0.478601 -0.00124307)
(-0.255842 0.515953 0.00151768)
(-0.301509 0.552026 0.00858677)
(-0.340638 0.582229 0.0106554)
(-0.376045 0.611465 0.0176752)
(-0.401643 0.64004 0.0245811)
(-0.426417 0.673123 0.0254506)
(-0.450532 0.698734 0.0277413)
(-0.462911 0.717278 0.0246643)
(-0.471488 0.725842 0.0282354)
(-0.36553 0.704096 0.0494751)
(-0.261581 0.609006 0.0480639)
(-0.257174 0.545767 0.0584162)
(-0.262507 0.491955 0.0621834)
(-0.283391 0.449263 0.0627615)
(-0.297396 0.408895 0.059664)
(-0.306353 0.370829 0.0553649)
(-0.304626 0.33163 0.0469001)
(-0.300982 0.29692 0.0358483)
(-0.296808 0.263979 0.0222639)
(-0.285972 0.237377 0.0124434)
(-0.273011 0.217174 0.00173741)
(-0.255084 0.205968 -0.00312036)
(-0.235556 0.193167 -0.00913202)
(-0.204112 0.186625 -0.0186481)
(-0.131336 0.164189 -0.0186131)
(-0.0545161 0.13951 -0.0148452)
(-0.0088615 0.104622 -0.00781006)
(0.00480097 0.0397269 0.00209272)
(0.00769455 -0.021244 9.88179e-05)
(0.0464871 0.0176186 -0.0145186)
(0.0955071 0.0610153 -0.0146214)
(0.119065 0.114146 -0.0107175)
(0.117108 0.168736 -0.0128988)
(0.0767995 0.210467 -0.00388145)
(0.0322626 0.26691 0.00198118)
(0.00413828 0.318336 0.00410056)
(-0.0342797 0.372099 0.0023067)
(-0.076023 0.425808 0.00304755)
(-0.116478 0.469898 0.00497179)
(-0.156882 0.505219 0.010044)
(-0.190966 0.536181 0.0168028)
(-0.221515 0.563296 0.0203207)
(-0.251362 0.583138 0.0248253)
(-0.278968 0.597184 0.0286297)
(-0.298489 0.606184 0.0324973)
(-0.318138 0.614794 0.0299434)
(-0.345254 0.621242 0.0261547)
(-0.368497 0.620146 0.0215835)
(-0.392826 0.614685 0.0218564)
(-0.343123 0.610325 0.0352069)
(-0.278449 0.528811 0.0341395)
(-0.266319 0.459327 0.0367858)
(-0.269814 0.40335 0.0389781)
(-0.29599 0.36763 0.0409084)
(-0.31832 0.336471 0.0413512)
(-0.336601 0.304752 0.0399894)
(-0.342389 0.272407 0.0343047)
(-0.345099 0.240231 0.0172238)
(-0.346604 0.208843 0.0125626)
(-0.335222 0.183274 0.00228047)
(-0.318735 0.168923 -0.00329922)
(-0.297551 0.164636 -0.00794184)
(-0.27634 0.171029 -0.0134562)
(-0.241866 0.181678 -0.0196642)
(-0.161837 0.171292 -0.0221488)
(-0.0729351 0.148398 -0.0173704)
(-0.0133004 0.113283 -0.00951874)
(0.00562252 0.042421 0.00188802)
(0.0101026 -0.00698601 -0.00272523)
(0.0567446 0.047632 -0.0216831)
(0.114148 0.101476 -0.0222534)
(0.138402 0.153342 -0.0143168)
(0.12913 0.198737 -0.0133879)
(0.0953063 0.244858 -0.00619243)
(0.0618426 0.304242 0.00131819)
(0.0327977 0.358947 0.00633314)
(0.00602823 0.401988 0.0114814)
(-0.0262964 0.442032 0.0119951)
(-0.0655423 0.477062 0.0151865)
(-0.0942556 0.504308 0.0221298)
(-0.119678 0.524331 0.0272794)
(-0.146557 0.533615 0.0298044)
(-0.171632 0.534639 0.0313562)
(-0.196149 0.527901 0.0314044)
(-0.213687 0.516989 0.0304775)
(-0.235992 0.509885 0.0230078)
(-0.272306 0.497174 0.016823)
(-0.30476 0.492756 0.0134121)
(-0.330184 0.496229 0.0149556)
(-0.320943 0.510815 0.0218504)
(-0.304445 0.465 0.0211447)
(-0.299592 0.404565 0.0192483)
(-0.295805 0.340662 0.0173052)
(-0.313419 0.309902 0.0208102)
(-0.340976 0.285103 0.0245362)
(-0.366152 0.257789 0.0279664)
(-0.378909 0.229198 0.0214407)
(-0.387962 0.193604 0.0104741)
(-0.391111 0.166977 0.0007797)
(-0.378373 0.14569 -0.00395453)
(-0.358524 0.130901 -0.0112798)
(-0.329805 0.132855 -0.0161302)
(-0.294435 0.140343 -0.0173164)
(-0.262899 0.167098 -0.0226908)
(-0.191091 0.172447 -0.0246911)
(-0.0916042 0.158296 -0.0224141)
(-0.0183678 0.122963 -0.0117295)
(0.00605618 0.0477437 0.00074675)
(0.00774464 0.0129452 -0.00910011)
(0.0597895 0.089212 -0.0300823)
(0.126545 0.146298 -0.0288276)
(0.150127 0.190737 -0.0178099)
(0.145912 0.232567 -0.0176852)
(0.124944 0.279693 -0.00785967)
(0.100161 0.334476 -0.00259562)
(0.0730841 0.381365 0.0114842)
(0.0420088 0.419727 0.0192396)
(0.0183192 0.445994 0.0252903)
(-0.00638833 0.466781 0.0267178)
(-0.0335634 0.479466 0.0333)
(-0.0579127 0.483781 0.0376405)
(-0.082656 0.477039 0.0371822)
(-0.109662 0.461471 0.0343196)
(-0.137904 0.437372 0.0292368)
(-0.15607 0.412703 0.0236301)
(-0.184158 0.393887 0.0105153)
(-0.221294 0.372782 0.00651615)
(-0.245546 0.385303 0.00681269)
(-0.270805 0.411738 0.0110182)
(-0.292024 0.435781 0.0147578)
(-0.322359 0.421513 0.0130151)
(-0.345201 0.378591 0.0100582)
(-0.332166 0.313756 0.00622014)
(-0.328888 0.269449 0.00856255)
(-0.354625 0.247203 0.0150336)
(-0.383079 0.222172 0.0189863)
(-0.404548 0.192763 0.0178414)
(-0.415146 0.160701 0.00767556)
(-0.416251 0.130937 0.0123468)
(-0.410936 0.108895 0.0167149)
(-0.390875 0.09166 0.0162147)
(-0.364312 0.0904047 0.00877211)
(-0.325518 0.105074 -0.0113805)
(-0.281501 0.132611 -0.0214351)
(-0.209248 0.167061 -0.023837)
(-0.107562 0.158661 -0.0215475)
(-0.0239798 0.130942 -0.0124813)
(0.00694978 0.0508896 0.0010723)
(0.00905378 0.0289272 -0.0113186)
(0.0655777 0.12956 -0.0354603)
(0.135769 0.189514 -0.0334255)
(0.165414 0.229388 -0.0210727)
(0.169132 0.270394 -0.0165009)
(0.158436 0.311406 -0.0103635)
(0.138988 0.356126 -0.00121102)
(0.112662 0.391476 0.00734634)
(0.0881377 0.420419 0.0148684)
(0.0626733 0.441137 0.0308995)
(0.0357141 0.448617 0.0378101)
(0.0170201 0.447885 0.0460822)
(-0.00408304 0.434264 0.0467319)
(-0.0331674 0.412564 0.041945)
(-0.0656437 0.388459 0.0335308)
(-0.0981247 0.355469 0.0239038)
(-0.118672 0.332284 0.0137109)
(-0.151843 0.299037 -0.00223436)
(-0.175109 0.299065 0.00118525)
(-0.179859 0.325055 0.00505198)
(-0.211837 0.354908 0.00921779)
(-0.258785 0.377654 0.0126187)
(-0.320065 0.381398 0.0100845)
(-0.371351 0.357765 0.00633917)
(-0.371746 0.315026 0.00356195)
(-0.347062 0.243174 0.00248115)
(-0.355969 0.214684 0.00581406)
(-0.389818 0.187903 0.0106621)
(-0.414543 0.161886 0.00746424)
(-0.433485 0.128311 0.0271427)
(-0.44285 0.0928249 0.0305629)
(-0.440565 0.062162 0.0221257)
(-0.426632 0.0491824 0.0132457)
(-0.392103 0.0455559 0.00955649)
(-0.34501 0.0614633 0.00166932)
(-0.290868 0.089797 -0.0159932)
(-0.222903 0.139488 -0.0263947)
(-0.125309 0.156474 -0.0221406)
(-0.0274903 0.13481 -0.0144912)
(0.00523685 0.0552995 0.000490292)
(0.0075014 0.0498187 -0.0132117)
(0.0659796 0.171521 -0.040183)
(0.142389 0.234619 -0.0385052)
(0.18057 0.271364 -0.0231274)
(0.193942 0.305351 -0.0135167)
(0.189687 0.338104 -0.00666237)
(0.174789 0.369984 -0.00459694)
(0.150877 0.393785 0.00910068)
(0.127045 0.412097 0.014561)
(0.105268 0.422533 0.0258002)
(0.0828099 0.424896 0.0345109)
(0.0563368 0.415626 0.0517986)
(0.029122 0.391434 0.0527129)
(0.0055506 0.358339 0.046681)
(-0.030709 0.326538 0.0296412)
(-0.0651585 0.296743 0.0169697)
(-0.0977412 0.274032 4.71619e-05)
(-0.119933 0.250332 -0.00548243)
(-0.1162 0.271153 -0.00122841)
(-0.125979 0.286757 0.00326474)
(-0.165066 0.301009 0.0105746)
(-0.218538 0.317281 0.0155295)
(-0.296418 0.332149 0.01121)
(-0.36295 0.321874 0.00764705)
(-0.394345 0.299187 0.00299473)
(-0.372604 0.239581 0.00400784)
(-0.350147 0.174833 0.00451422)
(-0.376187 0.151099 0.00556606)
(-0.408322 0.122 0.0234425)
(-0.438747 0.0882488 0.0339479)
(-0.455496 0.0543821 0.0406164)
(-0.454137 0.0276868 0.0541217)
(-0.441718 0.00328826 0.0467419)
(-0.423941 -0.00374076 0.033688)
(-0.383918 0.00859619 0.0238082)
(-0.316452 0.0474373 0.00270356)
(-0.229039 0.0924135 -0.0226804)
(-0.131416 0.142933 -0.0233548)
(-0.0340088 0.132619 -0.0145405)
(0.00680186 0.0579362 -0.000444458)
(0.0061721 0.0638515 -0.014774)
(0.0658524 0.208163 -0.0453495)
(0.147593 0.27714 -0.0442141)
(0.19469 0.310019 -0.0252335)
(0.216564 0.334301 -0.010815)
(0.218193 0.354932 -0.0014672)
(0.204831 0.377322 0.0027648)
(0.182858 0.390535 0.00533129)
(0.165163 0.401881 0.0116836)
(0.145196 0.404423 0.0246428)
(0.11977 0.397783 0.0316729)
(0.0931337 0.381421 0.0390315)
(0.0609471 0.355922 0.0456412)
(0.0287699 0.322889 0.0423332)
(-0.0040463 0.282935 0.0251989)
(-0.0388948 0.258209 0.00712908)
(-0.0692738 0.238089 -0.00779579)
(-0.0750144 0.243389 -0.00636984)
(-0.072415 0.251938 -0.00301232)
(-0.0911529 0.248678 0.00547379)
(-0.124842 0.247988 0.016263)
(-0.169448 0.253567 0.0225649)
(-0.252104 0.270823 0.0150375)
(-0.333955 0.275718 0.0104863)
(-0.3768 0.262123 0.00475381)
(-0.388006 0.237299 0.00406005)
(-0.355735 0.162722 0.00477335)
(-0.352254 0.116106 0.00789988)
(-0.389811 0.0845962 0.021294)
(-0.422921 0.0467268 0.0325838)
(-0.443348 0.0162341 0.0558088)
(-0.462248 -0.0239748 0.0429092)
(-0.469697 -0.0648381 0.0328286)
(-0.447136 -0.0870479 0.0184296)
(-0.402826 -0.0757461 0.00405294)
(-0.345293 -0.0268033 0.0117288)
(-0.252245 0.0472839 -0.00208701)
(-0.138564 0.108901 -0.0308229)
(-0.0381692 0.126933 -0.0140303)
(0.00655796 0.0579021 -0.00215615)
(0.00474104 0.0772377 -0.0150426)
(0.065504 0.240486 -0.048567)
(0.151438 0.314174 -0.0493495)
(0.204478 0.342878 -0.0293562)
(0.232984 0.357624 -0.010058)
(0.241865 0.366683 0.0035053)
(0.233284 0.376354 0.00884839)
(0.214282 0.385425 0.0127272)
(0.198083 0.390839 0.014743)
(0.177943 0.387015 0.0177134)
(0.155182 0.374745 0.0174089)
(0.12479 0.353036 0.0276895)
(0.0894462 0.322866 0.0256912)
(0.051378 0.292073 0.0285876)
(0.0157436 0.259263 0.0146983)
(-0.0115703 0.242605 -0.00220545)
(-0.0286292 0.23736 -0.00882734)
(-0.0341122 0.242922 -0.00617043)
(-0.0452254 0.234712 0.000158924)
(-0.0648452 0.22106 0.0108795)
(-0.0915706 0.209243 0.0215725)
(-0.121158 0.20081 0.02888)
(-0.192049 0.203107 0.02217)
(-0.281437 0.224021 0.0130578)
(-0.334567 0.216813 0.0084547)
(-0.365938 0.207635 0.00705348)
(-0.35874 0.165797 0.0120405)
(-0.336316 0.088987 0.016799)
(-0.359618 0.0501744 0.0281914)
(-0.393892 0.0116883 0.0446427)
(-0.428611 -0.0353725 0.0352062)
(-0.4666 -0.0911416 0.0309545)
(-0.479859 -0.137209 0.0213305)
(-0.46843 -0.169031 0.00993584)
(-0.424953 -0.173185 -0.00230788)
(-0.352014 -0.130748 -0.00813578)
(-0.262796 -0.0339414 0.000107454)
(-0.154116 0.0647201 -0.015468)
(-0.0405197 0.114941 -0.0182954)
(0.00545387 0.0591038 -0.0028128)
(0.00201085 0.0765881 -0.0144712)
(0.0613139 0.258268 -0.0484195)
(0.150805 0.336907 -0.0499541)
(0.211178 0.362781 -0.0295685)
(0.246459 0.369252 -0.00900519)
(0.258767 0.369503 0.0053598)
(0.257351 0.370831 0.0110058)
(0.244415 0.37547 0.0140179)
(0.229495 0.377134 0.0152475)
(0.209424 0.370112 0.0155439)
(0.182627 0.355129 0.0138036)
(0.150044 0.326704 0.0118266)
(0.113787 0.298632 0.00806734)
(0.0761773 0.276221 0.01258)
(0.0484915 0.268409 0.00181087)
(0.0291942 0.262398 -0.00703922)
(0.00975705 0.264386 -0.00616462)
(-0.0056558 0.259798 -0.000611213)
(-0.023198 0.239015 0.00667007)
(-0.0418654 0.217028 0.0158395)
(-0.0643781 0.19384 0.0215296)
(-0.0882368 0.17303 0.0273967)
(-0.13414 0.153871 0.028654)
(-0.218272 0.171304 0.0154242)
(-0.283332 0.169665 0.011234)
(-0.320339 0.16335 0.0116653)
(-0.347252 0.146017 0.00732766)
(-0.332256 0.0917175 0.0137896)
(-0.324389 0.017387 0.01872)
(-0.364505 -0.0267899 0.0234436)
(-0.408934 -0.088757 0.0251859)
(-0.446723 -0.143087 0.020797)
(-0.471514 -0.198196 0.0127859)
(-0.471639 -0.240957 0.000787376)
(-0.436794 -0.258969 -0.012284)
(-0.367911 -0.227733 -0.0191422)
(-0.268786 -0.141886 -0.0214285)
(-0.153979 -0.00064894 8.66058e-05)
(-0.0449341 0.0833972 -0.0260571)
(0.00379044 0.0568317 -0.00550646)
(0.00214482 0.0938483 -0.00933136)
(0.0597459 0.282831 -0.0462741)
(0.148821 0.364523 -0.0489853)
(0.213735 0.386526 -0.0292298)
(0.255685 0.384288 -0.00643982)
(0.277016 0.377868 0.00539195)
(0.283069 0.372438 0.0105082)
(0.274453 0.369777 0.0113298)
(0.259578 0.36416 0.00935926)
(0.237929 0.351975 0.00725732)
(0.207807 0.33939 0.00498373)
(0.174134 0.32869 0.0047076)
(0.147817 0.322547 0.00388071)
(0.125689 0.319808 0.0074377)
(0.0976317 0.319073 -0.00706724)
(0.0701047 0.304748 -0.00755842)
(0.0466812 0.293841 -0.00645234)
(0.0158076 0.276976 -0.00288658)
(-0.0106537 0.252542 0.00677353)
(-0.0278128 0.222085 0.0141067)
(-0.0478581 0.191993 0.0179198)
(-0.068179 0.163888 0.0216546)
(-0.095263 0.134315 0.0267801)
(-0.161556 0.129278 0.0184133)
(-0.231695 0.131554 0.0118614)
(-0.270221 0.121633 0.00448232)
(-0.300862 0.109086 -0.00146212)
(-0.324562 0.0843246 0.00148827)
(-0.32489 0.0194433 0.0047302)
(-0.336495 -0.0530475 0.0079867)
(-0.376347 -0.115939 0.0133003)
(-0.415401 -0.18338 0.0117393)
(-0.44692 -0.249134 0.00650585)
(-0.458782 -0.305615 -0.00405496)
(-0.434417 -0.340154 -0.0179931)
(-0.373868 -0.327227 -0.0330251)
(-0.274388 -0.246574 -0.0398978)
(-0.162066 -0.0921826 -0.0248815)
(-0.0471544 0.0443001 -0.0180805)
(0.00905123 0.0531864 -0.0101794)
(-0.00771026 0.0900981 -0.02084)
(0.0431531 0.290625 -0.051446)
(0.137472 0.38087 -0.0545734)
(0.209213 0.403754 -0.0355277)
(0.261762 0.398646 -0.0106195)
(0.290884 0.385625 -0.00173109)
(0.30248 0.370204 0.00519152)
(0.296545 0.362332 0.00476001)
(0.281702 0.371095 0.00331496)
(0.267074 0.385799 0.00295164)
(0.253841 0.39919 0.00289566)
(0.235722 0.403148 0.00202053)
(0.208976 0.396918 0.00131427)
(0.171991 0.377834 0.00372327)
(0.12511 0.352772 -0.0072016)
(0.0880016 0.328572 -0.00920865)
(0.0610378 0.297123 -0.00868582)
(0.0318516 0.269612 -0.0041828)
(0.00341051 0.245641 0.0024074)
(-0.0171043 0.213387 0.0110237)
(-0.033658 0.18306 0.0139514)
(-0.0539904 0.154595 0.0164028)
(-0.0736068 0.124759 0.0214614)
(-0.122113 0.103968 0.0199961)
(-0.1868 0.0989077 0.0130032)
(-0.231231 0.0871562 0.00489167)
(-0.262492 0.0729358 0.000108302)
(-0.286752 0.0557344 0.0029482)
(-0.311548 0.023641 -0.000160404)
(-0.331653 -0.0415671 -0.00394616)
(-0.356656 -0.1206 -0.0022111)
(-0.390523 -0.188058 0.00303708)
(-0.416688 -0.264723 0.00158398)
(-0.431619 -0.342212 -0.00640095)
(-0.417866 -0.397633 -0.0197944)
(-0.365538 -0.407021 -0.0374777)
(-0.271546 -0.346346 -0.0563231)
(-0.159309 -0.202031 -0.0453808)
(-0.0432094 -0.00727258 -0.0101979)
(0.00912965 0.0441509 -0.0110682)
(-0.00606474 0.183498 -0.0160588)
(0.0426994 0.388002 -0.040614)
(0.1322 0.482793 -0.0465567)
(0.206286 0.505082 -0.029605)
(0.264728 0.496186 -0.00998518)
(0.299553 0.475242 -0.000464334)
(0.320406 0.452274 0.00669729)
(0.341071 0.461979 0.00843287)
(0.355921 0.484322 0.00383271)
(0.348394 0.496782 -0.000932007)
(0.316984 0.493056 -0.00562722)
(0.270226 0.469203 -0.00579807)
(0.222228 0.43259 -0.00418796)
(0.177271 0.386647 -0.000525721)
(0.137812 0.346563 0.000911035)
(0.0981911 0.315233 -0.00451409)
(0.0683048 0.285368 -0.00669987)
(0.0452204 0.250096 -0.00387284)
(0.0158428 0.222923 6.71021e-06)
(-0.00574416 0.194802 0.00857408)
(-0.0206855 0.162852 0.0120763)
(-0.0395812 0.1362 0.0138496)
(-0.0576958 0.109366 0.0171995)
(-0.0968838 0.0852748 0.0173454)
(-0.15409 0.0725382 0.010323)
(-0.195464 0.0580339 0.000870319)
(-0.221929 0.0486546 0.00294279)
(-0.249987 0.0349304 0.00420205)
(-0.281444 0.0103285 0.00433721)
(-0.319456 -0.0265108 0.000858563)
(-0.338382 -0.0891301 -0.00449237)
(-0.358624 -0.188898 -0.0170888)
(-0.39682 -0.285192 -0.0178884)
(-0.413639 -0.362462 -0.0200231)
(-0.396989 -0.432322 -0.0320637)
(-0.354786 -0.469231 -0.0561352)
(-0.279812 -0.441197 -0.0759837)
(-0.164183 -0.289301 -0.0658627)
(-0.0370138 -0.0866739 -0.0340851)
(0.0106747 0.0370524 -0.00958064)
(-0.0203577 0.301051 -0.02917)
(0.0181316 0.528971 -0.0469867)
(0.111974 0.633781 -0.0534771)
(0.191021 0.667085 -0.0375655)
(0.258829 0.66034 -0.0226103)
(0.30154 0.637466 -0.0115796)
(0.354379 0.606107 -0.00117055)
(0.398044 0.598244 -0.00236148)
(0.390613 0.583592 -0.00528552)
(0.356743 0.552434 -0.00649703)
(0.314964 0.509553 -0.00603574)
(0.270025 0.463587 -0.00489376)
(0.22294 0.417049 -0.00318796)
(0.179526 0.371231 0.00031272)
(0.141966 0.330116 0.00217344)
(0.110605 0.291642 0.00537214)
(0.0774867 0.262742 -0.00102468)
(0.0506896 0.231839 -0.00270058)
(0.0299083 0.198272 0.00084805)
(0.00462662 0.173221 0.00528732)
(-0.011003 0.141511 0.0116676)
(-0.026721 0.115051 0.0126968)
(-0.0436744 0.0894499 0.0152382)
(-0.0767345 0.0663635 0.0152992)
(-0.128854 0.0488964 0.00806818)
(-0.164504 0.0362287 0.00563817)
(-0.186675 0.0264543 0.00575611)
(-0.213886 0.0104578 0.00731452)
(-0.244197 -0.0040119 0.00925396)
(-0.280636 -0.0261276 0.00714777)
(-0.34123 -0.0622979 0.00239094)
(-0.381226 -0.139917 0.00366084)
(-0.368938 -0.252258 -0.0106477)
(-0.36641 -0.393107 -0.0301441)
(-0.36845 -0.505754 -0.050389)
(-0.344689 -0.58337 -0.0742845)
(-0.259301 -0.577399 -0.0913812)
(-0.170082 -0.439166 -0.0985049)
(-0.0524202 -0.174045 -0.0571732)
(0.022563 0.020254 -0.0164259)
(-0.00293981 0.290112 -0.00421429)
(0.0369607 0.535541 -0.0393802)
(0.116427 0.654593 -0.0491195)
(0.195096 0.703505 -0.0409596)
(0.261959 0.703075 -0.0289476)
(0.303945 0.679934 -0.0196372)
(0.350459 0.647639 -0.00929571)
(0.390284 0.604296 -0.00392556)
(0.385762 0.565618 -0.00247766)
(0.354928 0.526334 -0.000786506)
(0.314309 0.486061 -0.000333361)
(0.268761 0.442014 0.000639509)
(0.222947 0.395019 0.00195084)
(0.182035 0.35001 0.00270819)
(0.146263 0.307049 0.00461844)
(0.115006 0.269795 0.00585625)
(0.0904317 0.234087 0.00937719)
(0.0615875 0.206456 0.00232661)
(0.037036 0.177384 0.00157263)
(0.0158867 0.149926 0.00478889)
(-0.00212703 0.124228 0.0104467)
(-0.0163017 0.0955803 0.0118574)
(-0.0315422 0.0717059 0.0137196)
(-0.061801 0.0485519 0.014264)
(-0.106152 0.029604 0.00598332)
(-0.135178 0.0203828 0.00812737)
(-0.1577 0.0060115 0.008889)
(-0.179443 -0.00592552 0.0127397)
(-0.200831 -0.0178834 0.0135035)
(-0.238028 -0.0349248 0.0113324)
(-0.285906 -0.060768 0.00949575)
(-0.348879 -0.0904037 0.00346529)
(-0.419155 -0.159719 0.000401969)
(-0.425441 -0.29017 -0.00266916)
(-0.379961 -0.430513 -0.0175392)
(-0.329772 -0.557048 -0.0343535)
(-0.246203 -0.620467 -0.0663309)
(-0.129619 -0.556641 -0.0755306)
(-0.0165271 -0.285109 -0.0738858)
(0.0208714 0.00595132 -0.00747806)
(0.00246477 0.290685 0.00118307)
(0.0409372 0.511782 -0.0308518)
(0.11377 0.632254 -0.0391076)
(0.191077 0.682766 -0.0338009)
(0.256884 0.683157 -0.0189826)
(0.304111 0.6577 -0.0117562)
(0.351172 0.625783 -0.00142848)
(0.390151 0.581296 0.00132244)
(0.388282 0.54049 0.00213311)
(0.355979 0.501736 0.00334656)
(0.313925 0.460535 0.00417356)
(0.266772 0.416846 0.00515759)
(0.221187 0.369675 0.00692975)
(0.181531 0.323635 0.00849066)
(0.14948 0.27974 0.00979088)
(0.122432 0.242054 0.0102985)
(0.0962677 0.207652 0.0109177)
(0.0740694 0.175701 0.0109912)
(0.0513748 0.151603 0.0104506)
(0.027045 0.126473 0.00479528)
(0.00790924 0.105389 0.00952242)
(-0.00777261 0.0790254 0.0110575)
(-0.0200206 0.0568446 0.012682)
(-0.0476391 0.0304087 0.0103045)
(-0.0837679 0.0170152 0.00870468)
(-0.111 0.00475691 0.00934527)
(-0.129478 -0.00649578 0.0121171)
(-0.144552 -0.0165131 0.0135036)
(-0.165598 -0.0299852 0.0151577)
(-0.194759 -0.0488803 0.0155743)
(-0.239036 -0.0706534 0.0138188)
(-0.289296 -0.104379 0.0129348)
(-0.342059 -0.143047 0.00703026)
(-0.38308 -0.19478 -0.0010819)
(-0.389874 -0.292044 -0.0107349)
(-0.374485 -0.417428 -0.0203055)
(-0.302984 -0.518295 -0.0345528)
(-0.184451 -0.512571 -0.0577282)
(-0.0241113 -0.298179 -0.0577285)
(0.0454382 0.0542892 -0.0274542)
(0.00591448 0.278535 0.00469914)
(0.0444788 0.485766 -0.0240879)
(0.112103 0.608816 -0.0322485)
(0.186351 0.664271 -0.0295215)
(0.251027 0.67113 -0.0132949)
(0.300449 0.64685 -0.00775252)
(0.345354 0.611846 0.000964532)
(0.379836 0.564695 0.00386508)
(0.381653 0.51491 0.00423118)
(0.352394 0.472513 0.00558856)
(0.310287 0.429582 0.00673126)
(0.262787 0.385242 0.00852063)
(0.217489 0.339135 0.0118436)
(0.180513 0.295476 0.0159286)
(0.1519 0.255867 0.0189264)
(0.127998 0.220337 0.0195324)
(0.106608 0.187429 0.0190284)
(0.0853009 0.157435 0.0172219)
(0.0646518 0.129246 0.0156745)
(0.043559 0.108217 0.0149557)
(0.0216633 0.0866094 0.0089152)
(0.00446065 0.0641865 0.0108942)
(-0.0117923 0.0406118 0.0116137)
(-0.0329563 0.0180594 0.00999968)
(-0.0615072 0.00310523 0.00872399)
(-0.0851548 -0.00627129 0.0111814)
(-0.10001 -0.0149961 0.0112781)
(-0.115571 -0.0269649 0.0127062)
(-0.132976 -0.0417936 0.0144102)
(-0.159295 -0.0607383 0.015966)
(-0.19434 -0.0851972 0.0175879)
(-0.237243 -0.11551 0.0176221)
(-0.283706 -0.158714 0.0182857)
(-0.311968 -0.216543 0.0175842)
(-0.329936 -0.297708 0.0119733)
(-0.34393 -0.412376 0.00281939)
(-0.318811 -0.505369 -0.0142073)
(-0.227919 -0.526255 -0.0379341)
(-0.0690285 -0.322798 -0.0491921)
(0.022868 0.0572485 -0.0127105)
(0.0102927 0.252781 0.00235388)
(0.049175 0.43713 -0.0191334)
(0.110616 0.565781 -0.0267019)
(0.183557 0.62503 -0.0253722)
(0.246799 0.638698 -0.0133005)
(0.295864 0.617686 -0.0053505)
(0.340389 0.581623 0.0021098)
(0.369941 0.535982 0.00539837)
(0.372696 0.483799 0.00602332)
(0.347515 0.43796 0.00707145)
(0.305614 0.393107 0.00879402)
(0.25852 0.349316 0.0119782)
(0.216616 0.306604 0.0170373)
(0.184996 0.267166 0.0212895)
(0.160953 0.231023 0.0207089)
(0.139202 0.196236 0.0190141)
(0.116374 0.161231 0.0170204)
(0.0960615 0.120819 0.0152934)
(0.0790706 0.0919276 0.0137817)
(0.0580281 0.0780657 0.0116594)
(0.0346313 0.0649675 0.0133931)
(0.0149293 0.0490447 0.00931273)
(0.00150728 0.0283286 0.0136829)
(-0.0174345 0.00840712 0.00955576)
(-0.0392276 -0.00589193 0.0107147)
(-0.0576221 -0.0134995 0.0104031)
(-0.0742742 -0.0244681 0.0112027)