/*--------------------------------*- C++ -*----------------------------------*\
| =========                 |                                                 |
| \\      /  F ield         | OpenFOAM: The Open Source CFD Toolbox           |
|  \\    /   O peration     | Version:  v1806                                 |
|   \\  /    A nd           | Web:      www.OpenFOAM.com                      |
|    \\/     M anipulation  |                                                 |
\*---------------------------------------------------------------------------*/
FoamFile
{
    version     2.0;
    format      ascii;
    class       volScalarField;
    location    "0.0705";
    object      p;
}
// * * * * * * * * * * * * * * * * * * * * * * * * * * * * * * * * * * * * * //

dimensions      [0 2 -2 0 0 0 0];


internalField   nonuniform List<scalar> 
64000
(
7.63611e-06
-0.103161
-0.235356
-0.313592
-0.375089
-0.420285
-0.466168
-0.506278
-0.539762
-0.584457
-0.598208
-0.658507
-0.67369
-0.721454
-0.722501
-0.769805
-0.719364
-0.799889
-0.658702
-0.884672
-0.567605
-0.813452
-0.677085
-0.765223
-0.615779
-0.586407
-0.456758
-0.39911
-0.346821
-0.331442
-0.341165
-0.358934
-0.424869
-0.454792
-0.506034
-0.509616
-0.538921
-0.532868
-0.547425
-0.541346
-0.107467
-0.210425
-0.282828
-0.334593
-0.38427
-0.422902
-0.460062
-0.498781
-0.530302
-0.569378
-0.59024
-0.626183
-0.634589
-0.657538
-0.651394
-0.675724
-0.682738
-0.750142
-0.61787
-0.794348
-0.510519
-0.726592
-0.629363
-0.696663
-0.543072
-0.515804
-0.400568
-0.357298
-0.313094
-0.304326
-0.330077
-0.322041
-0.394867
-0.418934
-0.471436
-0.479067
-0.509413
-0.51345
-0.535447
-0.535331
-0.252349
-0.289322
-0.329428
-0.356495
-0.403599
-0.427718
-0.470294
-0.497278
-0.527906
-0.564154
-0.592119
-0.63651
-0.654991
-0.715718
-0.737378
-0.794395
-0.760002
-0.838415
-0.72338
-0.932448
-0.712463
-0.963398
-0.938999
-1.04967
-0.942756
-0.942764
-0.853024
-0.806425
-0.740251
-0.672989
-0.642922
-0.590345
-0.594135
-0.546391
-0.550891
-0.53192
-0.543529
-0.538658
-0.552322
-0.551643
-0.330999
-0.342894
-0.362048
-0.388938
-0.403276
-0.435356
-0.464475
-0.501244
-0.55147
-0.595927
-0.628266
-0.696033
-0.751546
-0.819875
-0.846628
-0.900361
-0.906119
-1.00876
-0.932316
-1.16472
-0.98585
-1.24602
-1.2819
-1.41255
-1.33455
-1.34221
-1.25214
-1.19344
-1.10051
-1.00081
-0.914759
-0.799613
-0.73855
-0.66402
-0.621189
-0.582845
-0.592101
-0.569555
-0.577499
-0.577083
-0.386184
-0.379818
-0.41034
-0.40442
-0.44674
-0.462371
-0.521762
-0.548288
-0.61203
-0.67246
-0.766303
-0.88436
-0.950754
-1.03326
-1.08212
-1.1619
-1.17816
-1.27823
-1.20664
-1.44697
-1.30235
-1.55564
-1.61314
-1.75061
-1.69173
-1.69489
-1.6068
-1.53047
-1.43134
-1.30932
-1.19276
-1.05961
-0.927939
-0.809495
-0.710659
-0.652771
-0.627387
-0.61162
-0.613173
-0.612307
-0.423834
-0.432553
-0.427183
-0.468275
-0.456498
-0.502688
-0.533593
-0.651298
-0.785064
-0.929713
-1.0394
-1.11805
-1.18894
-1.25867
-1.3006
-1.38934
-1.369
-1.5069
-1.44204
-1.64766
-1.53801
-1.76271
-1.84482
-1.95212
-1.89981
-1.89366
-1.80061
-1.72829
-1.6118
-1.50001
-1.36289
-1.22041
-1.08152
-0.97117
-0.831757
-0.720298
-0.685233
-0.657533
-0.657471
-0.659234
-0.471738
-0.465137
-0.503314
-0.555245
-0.646939
-0.68121
-0.844359
-0.956457
-1.07977
-1.16451
-1.2659
-1.36013
-1.44055
-1.52278
-1.56863
-1.63396
-1.64582
-1.72544
-1.68338
-1.8628
-1.81612
-1.91721
-2.00348
-2.08399
-2.03855
-2.02414
-1.94181
-1.86951
-1.76959
-1.65619
-1.51866
-1.36889
-1.19195
-1.05342
-0.913511
-0.771375
-0.718719
-0.694911
-0.696317
-0.701875
-0.542704
-0.518491
-0.559584
-0.632648
-0.722606
-0.812314
-1.02474
-1.07828
-1.24337
-1.35683
-1.48087
-1.57693
-1.6673
-1.73434
-1.791
-1.85219
-1.85326
-1.92579
-1.87226
-2.00325
-2.00351
-2.0084
-2.09053
-2.15839
-2.12543
-2.10715
-2.03293
-1.97273
-1.88034
-1.78419
-1.65378
-1.50212
-1.33813
-1.16744
-1.0454
-0.856747
-0.785741
-0.75083
-0.751311
-0.76148
-0.57005
-0.551938
-0.620314
-0.714707
-0.845221
-1.00536
-1.16598
-1.28581
-1.41666
-1.55103
-1.6743
-1.77546
-1.8699
-1.94355
-2.00533
-2.05904
-2.07411
-2.11009
-2.07992
-2.10349
-2.15067
-2.10149
-2.14641
-2.20774
-2.18935
-2.17118
-2.10887
-2.0529
-1.98488
-1.89554
-1.77132
-1.6188
-1.45403
-1.25842
-1.11874
-0.946025
-0.831066
-0.801658
-0.798538
-0.814652
-0.648809
-0.63129
-0.709295
-0.824652
-0.979009
-1.15937
-1.31457
-1.43605
-1.58598
-1.69748
-1.84356
-1.93722
-2.03107
-2.10074
-2.15626
-2.2075
-2.22439
-2.24817
-2.21736
-2.21502
-2.23835
-2.21468
-2.14088
-2.23869
-2.22278
-2.22089
-2.16407
-2.13188
-2.07127
-1.98855
-1.8874
-1.73864
-1.57327
-1.38764
-1.2321
-1.06074
-0.92509
-0.879491
-0.869474
-0.889393
-0.694941
-0.683568
-0.780995
-0.912041
-1.12569
-1.27917
-1.45055
-1.59084
-1.73962
-1.86515
-1.98059
-2.06934
-2.17997
-2.23145
-2.28696
-2.31741
-2.33686
-2.35141
-2.28652
-2.31911
-2.28881
-2.2519
-2.12695
-2.25421
-2.2323
-2.26365
-2.20754
-2.19957
-2.14613
-2.08473
-1.97818
-1.84928
-1.67601
-1.475
-1.2912
-1.14904
-0.993732
-0.936332
-0.92627
-0.948985
-0.818875
-0.809087
-0.907519
-1.07886
-1.26568
-1.4353
-1.60125
-1.7425
-1.8894
-1.99957
-2.11692
-2.19951
-2.26578
-2.3353
-2.37622
-2.40387
-2.42726
-2.43389
-2.38775
-2.3883
-2.34136
-2.28286
-2.08227
-2.2217
-2.23415
-2.27191
-2.25614
-2.24614
-2.21869
-2.1625
-2.07845
-1.93575
-1.78834
-1.6069
-1.4077
-1.25016
-1.09337
-1.03426
-1.00915
-1.0372
-0.855913
-0.850978
-0.977092
-1.14179
-1.34593
-1.51632
-1.69612
-1.83578
-1.98668
-2.09936
-2.22022
-2.29416
-2.38529
-2.41016
-2.47554
-2.47791
-2.50971
-2.49905
-2.47767
-2.44364
-2.39702
-2.26283
-1.95058
-2.1025
-2.18986
-2.27359
-2.28351
-2.30019
-2.27581
-2.23935
-2.15083
-2.05985
-1.90312
-1.73426
-1.52019
-1.3521
-1.17215
-1.101
-1.07337
-1.09892
-1.04118
-1.03997
-1.15192
-1.31673
-1.50309
-1.68489
-1.84495
-1.98074
-2.11013
-2.21003
-2.31042
-2.37792
-2.43558
-2.48086
-2.50557
-2.53749
-2.57293
-2.57223
-2.54249
-2.50415
-2.45551
-2.10209
-1.98206
-2.06499
-2.17581
-2.28665
-2.31903
-2.3435
-2.32855
-2.29239
-2.25206
-2.15023
-2.01798
-1.84578
-1.66221
-1.47279
-1.30649
-1.21371
-1.18318
-1.21688
-1.02314
-1.02696
-1.15069
-1.31288
-1.5145
-1.69737
-1.86338
-1.99168
-2.13081
-2.22972
-2.34728
-2.4268
-2.51232
-2.55609
-2.59143
-2.60506
-2.63133
-2.5757
-2.60844
-2.5639
-2.2909
-2.09414
-2.02928
-2.07099
-2.1295
-2.28583
-2.33564
-2.37155
-2.3828
-2.38115
-2.32906
-2.24834
-2.1237
-1.97074
-1.7746
-1.58674
-1.41161
-1.27978
-1.24135
-1.26578
-1.2672
-1.26272
-1.36879
-1.51774
-1.69624
-1.86658
-2.01556
-2.13737
-2.25633
-2.34915
-2.44515
-2.49593
-2.54966
-2.57128
-2.58597
-2.58758
-2.6128
-2.62633
-2.61838
-2.34839
-2.2099
-2.13261
-2.09152
-2.08035
-2.11306
-2.22938
-2.31871
-2.37839
-2.4141
-2.40685
-2.38111
-2.3229
-2.23627
-2.10706
-1.94125
-1.75947
-1.58272
-1.49372
-1.40836
-1.44636
-1.10845
-1.13096
-1.2505
-1.41194
-1.60835
-1.79809
-1.9551
-2.06536
-2.16884
-2.25455
-2.36185
-2.46081
-2.5606
-2.63467
-2.67161
-2.66724
-2.58392
-2.45306
-2.35209
-2.2307
-2.17554
-2.14247
-2.11612
-2.09778
-2.10913
-2.16037
-2.31824
-2.39465
-2.45324
-2.46058
-2.43012
-2.37283
-2.28341
-2.15936
-1.9985
-1.82164
-1.63387
-1.51022
-1.41806
-1.46148
-1.35325
-1.34666
-1.43033
-1.55534
-1.71499
-1.86887
-2.03363
-2.16017
-2.29026
-2.39845
-2.49995
-2.52855
-2.52379
-2.47367
-2.39271
-2.27772
-2.21366
-2.13327
-2.14822
-2.11868
-2.13538
-2.12685
-2.12705
-2.11096
-2.1081
-2.13977
-2.2068
-2.292
-2.37731
-2.41743
-2.44514
-2.45378
-2.45417
-2.38891
-2.27969
-2.10328
-1.92791
-1.79307
-1.69083
-1.70017
-0.990958
-1.00114
-1.09937
-1.23546
-1.43937
-1.6136
-1.80437
-1.88591
-1.88579
-1.87819
-1.88273
-1.9091
-1.98005
-2.06668
-2.11669
-2.17283
-2.17778
-2.15766
-2.14888
-2.12969
-2.11433
-2.11729
-2.11586
-2.12455
-2.12117
-2.15004
-2.21096
-2.3102
-2.40799
-2.42644
-2.38553
-2.32002
-2.23031
-2.13273
-2.05855
-1.93419
-1.84338
-1.6694
-1.69722
-1.73276
-1.1868
-1.11859
-1.15269
-1.20282
-1.31434
-1.41634
-1.53581
-1.68161
-1.82529
-1.94049
-2.03881
-2.08957
-2.13396
-2.16735
-2.18596
-2.18156
-2.177
-2.17041
-2.12139
-2.12324
-2.12562
-2.1076
-2.13148
-2.11652
-2.13799
-2.14284
-2.19134
-2.19694
-2.1565
-2.21105
-2.39412
-2.58644
-2.76084
-2.75855
-2.69762
-2.52567
-2.3122
-2.15541
-1.7959
-1.7993
-1.0371
-1.03617
-1.07668
-1.15845
-1.30096
-1.43271
-1.57907
-1.69036
-1.80038
-1.8913
-1.97337
-2.04131
-2.10425
-2.15805
-2.19176
-2.21881
-2.20822
-2.18422
-2.17506
-2.1265
-2.13038
-2.12846
-2.11808
-2.13034
-2.14048
-2.1644
-2.19665
-2.21762
-2.2204
-2.18187
-2.13515
-2.01271
-1.99711
-2.03488
-2.15759
-2.17104
-2.22191
-2.18726
-2.26258
-2.20442
-1.1516
-1.1384
-1.16363
-1.21631
-1.32548
-1.43909
-1.57412
-1.7072
-1.83611
-1.9482
-2.04346
-2.10777
-2.16808
-2.21241
-2.23998
-2.24215
-2.23988
-2.21939
-2.21281
-2.17313
-2.17436
-2.13871
-2.16749
-2.14506
-2.18184
-2.18256
-2.21998
-2.22428
-2.25424
-2.23569
-2.26402
-2.23498
-2.24161
-2.08918
-1.92559
-1.70621
-1.53182
-1.36447
-1.26718
-1.24906
-1.11262
-1.11743
-1.14909
-1.21144
-1.32817
-1.44821
-1.58678
-1.72821
-1.85242
-1.97073
-2.06282
-2.14585
-2.21313
-2.25781
-2.28676
-2.28623
-2.28687
-2.2425
-2.25621
-2.21218
-2.20645
-2.18628
-2.1816
-2.19214
-2.20158
-2.20982
-2.23533
-2.23122
-2.25467
-2.22819
-2.23917
-2.16069
-2.12669
-2.009
-1.97346
-1.82939
-1.74361
-1.59695
-1.59064
-1.74376
-1.16805
-1.14765
-1.20751
-1.25243
-1.37064
-1.4786
-1.61319
-1.74826
-1.88115
-1.99524
-2.10017
-2.18898
-2.25949
-2.30288
-2.33573
-2.32852
-2.33535
-2.28508
-2.31225
-2.29135
-2.30256
-2.23179
-2.26632
-2.23362
-2.26982
-2.24552
-2.28276
-2.26127
-2.29237
-2.25195
-2.28796
-2.23088
-2.25461
-2.14329
-2.11467
-1.96292
-1.88422
-1.71606
-1.58929
-1.58647
-1.17368
-1.15732
-1.22333
-1.26737
-1.38429
-1.49415
-1.62917
-1.76732
-1.8905
-2.01756
-2.13686
-2.22671
-2.30034
-2.3426
-2.38062
-2.37101
-2.40032
-2.3545
-2.4271
-2.3365
-2.36046
-2.32975
-2.30224
-2.28664
-2.30878
-2.293
-2.31693
-2.28849
-2.31634
-2.26643
-2.28393
-2.18965
-2.18845
-2.05938
-2.05479
-1.91994
-1.89774
-1.76146
-1.73221
-1.82859
-1.19262
-1.16022
-1.23251
-1.27379
-1.38442
-1.49754
-1.63416
-1.75081
-1.89353
-2.00672
-2.11528
-2.21477
-2.30455
-2.35616
-2.41216
-2.41933
-2.47817
-2.45226
-2.49389
-2.36988
-2.39783
-2.34628
-2.36151
-2.32246
-2.37425
-2.33363
-2.37986
-2.31966
-2.36407
-2.28379
-2.32729
-2.2502
-2.30673
-2.17342
-2.18069
-2.00035
-1.96456
-1.78554
-1.68259
-1.63567
-1.21392
-1.19033
-1.25139
-1.30428
-1.40346
-1.51191
-1.62949
-1.77963
-1.90923
-2.03109
-2.14045
-2.22782
-2.31517
-2.36042
-2.44541
-2.44174
-2.52628
-2.46257
-2.53598
-2.38606
-2.472
-2.41453
-2.40383
-2.39159
-2.4303
-2.39361
-2.45592
-2.44151
-2.52099
-2.53734
-2.69824
-2.65893
-2.76476
-2.681
-2.78198
-2.66957
-2.69093
-2.51257
-2.45141
-2.39752
-1.19368
-1.17544
-1.20426
-1.27752
-1.36896
-1.4678
-1.6044
-1.72702
-1.86517
-1.98139
-2.10004
-2.19013
-2.28563
-2.33841
-2.42149
-2.4575
-2.53217
-2.5007
-2.55711
-2.44577
-2.4983
-2.4417
-2.46895
-2.40271
-2.50676
-2.43807
-2.54041
-2.51307
-2.59384
-2.54453
-2.64382
-2.51316
-2.59894
-2.44923
-2.57194
-2.42043
-2.52187
-2.34009
-2.39039
-2.31217
-1.22782
-1.21624
-1.24211
-1.29571
-1.3944
-1.47585
-1.61425
-1.75121
-1.87569
-1.99315
-2.11186
-2.19887
-2.30011
-2.34723
-2.45915
-2.46084
-2.59649
-2.51622
-2.63171
-2.46328
-2.53142
-2.44027
-2.50915
-2.41943
-2.51524
-2.41697
-2.56746
-2.50739
-2.63679
-2.57076
-2.69493
-2.53854
-2.63939
-2.45728
-2.57009
-2.38781
-2.45992
-2.21876
-2.18908
-2.04771
-1.17152
-1.15946
-1.18355
-1.21148
-1.32331
-1.38253
-1.52842
-1.64337
-1.78991
-1.90527
-2.03837
-2.13124
-2.24487
-2.30259
-2.41416
-2.44762
-2.54906
-2.5334
-2.61032
-2.48026
-2.51029
-2.47192
-2.52213
-2.42053
-2.55186
-2.36794
-2.49969
-2.56663
-2.68564
-2.56176
-2.70113
-2.47479
-2.62393
-2.37769
-2.55542
-2.25856
-2.37838
-2.04228
-2.01659
-1.86786
-1.22112
-1.21744
-1.22991
-1.24302
-1.33881
-1.41718
-1.53421
-1.6443
-1.7833
-1.89639
-2.0353
-2.12783
-2.2579
-2.30675
-2.44123
-2.43457
-2.57875
-2.54327
-2.62965
-2.50362
-2.49952
-2.46697
-2.51438
-2.39468
-2.5496
-2.27441
-2.60768
-2.5856
-2.75862
-2.54738
-2.7989
-2.50213
-2.66457
-2.36768
-2.53446
-2.22283
-2.31243
-1.91732
-1.81039
-1.55718
-1.12921
-1.11665
-1.14224
-1.12522
-1.19804
-1.27863
-1.40003
-1.49104
-1.64484
-1.75706
-1.91463
-2.01363
-2.16216
-2.22631
-2.35706
-2.39775
-2.52688
-2.51474
-2.59363
-2.4819
-2.4187
-2.4105
-2.45445
-2.31446
-2.52143
-2.17266
-2.63194
-2.59804
-2.78619
-2.54296
-2.81972
-2.49623
-2.73103
-2.31898
-2.55175
-2.06442
-2.25673
-1.70327
-1.59694
-1.159
-1.20916
-1.21081
-1.21464
-1.21416
-1.23679
-1.30719
-1.41655
-1.48687
-1.63009
-1.73377
-1.89639
-2.00199
-2.14971
-2.22047
-2.38272
-2.40937
-2.55324
-2.55202
-2.6007
-2.52062
-2.37878
-2.38394
-2.4151
-2.25116
-2.48691
-2.0824
-2.62006
-2.62236
-2.86418
-2.54499
-2.88813
-2.49947
-2.79445
-2.35813
-2.5833
-2.05547
-2.17506
-1.55664
-1.33659
-0.689521
-1.07257
-1.05329
-1.08772
-1.03815
-1.0854
-1.08616
-1.24728
-1.27949
-1.44453
-1.54476
-1.72147
-1.82078
-2.02485
-2.11335
-2.28851
-2.34293
-2.49294
-2.51361
-2.54958
-2.48776
-2.25038
-2.26867
-2.29305
-2.11392
-2.37476
-1.96674
-2.52022
-2.65744
-2.88479
-2.62965
-2.92493
-2.4786
-2.8242
-2.2784
-2.61801
-1.91378
-2.1084
-1.14304
-1.0086
0.0734322
-1.19384
-1.20862
-1.19934
-1.1736
-1.18816
-1.12856
-1.27846
-1.28568
-1.43564
-1.50515
-1.69514
-1.81666
-2.01446
-2.11532
-2.30653
-2.36716
-2.5255
-2.56658
-2.56664
-2.53283
-2.18662
-2.23514
-2.2174
-2.00698
-2.26449
-1.85364
-2.43414
-2.67953
-3.0017
-2.64047
-3.01201
-2.52694
-2.92289
-2.30384
-2.69096
-1.97346
-2.16628
-0.961305
-0.681103
0.935603
-1.04826
-0.975392
-1.0405
-0.924116
-0.997265
-0.87487
-1.05109
-1.03249
-1.19603
-1.29943
-1.51232
-1.63646
-1.87573
-1.99086
-2.21613
-2.30064
-2.46778
-2.53201
-2.52596
-2.49261
-2.02811
-2.07945
-2.03313
-1.8124
-2.06589
-1.7046
-2.31908
-2.6654
-3.036
-2.69337
-3.10619
-2.44778
-2.96247
-2.21794
-2.59993
-1.74521
-2.01151
-0.37079
-0.00440596
2.6651
-1.19524
-1.27138
-1.17765
-1.16414
-1.09432
-1.01116
-1.06736
-1.05219
-1.19192
-1.27149
-1.46647
-1.59786
-1.83117
-1.96409
-2.2054
-2.31792
-2.50479
-2.5914
-2.57137
-2.48712
-1.98792
-1.97439
-1.92839
-1.61242
-1.89317
-1.55936
-2.27144
-2.6083
-3.13534
-2.75832
-3.22769
-2.58122
-3.05182
-2.26325
-2.80871
-1.73318
-2.24355
-0.134732
0.455416
4.39537
-1.43652
-0.99688
-1.1176
-0.780425
-0.8705
-0.673633
-0.782607
-0.793359
-0.942535
-1.03218
-1.25664
-1.39134
-1.65506
-1.80429
-2.07004
-2.21091
-2.41896
-2.55326
-2.53061
-2.38619
-1.88936
-1.73133
-1.6604
-1.35345
-1.64031
-1.39364
-2.23406
-2.52965
-3.1518
-2.78554
-3.25651
-2.57712
-2.98673
-2.0894
-2.58639
-1.16783
-1.66235
1.00083
2.23766
8.96873
-1.27223
-1.53891
-1.34503
-1.30385
-0.90398
-0.848082
-0.784052
-0.769446
-0.9022
-0.98057
-1.17376
-1.30819
-1.56351
-1.71514
-1.99094
-2.15047
-2.40672
-2.58543
-2.68101
-2.34199
-1.9285
-1.60981
-1.50339
-1.14271
-1.45832
-1.25841
-2.2291
-2.42719
-3.24735
-2.84884
-3.35604
-2.64536
-3.10517
-2.21219
-2.74999
-1.44715
-1.87489
1.64063
3.46606
12.7004
-3.76841
-1.01911
-1.33012
-0.870891
-0.789051
-0.557289
-0.625469
-0.614957
-0.768559
-0.86066
-1.09194
-1.22375
-1.4881
-1.64193
-1.92182
-2.11161
-2.43539
-2.64495
-2.64503
-2.23933
-1.84729
-1.35601
-1.2213
-0.8993
-1.33038
-1.28829
-2.35046
-2.49856
-3.37405
-2.87712
-3.32102
-2.54792
-2.94738
-2.04091
-2.38069
-0.701781
-0.226115
5.63447
10.6842
25.3331
-0.107313
-0.20938
-0.280808
-0.333793
-0.38226
-0.424715
-0.469007
-0.510751
-0.551758
-0.589746
-0.616883
-0.666388
-0.684503
-0.726647
-0.736381
-0.778226
-0.739586
-0.815029
-0.730199
-0.929979
-0.653916
-0.838578
-0.781863
-0.843497
-0.699995
-0.672581
-0.555355
-0.510424
-0.457247
-0.431761
-0.438903
-0.423018
-0.47961
-0.488791
-0.526538
-0.520815
-0.53999
-0.535079
-0.551
-0.539366
-0.222144
-0.271908
-0.313684
-0.355101
-0.391096
-0.428907
-0.462028
-0.504404
-0.521831
-0.571752
-0.580503
-0.652016
-0.64566
-0.673234
-0.662468
-0.703063
-0.684077
-0.762945
-0.642635
-0.835668
-0.658997
-0.828283
-0.771696
-0.847087
-0.711423
-0.706837
-0.604251
-0.569422
-0.521917
-0.483299
-0.484698
-0.474076
-0.467277
-0.471247
-0.507763
-0.504015
-0.526816
-0.521821
-0.53837
-0.526204
-0.302606
-0.323023
-0.34614
-0.360957
-0.403299
-0.42842
-0.468665
-0.492311
-0.55484
-0.579804
-0.61082
-0.643852
-0.661589
-0.704389
-0.736621
-0.822505
-0.797142
-0.874323
-0.782946
-0.99929
-0.888849
-1.10534
-1.13204
-1.25127
-1.15267
-1.16144
-1.07466
-1.03123
-0.960309
-0.874514
-0.795789
-0.702989
-0.662604
-0.61743
-0.584111
-0.55201
-0.559771
-0.548534
-0.557602
-0.550142
-0.359952
-0.374213
-0.373561
-0.399506
-0.407829
-0.440637
-0.473481
-0.516813
-0.557455
-0.601249
-0.630158
-0.685794
-0.748224
-0.834498
-0.868068
-0.958139
-0.954499
-1.06347
-1.00183
-1.24229
-1.19651
-1.4412
-1.50646
-1.63375
-1.5459
-1.54906
-1.44977
-1.37741
-1.27432
-1.14971
-1.03727
-0.891182
-0.790158
-0.691047
-0.651428
-0.6022
-0.608474
-0.581157
-0.584964
-0.577949
-0.40585
-0.409834
-0.414268
-0.416695
-0.45814
-0.45837
-0.518398
-0.558472
-0.624995
-0.684394
-0.780397
-0.898714
-0.976551
-1.05253
-1.10655
-1.21039
-1.22239
-1.3356
-1.31067
-1.51665
-1.46692
-1.70813
-1.79084
-1.9021
-1.81778
-1.8149
-1.72037
-1.64888
-1.52149
-1.37494
-1.2307
-1.0879
-0.950157
-0.817346
-0.715821
-0.663229
-0.640467
-0.620284
-0.616743
-0.615089
-0.432227
-0.433785
-0.452076
-0.482702
-0.457568
-0.506092
-0.542962
-0.6485
-0.800756
-0.940672
-1.04883
-1.13064
-1.20526
-1.28262
-1.33125
-1.4369
-1.44017
-1.55276
-1.50387
-1.69376
-1.67029
-1.88362
-1.9798
-2.07835
-2.01097
-1.98051
-1.88189
-1.78036
-1.68512
-1.53258
-1.38891
-1.22744
-1.08823
-0.969673
-0.830589
-0.740497
-0.705215
-0.675338
-0.666398
-0.667586
-0.506234
-0.49484
-0.532135
-0.564469
-0.618856
-0.643148
-0.795626
-0.972807
-1.08123
-1.17173
-1.27617
-1.37383
-1.45913
-1.53963
-1.60321
-1.66634
-1.68639
-1.76305
-1.73161
-1.86547
-1.86781
-1.99775
-2.075
-2.15881
-2.0943
-2.06661
-1.97963
-1.89663
-1.77444
-1.64959
-1.50096
-1.33702
-1.17512
-1.03397
-0.913093
-0.783754
-0.731828
-0.707349
-0.699957
-0.706457
-0.53785
-0.544582
-0.594703
-0.655766
-0.73203
-0.796949
-1.02017
-1.09739
-1.25057
-1.36756
-1.4833
-1.59195
-1.67809
-1.76284
-1.81384
-1.87107
-1.87246
-1.92844
-1.89847
-1.97515
-1.99604
-2.04287
-2.108
-2.1971
-2.15783
-2.13404
-2.06836
-1.9861
-1.8962
-1.75874
-1.62406
-1.47529
-1.31745
-1.15514
-1.02631
-0.884699
-0.810121
-0.778184
-0.765138
-0.773141
-0.591034
-0.601134
-0.660878
-0.746088
-0.857461
-0.981594
-1.16324
-1.29374
-1.43542
-1.55797
-1.68165
-1.78015
-1.87903
-1.96212
-2.02162
-2.06608
-2.07329
-2.0929
-2.06441
-2.07625
-2.10079
-2.09013
-2.15706
-2.21711
-2.21214
-2.19015
-2.13826
-2.06926
-1.96534
-1.85634
-1.72877
-1.58709
-1.43583
-1.21891
-1.09251
-0.92911
-0.851626
-0.810537
-0.808453
-0.818989
-0.670252
-0.677661
-0.764695
-0.877037
-0.981862
-1.14283
-1.30768
-1.42996
-1.58543
-1.72134
-1.83383
-1.94771
-2.03622
-2.11698
-2.18182
-2.22595
-2.23367
-2.23753
-2.20012
-2.18368
-2.18041
-2.16931
-2.14815
-2.24155
-2.24329
-2.2444
-2.20847
-2.13014
-2.06583
-1.95145
-1.86198
-1.75696
-1.6046
-1.44821
-1.23481
-1.0579
-0.937654
-0.905469
-0.883057
-0.899077
-0.720511
-0.732483
-0.829146
-0.942133
-1.16115
-1.26262
-1.44642
-1.57836
-1.72745
-1.87972
-1.99321
-2.09256
-2.18542
-2.24141
-2.31889
-2.35482
-2.36952
-2.36122
-2.31647
-2.28159
-2.24243
-2.19566
-2.12212
-2.25368
-2.25534
-2.28331
-2.24322
-2.21168
-2.11956
-2.07248
-1.99471
-1.83138
-1.67592
-1.46451
-1.31274
-1.12523
-0.982821
-0.952768
-0.935789
-0.952333
-0.844586
-0.858163
-0.960849
-1.12791
-1.29851
-1.43969
-1.58539
-1.73558
-1.88039
-1.98637
-2.12466
-2.21101
-2.28489
-2.34218
-2.40545
-2.45323
-2.46972
-2.46102
-2.42252
-2.37845
-2.30868
-2.21971
-2.06419
-2.1938
-2.24859
-2.29342
-2.2999
-2.23232
-2.23427
-2.18976
-2.05575
-1.97613
-1.82757
-1.68908
-1.49304
-1.30826
-1.07327
-1.03134
-1.01893
-1.04159
-0.893858
-0.910005
-1.03984
-1.20486
-1.39493
-1.53715
-1.70743
-1.81484
-1.9842
-2.09559
-2.224
-2.28889
-2.41483
-2.42764
-2.49893
-2.53129
-2.55488
-2.54064
-2.518
-2.45651
-2.36939
-2.1705
-1.92193
-2.04316
-2.19501
-2.29352
-2.30104
-2.35079
-2.33634
-2.24902
-2.23191
-2.09242
-1.93711
-1.72193
-1.53398
-1.38357
-1.2204
-1.06506
-1.08887
-1.10004
-1.07899
-1.09676
-1.22162
-1.38132
-1.56064
-1.71267
-1.86799
-1.98955
-2.11078
-2.2001
-2.31844
-2.39872
-2.44218
-2.5307
-2.56096
-2.59611
-2.62229
-2.61762
-2.59171
-2.53293
-2.38537
-2.03414
-1.90157
-1.99373
-2.15077
-2.29588
-2.34389
-2.4015
-2.36033
-2.3856
-2.2845
-2.18563
-2.03088
-1.86751
-1.63555
-1.47922
-1.33446
-1.20984
-1.16348
-1.22605
-1.07694
-1.09451
-1.22384
-1.38517
-1.57744
-1.74024
-1.91489
-2.02869
-2.16374
-2.26185
-2.38033
-2.45193
-2.55825
-2.63417
-2.65027
-2.66534
-2.67618
-2.65342
-2.6489
-2.54049
-2.23341
-2.02567
-1.92639
-1.97514
-2.07816
-2.27322
-2.37306
-2.40495
-2.45781
-2.40989
-2.36608
-2.27193
-2.14659
-1.9715
-1.76183
-1.55635
-1.40364
-1.33715
-1.19682
-1.27369
-1.28869
-1.30268
-1.42745
-1.57714
-1.76062
-1.91858
-2.06103
-2.18421
-2.31202
-2.40926
-2.50846
-2.55809
-2.60263
-2.6211
-2.654
-2.65557
-2.675
-2.67228
-2.58437
-2.3419
-2.16469
-2.04955
-1.97882
-1.97369
-2.03964
-2.16152
-2.33809
-2.43407
-2.45963
-2.45818
-2.41847
-2.35883
-2.25871
-2.11963
-1.92627
-1.73723
-1.55917
-1.49546
-1.3833
-1.43737
-1.18672
-1.2163
-1.33939
-1.51204
-1.70575
-1.84919
-2.02395
-2.13356
-2.24366
-2.33197
-2.43458
-2.51845
-2.6026
-2.67263
-2.67962
-2.6949
-2.60593
-2.47151
-2.31688
-2.19384
-2.12316
-2.05992
-2.01251
-1.99228
-2.05374
-2.16826
-2.37678
-2.45311
-2.50326
-2.50012
-2.47621
-2.42007
-2.33821
-2.20533
-2.02789
-1.82938
-1.6439
-1.50621
-1.44187
-1.42214
-1.3565
-1.36534
-1.46557
-1.60681
-1.7808
-1.93058
-2.08647
-2.19793
-2.32142
-2.41359
-2.49983
-2.52139
-2.51595
-2.46862
-2.38457
-2.30693
-2.21532
-2.16371
-2.13966
-2.11094
-2.1026
-2.06366
-2.04019
-2.02289
-2.03891
-2.11591
-2.17245
-2.34403
-2.44303
-2.494
-2.5098
-2.49989
-2.48222
-2.40802
-2.27977
-2.10582
-1.89663
-1.77628
-1.71747
-1.70262
-1.06846
-1.11154
-1.19664
-1.35766
-1.49654
-1.69856
-1.85085
-1.9385
-1.9474
-1.94924
-1.95686
-1.97942
-2.02944
-2.09209
-2.12476
-2.17124
-2.15788
-2.11481
-2.1145
-2.09457
-2.0897
-2.0635
-2.04811
-2.04621
-2.04439
-2.10176
-2.14928
-2.20435
-2.31133
-2.40053
-2.43604
-2.42847
-2.40921
-2.31554
-2.21072
-2.09804
-1.88657
-1.73654
-1.71038
-1.74
-1.13391
-1.12427
-1.17082
-1.25099
-1.34949
-1.47284
-1.60971
-1.7106
-1.82521
-1.91667
-2.00194
-2.04392
-2.08195
-2.11816
-2.13885
-2.15256
-2.15006
-2.12415
-2.09869
-2.08573
-2.09659
-2.06373
-2.08313
-2.05713
-2.08458
-2.11178
-2.14229
-2.1602
-2.15882
-2.16466
-2.28305
-2.41961
-2.60166
-2.65388
-2.62655
-2.47444
-2.24231
-2.04366
-1.86345
-1.7826
-1.08654
-1.04099
-1.07537
-1.15565
-1.2565
-1.39813
-1.52088
-1.65832
-1.75211
-1.84451
-1.9249
-1.99772
-2.06577
-2.12069
-2.16116
-2.1946
-2.18318
-2.17129
-2.13757
-2.09993
-2.10028
-2.08312
-2.09817
-2.08946
-2.10143
-2.13099
-2.16184
-2.16514
-2.16045
-2.13227
-2.11982
-2.0438
-2.02236
-2.01606
-2.10993
-2.09561
-2.06253
-2.05044
-2.08451
-2.30384
-1.15746
-1.1138
-1.14333
-1.19766
-1.31262
-1.41217
-1.5446
-1.68451
-1.80722
-1.91784
-2.01065
-2.07713
-2.13867
-2.18843
-2.22323
-2.22811
-2.2211
-2.19231
-2.17606
-2.14367
-2.13401
-2.09328
-2.12855
-2.11543
-2.15312
-2.15719
-2.19487
-2.19617
-2.21509
-2.18053
-2.20111
-2.16336
-2.17231
-2.05594
-1.92332
-1.73668
-1.57596
-1.41081
-1.28159
-1.24833
-1.11714
-1.10091
-1.13924
-1.20205
-1.32326
-1.43303
-1.56766
-1.71831
-1.83673
-1.94813
-2.03681
-2.12064
-2.19231
-2.2428
-2.27271
-2.2683
-2.26034
-2.21885
-2.22328
-2.18185
-2.18079
-2.1612
-2.1627
-2.15798
-2.17889
-2.18898
-2.2076
-2.20576
-2.22394
-2.19245
-2.1946
-2.10347
-2.07992
-1.94369
-1.89516
-1.75156
-1.64983
-1.50943
-1.41973
-1.61085
-1.16358
-1.14999
-1.19098
-1.24437
-1.3597
-1.46987
-1.6071
-1.75098
-1.87871
-1.98933
-2.08932
-2.17871
-2.25205
-2.29827
-2.32512
-2.31162
-2.30979
-2.2621
-2.28566
-2.25951
-2.26982
-2.20699
-2.24844
-2.20063
-2.24981
-2.22042
-2.26612
-2.23467
-2.267
-2.22019
-2.2533
-2.1834
-2.20132
-2.0864
-2.06356
-1.91702
-1.83263
-1.63194
-1.49471
-1.55008
-1.17275
-1.16434
-1.21236
-1.26722
-1.3807
-1.50382
-1.63312
-1.77802
-1.90462
-2.02544
-2.13545
-2.23114
-2.30814
-2.35015
-2.38151
-2.36639
-2.39088
-2.34579
-2.41407
-2.33525
-2.33494
-2.29049
-2.29033
-2.27518
-2.28225
-2.28313
-2.28084
-2.27009
-2.28486
-2.22394
-2.23303
-2.12855
-2.12964
-1.99001
-1.98822
-1.85245
-1.82914
-1.67565
-1.61881
-1.75787
-1.18345
-1.16631
-1.22113
-1.27437
-1.3855
-1.49737
-1.63312
-1.77133
-1.90952
-2.03264
-2.14986
-2.248
-2.33152
-2.37557
-2.42264
-2.42934
-2.48892
-2.47755
-2.5244
-2.39746
-2.3861
-2.32431
-2.36506
-2.31468
-2.36827
-2.30043
-2.37047
-2.28614
-2.33963
-2.24955
-2.30338
-2.20894
-2.27314
-2.13875
-2.16802
-1.99475
-1.96466
-1.77527
-1.67235
-1.61375
-1.21682
-1.1999
-1.24052
-1.30163
-1.40065
-1.51335
-1.64622
-1.79289
-1.93146
-2.06021
-2.18164
-2.27993
-2.36667
-2.40913
-2.48165
-2.50773
-2.61462
-2.56994
-2.61777
-2.42306
-2.43778
-2.36654
-2.4028
-2.38291
-2.42769
-2.38534
-2.42935
-2.4078
-2.50858
-2.49291
-2.63386
-2.58626
-2.70402
-2.6045
-2.71111
-2.58644
-2.62586
-2.46974
-2.35931
-2.34648
-1.19112
-1.18137
-1.21047
-1.27025
-1.36801
-1.46405
-1.59874
-1.73437
-1.87696
-2.00578
-2.1361
-2.24043
-2.34409
-2.39595
-2.47454
-2.49265
-2.58528
-2.53525
-2.57877
-2.44232
-2.46055
-2.42535
-2.4727
-2.39988
-2.50284
-2.42514
-2.56178
-2.45019
-2.60349
-2.50263
-2.66327
-2.5241
-2.64435
-2.48628
-2.62388
-2.46356
-2.57108
-2.39279
-2.31386
-2.28564
-1.22869
-1.22178
-1.24734
-1.28884
-1.39451
-1.47875
-1.61608
-1.72826
-1.87209
-1.98923
-2.1194
-2.2244
-2.34595
-2.40465
-2.50446
-2.51052
-2.62104
-2.55831
-2.63886
-2.45725
-2.52288
-2.41585
-2.50223
-2.39887
-2.50413
-2.39926
-2.53718
-2.46432
-2.7036
-2.53605
-2.69759
-2.54941
-2.68733
-2.49869
-2.63664
-2.44154
-2.53747
-2.26456
-2.22855
-2.08437
-1.17189
-1.16161
-1.19025
-1.20502
-1.31724
-1.38732
-1.52589
-1.64756
-1.7808
-1.89957
-2.03211
-2.13473
-2.26775
-2.34264
-2.45374
-2.47093
-2.57954
-2.55271
-2.62638
-2.50623
-2.4995
-2.44198
-2.50169
-2.37972
-2.51052
-2.33286
-2.51269
-2.55693
-2.74209
-2.561
-2.74543
-2.48158
-2.64603
-2.42388
-2.62183
-2.31886
-2.4929
-2.10916
-2.08177
-1.82962
-1.22282
-1.21901
-1.23787
-1.25
-1.33322
-1.41714
-1.53553
-1.64415
-1.79258
-1.89417
-2.03312
-2.1287
-2.26422
-2.33049
-2.4651
-2.47827
-2.59563
-2.57346
-2.63752
-2.52339
-2.49519
-2.42971
-2.49377
-2.34209
-2.49648
-2.24263
-2.59509
-2.59635
-2.79465
-2.57472
-2.76514
-2.54238
-2.70795
-2.39493
-2.61258
-2.31496
-2.4745
-2.05221
-1.96724
-1.61163
-1.12973
-1.11258
-1.14501
-1.13017
-1.20045
-1.27625
-1.39884
-1.49032
-1.64613
-1.76559
-1.91368
-2.02009
-2.17105
-2.24353
-2.38816
-2.4227
-2.54596
-2.52998
-2.60943
-2.50048
-2.40537
-2.36774
-2.42941
-2.26064
-2.45419
-2.15319
-2.61273
-2.62681
-2.83161
-2.57589
-2.79861
-2.50402
-2.74367
-2.41317
-2.62832
-2.17112
-2.48823
-1.90964
-1.89808
-1.34334
-1.20967
-1.20517
-1.21509
-1.21968
-1.24014
-1.30418
-1.41392
-1.48735
-1.63133
-1.73981
-1.90577
-2.00894
-2.17507
-2.25917
-2.4069
-2.4356
-2.57566
-2.58515
-2.61972
-2.53496
-2.39134
-2.32949
-2.38403
-2.19899
-2.41308
-2.07607
-2.59231
-2.64054
-2.9523
-2.59701
-2.88274
-2.48225
-2.83882
-2.37256
-2.73033
-2.19752
-2.44771
-1.88917
-1.86862
-1.0647
-1.07131
-1.04426
-1.09618
-1.02343
-1.0985
-1.07786
-1.24517
-1.2785
-1.44778
-1.5462
-1.73871
-1.84895
-2.03751
-2.09609
-2.29884
-2.35622
-2.50207
-2.54873
-2.59143
-2.50281
-2.27039
-2.21195
-2.25726
-2.06781
-2.29073
-1.96102
-2.50385
-2.65118
-2.98997
-2.64993
-2.92897
-2.48265
-2.8299
-2.32278
-2.7015
-2.13159
-2.48392
-1.56554
-1.7923
-0.530943
-1.19482
-1.21011
-1.20603
-1.18804
-1.1652
-1.14602
-1.27239
-1.29555
-1.44455
-1.53071
-1.72025
-1.8362
-2.02455
-2.13602
-2.33398
-2.39187
-2.57351
-2.61921
-2.62001
-2.56826
-2.2371
-2.14918
-2.18206
-1.96364
-2.18381
-1.86833
-2.42351
-2.63935
-3.07626
-2.70878
-3.08363
-2.52611
-2.95271
-2.33805
-2.78875
-2.11304
-2.59837
-1.65249
-1.59693
0.0534795
-1.03342
-0.98124
-1.04951
-0.927581
-1.02088
-0.864303
-1.05969
-1.05372
-1.23554
-1.32634
-1.53917
-1.64818
-1.89998
-2.01423
-2.25484
-2.34508
-2.54315
-2.59053
-2.6239
-2.51273
-2.13875
-1.98734
-2.00685
-1.75977
-1.99092
-1.69171
-2.32587
-2.59188
-3.11739
-2.73661
-3.17079
-2.51397
-2.9797
-2.23934
-2.75837
-1.86051
-2.44455
-1.12955
-1.40977
1.6232
-1.18106
-1.28238
-1.20099
-1.19347
-1.12273
-1.03324
-1.09002
-1.10066
-1.2346
-1.32039
-1.50412
-1.64666
-1.8783
-2.01082
-2.25846
-2.37069
-2.58944
-2.68334
-2.69441
-2.56676
-2.11686
-1.91979
-1.90297
-1.61448
-1.8107
-1.55206
-2.26761
-2.53005
-3.19283
-2.7993
-3.29183
-2.64611
-3.11173
-2.33891
-2.92283
-1.9131
-2.58084
-0.838694
-1.1786
3.38406
-1.35406
-0.962533
-1.11619
-0.811504
-0.890662
-0.717865
-0.816992
-0.824266
-0.993319
-1.08181
-1.3226
-1.45466
-1.7265
-1.88415
-2.1621
-2.32717
-2.53038
-2.7005
-2.72528
-2.47074
-2.02629
-1.73032
-1.68861
-1.32456
-1.61341
-1.36421
-2.22094
-2.4379
-3.22121
-2.8492
-3.38043
-2.63967
-3.09451
-2.22539
-2.75101
-1.49486
-1.99154
0.279052
1.05772
8.52871
-1.02631
-1.47935
-1.36716
-1.36293
-1.08819
-0.875143
-0.87495
-0.844822
-0.96077
-1.03929
-1.24601
-1.40252
-1.66926
-1.82331
-2.12922
-2.30228
-2.59544
-2.80818
-2.88858
-2.54559
-2.12228
-1.70008
-1.5398
-1.13765
-1.45079
-1.21606
-2.1823
-2.34868
-3.28215
-2.87992
-3.38475
-2.67288
-3.14111
-2.2228
-2.79493
-1.52267
-1.95862
1.33875
3.68166
15.0604
-3.59544
-0.877159
-1.18399
-0.783774
-0.747881
-0.574386
-0.634404
-0.628731
-0.794076
-0.893913
-1.12266
-1.25268
-1.53256
-1.72326
-2.03848
-2.28634
-2.623
-2.85603
-2.91524
-2.38274
-1.97435
-1.43922
-1.24342
-0.868364
-1.28759
-1.21759
-2.28823
-2.46755
-3.42765
-2.96978
-3.42137
-2.59777
-2.96406
-2.01654
-2.36454
-0.615161
0.0210349
5.95397
13.6619
31.8313
-0.239358
-0.274692
-0.310293
-0.343751
-0.38861
-0.425462
-0.470402
-0.509441
-0.543528
-0.59032
-0.623199
-0.672069
-0.691403
-0.745986
-0.743719
-0.800956
-0.781879
-0.84859
-0.715488