/*--------------------------------*- C++ -*----------------------------------*\
| =========                 |                                                 |
| \\      /  F ield         | OpenFOAM: The Open Source CFD Toolbox           |
|  \\    /   O peration     | Version:  v1806                                 |
|   \\  /    A nd           | Web:      www.OpenFOAM.com                      |
|    \\/     M anipulation  |                                                 |
\*---------------------------------------------------------------------------*/
FoamFile
{
    version     2.0;
    format      ascii;
    class       volScalarField;
    location    "0.142";
    object      p;
}
// * * * * * * * * * * * * * * * * * * * * * * * * * * * * * * * * * * * * * //

dimensions      [0 2 -2 0 0 0 0];


internalField   nonuniform List<scalar> 
64000
(
0.000615747
0.195585
0.350767
0.640981
1.03329
1.55959
2.25286
3.13
4.21645
5.53971
7.10197
8.87323
10.8335
13.018
15.5665
18.1372
20.9363
23.8418
27.1543
29.5551
33.7322
37.2577
39.5064
41.6175
43.7219
45.6164
47.4728
49.0279
50.501
51.449
52.7192
53.9696
54.9624
55.9037
56.6819
57.3145
57.7692
58.2163
58.5148
58.6841
-0.352807
-0.180629
0.000849148
0.290573
0.680002
1.18554
1.84767
2.73944
3.82566
5.18549
6.80558
8.59811
10.4553
12.3966
15.0515
17.8266
20.7872
23.7021
26.953
29.579
33.6132
37.1639
39.5658
41.7245
43.8663
45.772
47.6346
49.2177
50.6487
51.8659
52.6306
54.0185
54.9531
55.8896
56.6698
57.3163
57.7776
58.2046
58.5125
58.6886
-1.07016
-0.900341
-0.725842
-0.4644
-0.0780715
0.386917
1.00293
1.82111
2.78977
4.07264
5.74167
7.6396
9.73166
11.9843
14.5425
17.2741
20.1516
23.0962
26.3712
29.1175
33.1307
36.7385
39.1864
41.3359
43.4751
45.3649
47.2168
48.8255
50.3043
51.5779
52.6858
53.8098
54.5726
55.7201
56.5982
57.2601
57.7557
58.1957
58.4974
58.6785
-2.16915
-2.00826
-1.84025
-1.60885
-1.23282
-0.785888
-0.261612
0.50302
1.57522
2.90763
4.52157
6.37114
8.4659
10.7505
13.3358
16.1076
19.1059
22.1766
25.5469
28.4125
32.4015
36.1694
38.6275
40.8227
42.9699
44.8698
46.7269
48.3382
49.8583
51.1925
52.3919
53.4868
54.4961
55.516
56.5307
57.3234
57.8432
58.273
58.5221
58.6653
-3.60136
-3.4779
-3.29919
-3.02075
-2.6524
-2.26083
-1.89347
-1.28465
-0.265349
0.993369
2.54839
4.38627
6.51728
8.96008
11.6738
14.6086
17.7433
20.9585
24.5667
27.5799
31.6165
35.5472
38.0656
40.2911
42.4546
44.3731
46.2271
47.7542
49.3536
50.7623
52.0872
53.2629
54.2312
55.1993
56.5545
57.5311
57.9962
58.3304
58.4588
58.5973
-5.19925
-5.15524
-5.00372
-4.74173
-4.39894
-4.09623
-3.82617
-3.45677
-2.37362
-1.06981
0.447957
2.23337
4.3355
6.77622
9.5372
12.568
16.0047
19.6243
23.4625
26.748
30.8986
34.9994
37.5231
39.8461
42.0684
44.0339
45.8641
47.4404
48.9631
50.4195
51.7596
53.0167
54.2394
55.3704
56.8632
57.6575
57.9295
58.2103
58.3303
58.3993
-6.88304
-6.82394
-6.73551
-6.57
-6.37734
-6.01421
-6.0336
-5.51991
-4.27691
-3.28009
-1.84222
-0.0819094
2.0408
4.47231
7.17316
10.0354
13.8077
17.9355
22.0935
25.7556
29.8998
34.4288
37.0715
39.479
41.7492
43.7444
45.5661
47.1553
48.6444
50.0737
51.3867
52.6091
53.8432
54.9782
56.4732
57.3675
57.6612
57.9371
58.0464
58.0972
-8.18627
-8.14596
-8.10203
-8.02201
-7.9532
-7.79645
-7.90134
-7.38655
-6.60419
-5.64447
-4.31632
-2.63224
-0.544459
1.91771
4.69036
7.72071
11.4502
15.9297
20.4129
24.538
28.6149
33.6769
36.6231
39.0994
41.4172
43.449
45.2479
46.8592
48.3045
49.7426
51.023
52.2412
53.4347
54.5553
55.7921
56.9834
57.269
57.5198
57.6164
57.6595
-9.82448
-9.79289
-9.75601
-9.70391
-9.71671
-9.60357
-10.0025
-9.68922
-9.12438
-8.30004
-7.07305
-5.48906
-3.39813
-0.960521
1.8834
5.07388
9.32812
14.0251
18.715
23.2599
27.6064
32.5065
36.021
38.5701
40.9573
43.037
44.8521
46.4641
47.9467
49.3789
50.6473
51.822
52.975
54.0353
55.1289
56.3688
56.7765
56.9477
57.0703
57.0936
-11.5496
-11.6195
-11.5679
-11.6606
-11.6083
-12.0605
-12.3446
-12.2925
-11.8171
-11.1351
-10.0419
-8.54099
-6.59508
-4.22269
-1.36418
2.45588
7.16953
12.0587
17.0513
22.017
26.7262
31.3976
35.2447
37.8947
40.3721
42.5248
44.352
46.0261
47.553
48.9181
50.2133
51.3504
52.4174
53.4717
54.4416
55.5659
56.1468
56.2761
56.3466
56.373
-13.4143
-13.4491
-13.5264
-13.6853
-13.8587
-14.6723
-14.8194
-15.0367
-14.6703
-14.1401
-13.2128
-11.9169
-10.1732
-7.93865
-4.51819
-0.160042
4.67093
9.72458
15.0437
20.3842
25.4126
30.2701
34.2601
37.0738
39.6345
41.8893
43.7759
45.5352
47.0444
48.4095
49.609
50.7651
51.8165
52.7792
53.657
54.6152
55.2285
55.4291
55.4668
55.5019
-15.3216
-15.3479
-15.535
-15.8018
-16.3617
-17.2116
-17.5381
-17.721
-17.7312
-17.2724
-16.6259
-15.5959
-14.1169
-11.3027
-7.53189
-3.18724
1.7323
7.05746
12.7471
18.4772
23.8307
29.0194
33.1169
36.0812
38.7368
41.0789
43.081
44.8501
46.3952
47.7443
49.0783
50.2265
51.1975
52.0857
52.9919
53.5728
54.273
54.408
54.4068
54.4441
-17.3032
-17.3639
-17.6275
-18.0735
-18.9604
-19.7571
-20.2303
-20.5765
-20.7696
-20.6561
-20.2323
-19.525
-17.4859
-14.5552
-10.9943
-6.65416
-1.55497
4.09826
10.1669
16.3167
21.986
27.622
31.8307
34.9106
37.6853
40.2116
42.3215
44.2278
45.8141
47.1644
48.1738
49.0612
49.9314
50.7343
51.5473
52.551
52.9535
53.1881
53.2308
53.2472
-19.1943
-19.2934
-19.6642
-20.3629
-21.364
-22.2033
-22.8291
-23.4567
-23.7972
-24.143
-23.9464
-22.7963
-20.8634
-18.3547
-14.9309
-10.503
-5.17775
0.794281
7.26704
13.8162
19.809
25.9754
30.5237
33.9503
36.7621
39.1033
41.1103
42.7712
44.2179
45.5353
46.67
47.6654
48.5657
49.4
50.2058
50.8456
51.7772
51.7146
51.7719
51.7742
-21.1909
-21.3352
-21.8609
-22.6843
-23.7084
-24.6186
-25.5376
-26.4027
-27.0165
-27.397
-27.274
-26.2052
-24.7426
-22.4458
-19.0902
-14.5502
-9.0478
-2.81588
3.8542
10.5586
16.7044
23.3629
28.4892
32.1048
34.8555
37.2683
39.0965
40.83
42.3306
43.6658
44.8294
45.8882
46.8586
47.7488
48.5605
49.2674
49.7759
50.215
50.2573
50.2646
-22.8536
-23.1076
-23.7015
-24.5776
-25.6591
-26.8335
-28.0419
-29.1789
-30.0267
-30.6268
-30.3894
-29.8662
-28.6882
-26.5241
-23.2666
-18.8667
-13.3873
-7.05692
-0.308366
7.21444
14.3462
20.547
25.4977
29.4696
32.4417
34.7246
36.7743
38.3895
39.8469
41.2794
42.5519
43.7391
44.8385
45.8574
46.7709
47.4363
48.0833
48.7388
48.3278
48.42
-24.832
-25.0922
-25.6786
-26.5279
-27.6621
-29.0097
-30.4605
-31.8273
-32.93
-33.5914
-33.7967
-33.511
-32.4706
-30.4248
-27.3133
-22.9866
-17.8831
-11.3523
-3.74635
4.52634
11.4175
17.2628
21.3721
24.9213
28.4655
31.05
33.2059
35.4574
36.9901
38.4203
39.751
41.0662
42.3481
43.5444
44.5503
45.3287
45.9378
46.351
46.4471
46.333
-25.9185
-26.2392
-26.8364
-27.704
-28.9572
-30.6229
-32.4358
-34.0681
-35.4903
-36.345
-36.8047
-36.7502
-35.8941
-34.0295
-31.0092
-26.8622
-22.3099
-14.8165
-6.69552
1.17287
8.28513
13.9995
17.5644
20.3001
22.8808
25.495
28.4367
30.6204
33.1379
35.2535
36.6858
38.139
39.6862
41.1586
42.4148
43.4137
43.9811
44.1337
44.5972
44.2169
-27.649
-27.8363
-28.3205
-29.0745
-30.3451
-32.3635
-34.3635
-36.0294
-37.6052
-38.5416
-39.3133
-39.5036
-38.9145
-37.2366
-34.3191
-30.5427
-25.3749
-17.5252
-9.69113
-2.05653
5.12336
10.9393
14.4162
16.7763
18.522
20.4005
22.7858
25.4226
28.0355
30.1563
32.5765
34.3699
36.5347
38.5999
40.1415
41.1205
41.7647
42.0746
41.7707
41.7342
-27.0248
-27.2763
-27.7938
-28.6466
-30.2927
-33.291
-35.5839
-37.4665
-39.3794
-40.6898
-41.7459
-42.1864
-41.7888
-40.1665
-37.2725
-33.2434
-27.6341
-19.8289
-12.3118
-4.9196
2.00933
7.7641
11.2233
13.1894
15.1181
16.5617
18.3412
20.5518
22.9891
25.5346
28.3195
30.3645
32.2766
33.9002
35.4075
36.8316
37.8114
38.6573
39.2821
39.1046
-26.9438
-27.2812
-27.7257
-28.5744
-30.8423
-34.6713
-37.1274
-39.181
-41.2117
-42.7099
-43.8555
-44.4687
-44.1787
-42.6415
-39.6966
-34.9871
-29.1451
-22.0488
-15.0168
-8.17413
-1.60235
3.96854
7.33353
9.02573
10.4778
12.086
13.9434
16.5622
19.3077
22.102
24.6974
26.8677
28.6446
31.1612
33.0935
34.2832
35.0632
35.6257
36.0369
36.2647
-28.4953
-28.1313
-28.3697
-29.2698
-31.8721
-35.4862
-37.9503
-40.0929
-42.3331
-43.8097
-45.2921
-46.0874
-46.0592
-44.7514
-41.6584
-36.6051
-30.6207
-24.1297
-17.585
-11.5645
-5.7398
-0.152437
3.24364
4.37525
5.407
6.95553
9.0281
11.9054
15.1893
18.7276
22.0133
24.6725
26.4084
28.1453
29.478
31.5134
32.8207
33.516
33.8731
33.868
-28.7507
-28.7545
-29.0253
-29.9718
-32.6902
-35.88
-38.3804
-40.5713
-42.8268
-44.2989
-46.047
-47.1147
-47.5137
-46.7856
-44.3597
-39.3365
-32.5918
-25.475
-19.6209
-13.8832
-8.85211
-3.56713
-1.5673
-0.778942
-0.116909
1.61945
3.94431
7.20436
11.0277
15.1481
19.0032
22.0249
24.4001
26.5723
27.9379
28.9337
30.0126
30.5561
30.8389
30.9569
-28.6695
-28.8844
-29.045
-30.1148
-32.5232
-35.3551
-37.8777
-40.0787
-42.1956
-43.9889
-45.9048
-47.3909
-48.5753
-48.8679
-47.4507
-43.9696
-37.5447
-29.5208
-22.2181
-16.5235
-11.8393
-7.37387
-5.95537
-5.37055
-4.6413
-2.91976
-0.408221
3.15113
7.49571
12.1329
16.4116
19.8904
22.2377
24.2859
25.8954
27.1651
28.1086
28.8014
29.2498
29.5242
-28.3815
-28.4908
-28.8266
-29.709
-31.6299
-34.1685
-36.6986
-38.9378
-40.9199
-42.755
-44.7068
-46.8659
-48.9013
-50.254
-50.1431
-47.5665
-43.0333
-36.4151
-28.536
-20.0874
-15.0101
-11.0734
-9.94853
-8.56217
-7.75642
-5.86058
-3.14629
0.461818
5.08957
10.0324
14.5794
18.3675
20.9054
23.0041
24.1291
25.1031
25.7467
26.2336
26.5212
26.6044
-27.3542
-27.8115
-27.8968
-28.6055
-30.0117
-32.0949
-34.318
-36.1864
-37.8699
-39.6789
-41.208
-43.3975
-45.5665
-48.117
-49.6338
-49.2322
-47.7883
-44.339
-37.284
-28.262
-21.5065
-16.9133
-14.9928
-13.371
-11.5426
-8.41907
-4.57077
-0.516763
4.21629
9.08903
13.4273
17.0947
19.4379
21.3585
22.1221
22.8899
23.331
23.6992
23.9052
23.9553
-26.6945
-26.7303
-26.8811
-26.8031
-27.562
-29.6282
-31.8137
-33.4232
-34.3306
-35.5454
-36.8991
-39.2681
-41.5526
-43.7009
-45.2125
-46.1671
-47.034
-44.3886
-38.7806
-32.7393
-27.3723
-22.3587
-19.6983
-17.1497
-13.4488
-8.43729
-3.36142
0.936649
5.24814
9.53943
13.291
16.5449
18.738
20.0679
20.6644
21.0696
21.212
21.2896
21.1517
21.0289
-25.2567
-24.8671
-25.4808
-25.0135
-25.2708
-26.8866
-28.4375
-29.5319
-30.7062
-31.1568
-31.4798
-32.8091
-34.588
-36.2878
-37.8997
-38.4957
-37.5603
-33.909
-30.9895
-29.0565
-26.2732
-21.648
-19.0963
-15.9141
-10.8638
-4.86525
0.828465
4.68534
7.72504
10.8832
13.7096
16.169
17.5152
17.7874
17.9147
17.7424
17.6482
17.6842
17.6627
18.2064
-23.7482
-23.5615
-23.1755
-22.8838
-22.3391
-23.6866
-25.5521
-25.9764
-25.7425
-25.094
-24.571
-25.0888
-26.3456
-27.4769
-27.9955
-27.4437
-25.4667
-22.1284
-20.7806
-20.0253
-18.4811
-14.2445
-11.1205
-7.86108
-3.68395
1.07201
5.39374
8.31417
9.92826
11.4946
12.5665
12.9667
12.0615
11.3639
11.4317
11.1223
10.8502
10.7383
10.4452
10.5785
-21.8018
-21.6831
-21.4627
-21.2445
-20.1566
-20.7816
-21
-20.5044
-19.6716
-18.6625
-17.6205
-17.1312
-17.0717
-16.5727
-15.6007
-13.907
-11.6465
-8.91545
-7.14654
-5.59517
-4.11082
-1.06931
2.23216
4.25034
6.39476
8.73207
10.4365
11.3621
11.2629
11.0115
10.5572
9.47908
8.91691
8.29004
7.89367
7.10129
6.3214
5.76656
5.12807
5.17636
-19.6251
-19.3974
-19.0925
-18.3536
-16.9621
-16.4718
-15.8844
-14.9874
-13.8207
-12.4176
-10.3485
-8.3533
-6.50246
-4.7096
-2.62948
-0.378411
1.88124
4.10023
6.14237
8.69497
10.7038
12.72
15.4827
16.0769
16.1004
15.9025
15.036
14.0027
12.5387
10.3205
8.04837
7.18529
6.36842
5.80404
4.58163
3.56959
2.25044
1.42827
0.591868
0.775206
-16.8715
-16.5325
-15.8081
-14.7881
-13.5425
-12.4578
-11.2881
-9.72548
-7.9081
-5.3783
-2.419
0.656609
3.72952
6.75278
9.6913
12.3894
14.7628
16.669
18.617
21.7066
23.551
24.6215
26.0701
25.0333
23.3277
21.4511
18.8237
16.3501
13.8207
9.6022
5.89426
4.91738
3.4519
2.9366
1.06794
0.013205
-1.73385
-2.45966
-3.38919
-2.96385
-13.5324
-13.2098
-12.4953
-11.4663
-10.3416
-8.72186
-6.65024
-4.27413
-1.62915
1.5241
4.97348
8.60608
12.4609
16.3644
20.1471
23.126
25.3388
26.982
28.922
32.2765
33.4536
33.8707
33.6364
31.5354
28.3734
25.1805
21.2855
17.4763
13.9754
8.55336
3.87768
2.48126
0.263105
-0.444723
-2.0533
-3.55045
-5.39875
-6.08377
-6.94327
-6.22897
-9.92049
-9.68569
-9.17434
-8.04205
-6.53305
-4.76179
-2.50747
0.35652
3.66275
7.36031
11.2364
15.2582
19.5343
23.8055
27.7744
31.1358
33.6802
35.5819
37.1867
40.1253
40.0261
39.6893
37.8001
35.008
31.3927
27.215
22.3065
17.663
13.6046
7.2635
2.51839
-0.296535
-2.5026
-3.75915
-4.83349
-7.06079
-8.87981
-9.16494
-10.0752
-8.86739
-7.24129
-7.00782
-6.33334
-5.18205
-3.53189
-1.80942
0.81126
4.00516
7.55562
11.5994
16.0824
20.7209
25.3039
29.6133
33.7863
37.5405
40.2822
41.6483
42.8093
44.3443
44.4151
43.1634
40.4885
37.0985
32.5816
27.9443
22.3697
17.3057
12.6009
5.45823
0.655476
-2.58686
-5.11436
-6.80846
-8.73538
-9.87483
-12.0153
-12.167
-12.9478
-11.1056
-5.40442
-4.87042
-3.94811
-2.46101
-0.7741
1.27585
3.9806
7.40998
11.1927
15.4365
20.3482
25.5026
30.3707
34.0263
37.5947
41.0257
43.6953
45.347
45.7131
46.2326
47.4817
45.5971
42.2649
38.3652
33.1986
27.9529
22.1456
16.5743
11.4139
3.7018
-1.44669
-4.41547
-7.62151
-9.3292
-10.8228
-12.1054
-14.5921
-14.071
-15.3137
-12.3226
-3.29067
-2.99561
-1.89651
-0.593002
1.41353
3.68195
6.44592
10.0695
14.3793
18.9679
24.0264
29.1741
33.2956
36.7062
39.6345
42.6035
45.1683
47.0142
47.4479
47.3685
49.1186
47.3069
43.3583
39.0984
33.5959
27.898
21.7582
15.9534
10.2609
2.22443
-3.35649
-6.43445
-9.639
-11.2416
-13.5821
-13.886
-16.303
-16.1136
-16.4366
-12.6513
-3.23349
-2.0688
-1.12207
0.971381
3.34094
5.85559
8.81108
12.8449
17.7221
22.322
26.5739
30.9951
34.7796
38.0375
40.9695
43.8239
46.1287
47.9213
47.8202
48.0916
49.9911
48.4313
44.198
39.7422
33.9031
28.0982
21.5894
15.6738
9.29553
1.00723
-4.80456
-8.07515
-11.1798
-13.0449
-15.2744
-15.7611
-17.2903
-15.7384
-15.8027
-9.19131
-2.42246
-1.98198
-0.496427
1.56269
3.77254
6.40794
10.5664
14.8975
19.6384
24.1745
28.3622
32.3622
35.7678
38.7827
41.591
44.4353
46.5519
48.3212
48.1228
48.5208
50.0957
48.963
44.7996
39.9901
33.914
28.2699
21.5737
15.5791
8.42374
0.122862
-6.09104
-9.23676
-12.3507
-13.5493
-16.2648
-16.4869
-18.7026
-15.8053
-14.5672
-4.96062
-4.92438
-1.29492
0.0856954
2.58603
4.80503
7.60499
11.2799
15.9037
20.6824
25.2378
29.3806
33.1725
36.3899
39.2636
41.9145
44.6696
46.5638
48.2873
48.078
48.6802
49.8615
49.1703
45.2808
40.2026
34.3312
28.7758
21.8253
15.6056
7.90006
-0.399278
-6.87668
-10.0966
-12.9938
-13.6941
-16.0748
-15.872
-17.0115
-12.1915
-7.38743
7.62623
0.182737
0.326425
0.517895
0.785035
1.15532
1.65534
2.32672
3.23583
4.33142
5.65524
7.25035
9.02494
10.9988
13.2374
15.6654
18.0139
20.7203
23.9202
27.3411
29.8537
33.8032
37.2244
39.5988
41.7999
43.9374
45.8377
47.6401
49.1681
50.5721
51.8253
52.6281
54.0025
54.9935
55.9548
56.7951
57.3931
57.9269
58.3721
58.64
58.8004
-0.171499
0.0515297
0.186576
0.456784
0.828664
1.25145
1.85291
2.79666
3.77072
5.09547
6.87026
8.71522
10.6023
12.7768
15.2813
17.882
20.7413
23.7192
26.9456
29.7372
33.6985
37.2063
39.7097
41.8759
43.9883
45.8499
47.6345
49.1484
50.5654
51.8077
52.8865
53.8959
55.0044
55.9572
56.7779
57.3977
57.8898
58.3218
58.6139
58.7944
-0.839805
-0.699663
-0.534519
-0.278688
0.0724938
0.441889
0.928466
1.93993
3.05039
4.3106
5.94088
7.7618
9.80118
12.0641
14.5877
17.2336
20.1208
23.0919
26.3021
29.2143
33.2047
36.7417
39.2792
41.4216
43.5403
45.3849
47.1748
48.6934
50.1537
51.4588
52.6227
53.7609
54.8238
55.7721
56.7243
57.3344
57.8723
58.3141
58.5983
58.7712
-1.90817
-1.80594
-1.63934
-1.34587
-1.03464
-0.621318
-0.126698
0.641634
1.70477
2.99241
4.56635
6.41491
8.50007
10.7949
13.3741
16.0743
19.0626
22.1508
25.4549
28.4844
32.5131
36.1489
38.7168
40.9012
43.034
44.9228
46.7414
48.3072
49.8258
51.1863
52.4103
53.5046
54.5884
55.6283
56.6752
57.4991
58.0076
58.4016
58.6416
58.7694
-3.36705
-3.28302
-3.11951
-2.76055
-2.45127
-2.105
-1.69716
-1.13037
-0.118271
1.15054
2.71568
4.52109
6.59734
8.98099
11.6648
14.5048
17.6586
20.9442
24.3092
27.4575
31.7104
35.4675
38.0646
40.32
42.4688
44.4358
46.3175
48.0209
49.5473
50.9516
52.217
53.3861
54.373
55.4156
56.7579
57.6356
58.1388
58.4463
58.5946
58.7056
-5.00194
-4.91732
-4.72857
-4.43098
-4.24904
-3.9284
-3.64125
-3.19431
-2.20336
-0.943712
0.572789
2.34613
4.43172
6.8317
9.58307
12.5633
15.8453
19.4951
23.2533
26.6503
31.0161
34.9709
37.6892
40.0137
42.2441
44.2166
46.0034
47.5886
49.1494
50.6234
51.9644
53.31
54.4127
55.5676
57.0152
57.7837
58.0985
58.3469
58.4771
58.522
-6.66278
-6.59489
-6.51166
-6.26045
-6.17063
-5.92679
-5.77955
-5.37247
-4.42231
-3.27564
-1.80075
-0.0474463
2.04609
4.46612
7.16999
10.3302
14.0129
17.9034
21.9904
25.7403
30.1227
34.3991
37.2917
39.7164
42.0126
44.0186
45.8637
47.4678
48.984
50.3887
51.67
52.8688
54.0595
55.2421
56.7442
57.5614
57.8785
58.0875
58.1974
58.2332
-8.0158
-7.97589
-7.95312
-7.80994
-7.83398
-7.74926
-7.80691
-7.45724
-6.67707
-5.67348
-4.33287
-2.64135
-0.579407
1.87079
4.77202
8.04222
11.837
15.9984
20.4105
24.5358
28.9374
33.7172
36.8766
39.3862
41.7281
43.7889
45.6669
47.2801
48.8036
49.97
51.3623
52.5428
53.6801
54.8031
56.1064
57.1748
57.4843
57.6887
57.7764
57.8028
-9.65091
-9.62026
-9.57591
-9.51696
-9.50548
-9.61179
-9.96951
-9.76619
-9.18103
-8.36233
-7.1401
-5.55736
-3.4349
-0.957066
2.04093
5.52898
9.63179
14.0866
18.7571
23.2594
27.8022
32.717
36.2813
38.9206
41.3261
43.4649
45.3984
47.0836
48.5363
49.8358
50.881
52.1283
53.1932
54.3566
55.4252
56.6284
56.9903
57.16
57.2322
57.2429
-11.3941
-11.4128
-11.4279
-11.5234
-11.5377
-11.9819
-12.4377
-12.3577
-11.9252
-11.2274
-10.1485
-8.60495
-6.60049
-4.09363
-0.962621
2.83285
7.29256
12.0892
17.1262
22.0377
26.8189
31.6505
35.5162
38.31
40.8031
43.0401
45.0589
46.7437
48.3172
49.5143
50.649
51.5618
52.6728
53.6938
54.7619
55.8282
56.4117
56.4911
56.5268
56.5249
-13.3019
-13.3732
-13.4319
-13.64
-13.8149
-14.6529
-14.9494
-15.0294
-14.7585
-14.24
-13.3127
-11.9546
-10.0595
-7.51574
-4.16035
-0.0702008
4.65658
9.76027
15.1497
20.4668
25.5501
30.5399
34.5606
37.5538
40.136
42.5067
44.5515
46.3871
47.801
49.1674
50.3279
51.521
52.6097
53.4313
54.0583
55.0601
55.4806
55.6537
55.6672
55.6632
-15.2419
-15.3066
-15.5193
-15.7779
-16.3459
-17.1657
-17.6162
-18.029
-17.7387
-17.4134
-16.7087
-15.531
-13.7315
-11.0748
-7.57848
-3.32501
1.62327
7.05087
12.8214
18.5567
24.006
29.3189
33.5017
36.6481
39.3253
41.7624
43.9464
45.6908
47.2706
48.7173
49.8973
50.6001
51.1317
51.885
53.0148
54.1878
54.7158
54.6562
54.6074
54.6039
-17.2506
-17.3599
-17.6277
-18.0436
-19.0108
-19.7488
-20.3424
-20.6769
-21.1856
-20.7683
-20.2359
-19.2414
-17.4531
-14.842
-11.3579
-6.97557
-1.78001
4.01428
10.1961
16.3722
22.2089
27.9783
32.3203
35.58
38.3567
40.8644
42.9544
44.8772
46.5833
47.579
48.4757
49.3869
50.1818
50.8813
51.511
52.2653
53.5892
53.4966
53.4636
53.4326
-19.1803
-19.327
-19.7151
-20.3975
-21.425
-22.3199
-22.8683
-23.7384
-24.2697
-24.2782
-23.8155
-22.9604
-21.3593
-18.9465
-15.537
-11.0349
-5.56085
0.626828
7.25525
13.8738
20.0805
26.3285
30.9388
34.4316
37.4036
39.8232
41.9509
43.5791
44.7768
46.0502
47.11
48.0507
48.8705
49.6212
50.2121
50.8332
51.3231
52.1592
51.9
51.9863
-21.2066
-21.4186
-21.9891
-22.8098
-23.7917
-24.8303
-25.7299
-26.6375
-27.3303
-27.8167
-27.4211
-26.7734
-25.4498
-23.2646
-19.9608
-15.3683
-9.65955
-3.09796
3.93051
10.9742
17.5558
23.9603
28.9787
32.8567
35.6658
37.9153
39.7567
41.5141
42.9518
44.2276
45.3408
46.3297
47.2294
48.027
48.7353
49.326
49.8786
50.6139
50.8818
50.4354
-22.9485
-23.267
-23.9036
-24.7945
-25.8206
-27.0086
-28.214
-29.4518
-30.2833
-31.197
-30.9661
-30.6385
-29.6378
-27.5999
-24.3959
-19.9374
-14.1737
-7.24282
0.361423
8.14693
14.956
21.3956
26.7777
30.7393
33.5411
35.5849
37.491
39.1228
40.5454
41.8844
43.0885
44.2141
45.2344
46.1634
46.9555
47.6801
48.0957
48.3062
48.515
48.4595
-24.9286
-25.2396
-25.8749
-26.7517
-27.7972
-29.2431
-30.6674
-32.1301
-33.3347
-34.2997
-34.5214
-34.5195
-33.6681
-31.7428
-28.6437
-24.2465
-18.7122
-11.1453
-2.97409
4.95761
12.2422
18.6283
23.034
26.3301
29.6065
32.1784
34.2984
36.0038
37.5317
38.9631
40.2967
41.5824
42.7915
43.9066
44.8647
45.6715
46.2324
46.4668
47.1232
46.6266
-26.1009
-26.4677
-27.0909
-27.9581
-29.1184
-30.871
-32.6854
-34.436
-35.9057
-37.2077
-37.6046
-37.9418
-37.2813
-35.5386
-32.5218
-28.2256
-22.8578
-14.8374
-6.78825
1.62785
9.27234
15.6787
19.4686
21.9115
24.264
26.9613
29.6503
31.9187
33.6651
35.3787
36.9761
38.5493
40.0629
41.4539
42.6208
43.5347
44.1321
44.3034
44.0162
44.6023
-27.6885
-27.9057
-28.4426
-29.0952
-30.4093
-32.4477
-34.5606
-36.4611
-38.1195
-39.6269
-40.1765
-40.8366
-40.4351
-38.9131
-36.0228
-31.8019
-26.3351
-18.3037
-9.71439
-1.54926
6.38396
12.6968
16.4492
18.4776
19.9835
21.6896
23.9611
26.4728
28.6569
30.8728
32.9845
34.8907
36.7443
38.4818
39.8591
40.8707
41.6476
42.0085
41.9434
42.4408
-27.1165
-27.3453
-27.9266
-28.8043
-30.3794
-33.344
-35.8675
-38.0091
-40.0504
-41.9572
-42.6668
-43.528
-43.3508
-41.9094
-38.9591
-34.5464
-28.4677
-20.1299
-12.3079
-4.34462
3.20976
9.50001
13.2754
15.0357
16.2709
17.5005
19.0358
21.1575
23.302
25.8386
28.5287
30.9768
33.1223
34.908
36.3972
37.634
38.5683
39.2436
39.4268
39.6267
-27.203
-27.4133
-27.89
-28.8011
-30.9783
-34.7017
-37.474
-39.7771
-41.9701
-44.1068
-44.7554
-45.7796
-45.7065
-44.2968
-41.1592
-36.4099
-29.9952
-21.9785
-14.8735
-7.85489
-1.03148
5.55778
9.25769
10.4465
11.3294
12.5416
14.002
16.5138
19.2832
21.9374
24.7489
27.165
29.1792
31.4325
33.4954
34.8636
35.7036
36.2108
36.4109
36.3729
-28.1146
-27.9973
-28.3589
-29.2273
-31.7954
-35.5146
-38.3495
-40.7475
-43.1439
-45.227
-46.6098
-47.522
-47.7342
-46.5325
-43.3165
-38.1077
-31.3206
-23.5219
-16.8821
-11.5063
-5.11498
1.60122
5.35017
5.57751
5.64557
6.61949
8.27641
11.1022
14.5597
18.6009
21.788
24.6173
26.7264
28.3963
29.7851
31.7138
33.0508
33.779
34.017
34.0241
-28.8513
-28.7568
-29.0662
-29.9503
-32.6912
-36.0435
-38.8685
-41.3264
-43.734
-45.9254
-47.8315
-48.8184
-49.5285
-48.9077
-45.9803
-40.7439
-33.4479
-24.4744
-18.1094
-13.1175
-7.86075
-1.81467
0.597342
-0.320063
-1.37702
-0.163248
2.00873
5.41407
9.68196
14.5214
19.0262
22.0491
24.6609
26.7297
27.9662
29.0235
30.1926
30.7888
31.0448
30.9615
-29.0874
-28.9289
-29.2153
-30.2032
-32.7284
-35.6852
-38.4401
-40.9018
-43.2937
-45.6416
-48.1828
-49.5087
-51.1343
-51.8214
-50.2845
-45.9603
-38.7912
-30.0427
-21.0619
-13.871
-9.86752
-5.77782
-3.60041
-5.14193
-6.53658
-5.75673
-3.29638
0.543444
5.51632
10.9853
16.2274
20.3127
22.6616
24.6951
26.0671
27.2061
28.1622
28.898
29.3534
29.5504
-28.6391
-28.6888
-29.0516
-30.0272
-32.0385
-34.6193
-37.232
-39.6102
-41.8521
-44.1875
-46.9329
-49.6024
-51.9345
-54.4684
-55.1873
-51.7669
-44.8049
-36.624
-28.3955
-18.3157
-13.1081
-9.58728
-8.0514
-8.28057
-9.53344
-8.97057
-6.41353
-2.6234
2.74329
8.64451
14.1564
18.941
21.4939
23.4424
24.5862
25.4315
25.9981
26.4764
26.7882
26.8186
-27.8957
-28.0287
-28.2881
-29.0163
-30.5131
-32.7339
-35.1061
-37.1961
-39.0535
-41.0452
-43.5431
-46.7395
-49.3214
-53.0673
-55.4019
-54.5709
-53.2026
-49.2348
-40.3654
-29.445
-21.3268
-16.6434
-14.7282
-14.7706
-14.3652
-12.1505
-7.90205
-3.48681
2.04373
7.78233
12.9154
17.7072
20.2338
21.9036
22.8181
23.4577
23.7493
24.0463
24.1867
24.1721
-26.9303
-27.0548
-27.1351
-27.4203
-28.4105
-30.3714
-32.5307
-34.2354
-35.4514
-36.6837
-38.3945
-40.9883
-43.2994
-46.3643
-48.64
-50.1814
-52.7018
-50.3518
-43.1105
-35.9127
-28.9932
-23.9696
-21.5078
-20.4923
-16.9408
-11.1866
-5.30606
-0.869989
3.98684
8.88346
13.1781
17.2908
19.4237
20.92
21.3693
21.6732
21.6567
21.6689
21.5333
21.4587
-25.2526
-25.6088
-25.5398
-25.472
-25.9459
-27.5473
-29.3565
-30.4527
-31.0003
-31.1871
-31.5735
-32.8643
-34.6639
-36.8487
-39.6462
-41.6128
-40.9117
-35.179
-32.255
-32.9494
-31.0108
-25.3459
-22.5575
-19.8964
-13.2463
-5.40614
1.05897
4.25432
7.56298
11.0357
13.9563
16.5814
17.973
18.1609
18.1119
17.8385
17.587
17.5112
17.4348
17.8363
-24.11
-23.9036
-23.6125
-23.3458
-23.2563
-24.459
-25.8019
-26.0409
-25.5216
-24.5215
-23.6909
-24.5585
-26.0123
-26.9448
-28.4744
-29.0496
-26.9268
-22.4639
-21.2045
-23.4598
-23.4151
-17.0368
-12.5383
-10.2922
-4.51905
2.13009
6.85898
9.05708
10.5526
12.239
13.2713
13.6059
12.7409
12.1796
11.8466
11.242
10.8514
10.6236
10.3673
10.4693
-22.1173
-21.6296
-21.4462
-20.9881
-20.412
-20.776
-20.9809
-20.3675
-19.1362
-17.504
-17.0349
-16.5276
-16.4972
-15.7627
-15.3704
-14.4301
-12.5341
-9.521
-7.12497
-6.1735
-5.49594
-0.0857013
4.16786
5.21931
7.85016
10.9629
12.5155
12.8344
12.3597
11.9187
11.3318
10.3075
9.40942
8.40999
7.75936
6.77934
5.93391
5.34495
4.91493
4.85571
-19.8903
-19.469
-18.9895
-18.1689
-17.0718
-16.6107
-16.0015
-14.8591
-13.2612
-11.7463
-9.94518
-7.66038
-5.87272
-4.24741
-2.28375
-0.086754
2.05175
4.05086
6.83047
9.63168
12.3364
16.5138
19.5083
19.4949
19.2866
18.739
17.2776
15.6278
13.5664
11.07
8.61184
7.59011
6.491
5.65005
4.17416
3.1398
1.67342
0.867003
0.307202
0.234562
-17.1424
-16.7255
-15.7962
-14.807
-13.6921
-12.6967
-11.4139
-9.68197
-7.51114
-5.45274
-2.15681
1.20012
4.47176
7.71169
10.8468
13.5195
16.0448
18.345
20.1817
23.4063
25.7755
28.3239
29.8243
28.5668
26.3812
23.9442
20.7674
17.7787
14.7477
10.2853
6.25062
4.85415
3.30908
2.29318
0.746978
-0.491548
-2.48817
-3.14415
-3.78647
-3.71402
-13.8039
-13.3945
-12.6178
-11.4755
-10.5913
-8.82701
-6.72095
-4.26961
-1.60802
1.82028
5.35826
9.08025
13.3049
17.7066
21.7579
25.037
27.2961
28.9105
30.7952
34.2999
35.9007
36.5536
36.4404
34.52
30.8515
27.089
22.7943
18.6645
14.8627
8.9291
4.02124
2.08897
0.0187774
-1.30703
-3.06463
-4.00161
-6.10171
-6.98107
-7.52597
-7.30704
-10.2014
-9.97596
-9.503
-8.32395
-6.66242
-4.81864
-2.5327
0.53475
4.10289
7.90735
11.8648
15.9352
20.2615
24.8895
29.1991
32.738
35.3816
37.5676
39.5755
42.6533
42.5146
41.9074
40.1616
37.4616
33.5059
28.7314
23.4627
18.5389
14.0418
7.24325
1.84566
-0.88359
-3.22796
-4.59811
-6.65651
-7.59725
-9.58095
-10.0545
-11.0905
-10.3175
-7.46862
-7.21366
-6.85804
-5.48529
-3.99968
-2.14764
1.03806
4.73519
8.09112
12.1855
16.7513
21.4476
26.035
30.412
34.6887
38.5733
41.4181
43.4652
45.3248
46.6209
46.8074
45.4907
42.61
39.0467
34.2238
29.1391
23.1875
17.8319
12.8693
5.70129
0.358848
-3.54753
-6.14196
-7.82101
-9.89454
-11.0724
-12.9368
-13.1473
-14.5182
-12.9382
-5.34055
-5.16425
-4.32064
-2.75845
-0.921499
1.21008
4.31824
8.20471
12.1518
16.0797
20.9153
25.8853
30.5135
34.6343
38.3814
42.136
45.024
47.03
47.9705
48.6792
49.2953
47.7285
44.1211
39.9006
34.4603
28.8153
22.6128
17
11.3235
3.55071
-2.09323
-5.43756
-8.88565
-10.3539
-12.7318
-13.4061
-15.6802
-15.5668
-17.0261
-14.4335
-3.63176
-3.60134
-2.35309
-0.907954
1.31773
3.82904
6.67728
10.5821
15.3081
19.4934
24.3029
29.1863
33.4928
37.3984
40.9276
44.2761
47.0245
49.0449
49.2531
49.5501
50.4192
48.8943
44.8491
40.1749
34.2943
28.3327
21.927
16.0748
9.8696
1.84225
-4.22157
-7.36651
-10.726
-12.5051
-15.1875
-15.6503
-17.7563
-17.3134
-19.0779
-14.3225
-3.47777
-2.06364
-0.970213
0.985061
3.25191
5.97652
8.91903
13.1464
18.0128
22.3837
27.0218
31.6482
35.7197
39.3445
42.677
45.6929
48.2048
50.2092
49.9285
50.0329
50.8587
49.4371
45.2822
40.4058
34.2458
28.2949
21.5787
15.5795
8.71726
0.513553
-5.69389
-9.11227
-12.3284
-14.103
-16.4639
-16.8433
-18.6457
-17.1121
-17.5504
-9.93987
-2.31922
-1.92083
-0.362296
1.42684
4.03992
6.81898
10.8602
15.0785
19.7789
24.1629
28.6368
33.1237
37.0433
40.5454
43.6621
46.5193
48.6533
50.2016
50.1953
50.4344
50.9212
49.5772
45.3175
40.3421
34.1034
28.272
21.4183
15.3553
7.85046
-0.395412
-7.0249
-10.4387
-13.5681
-14.7282
-17.4742
-17.6707
-19.2988
-16.6469
-14.6367
-3.42002
-4.67818
-1.0534
0.315613
2.64619
4.98813
7.90571
11.8509
16.4322
21.1088
25.5847
29.8925
34.0464
37.8253
41.2494
44.1693
46.8412
48.6545
50.0134
50.0046
50.5045
50.9281
49.6716
45.546
40.4743
34.2832
28.6648
21.645
15.2933
7.40643
-0.849742
-7.68662
-11.1397
-14.1368
-14.8941
-17.2203
-17.0756
-17.7093
-12.5735
-5.1132
12.5838
0.479955
0.653873
0.824834
1.0381
1.38932
1.8517
2.53882
3.45129
4.57175
5.90278
7.47653
9.15506
11.0056
13.37
15.8899
18.5043
21.3889
24.2527
27.5697
30.1711
34.0608
37.7186
40.1474
42.3423
44.4789
46.3034
48.045
49.5569
50.948
52.1922
53.1169
54.2329
55.3697
56.2491
57.0105
57.587
58.0818
58.5016
58.8741
59.0394
0.190205
0.320426
0.498944
0.72281
1.06517
1.44748
1.99761
3.00896
4.2093
5.51575
7.06269
8.8173
10.7845
13.0369
15.5692
18.1825
21.0588
23.9963
27.2013
30.0674
34.0663
37.5763
40.109
42.279
44.3867
46.1736
47.8941
49.3717
50.7898
52.0032
53.0973
54.2325
55.2711
56.172
57.0243
57.6227
58.0985
58.5276
58.832
59.0086
-0.465304
-0.36082
-0.187175
0.0273549
0.324527
0.756199
1.33361
2.15796
3.26874
4.55725
6.13371
7.93206
9.98683
12.2742
14.7519
17.3501
20.2973
23.3148
26.5531
29.5382
33.5566
37.0064
39.5701
41.7346
43.8312
45.619
47.3101
48.804
50.2413
51.6117
52.725
53.9356
55.0596
56.1361
57.1289
57.5892
58.1285
58.5411
58.827
58.9814
-1.48595
-1.41546
-1.24148
-0.959964
-0.675824
-0.318725
0.161212
0.883036
1.94388
3.23005
4.78138
6.59751
8.67434
10.9525
13.4303
16.1256
19.1881
22.3161
25.6566
28.7727
32.8165
36.3438
38.9471
41.1612
43.3211
45.1237
46.8485
48.3611
49.9189
51.2773
52.6262
53.7227
54.9372
56.0537
57.0674
57.7466
58.2891
58.6295
58.8685
58.9879
-2.90428
-2.81877
-2.62477
-2.39068
-2.1142
-1.81414
-1.40121
-0.842139
0.127907
1.38545
2.9387
4.71647
6.77371
9.1256
11.6964
14.5435
17.7619
21.0702
24.6183
27.8775
31.854
35.447
38.1538
40.5093
42.8803
44.7625
46.5132
48.1161
49.6911
51.0863
52.3903
53.6704
54.6947
55.9104
57.1141
57.884
58.4007
58.6811
58.8457
58.924
-4.49807
-4.42846
-4.27603
-4.09275
-3.88789
-3.63188
-3.36365
-2.90672
-1.9722
-0.753576
0.737519
2.50623
4.60829
7.00913
9.67417
12.6847
16.0965
19.4534
23.4266
26.921
31.2727
35.1847
37.9956
40.33
42.561
44.49
46.1184
47.7544
49.5355
50.879
52.2727
53.4464
54.6304
55.9856
57.2697
58.0671
58.3909
58.6113
58.7215
58.7733
-6.13854
-6.12414
-6.06835
-5.97158
-5.82889
-5.68055
-5.52809
-5.16925
-4.3249
-3.17831
-1.69992
0.0549837
2.16512
4.5848
7.36947
10.5185
14.0758
18.0883
22.1982
25.9797
30.4306
34.5787
37.5775
40.0206
42.3126
44.3329
46.2069
47.8681
49.4573
50.6676
51.9133
53.0612
54.2843
55.4763
57.2863
57.928
58.218
58.385
58.4738
58.5039
-7.54498
-7.55016
-7.58189
-7.61126
-7.62235
-7.61654
-7.66954
-7.36782
-6.63763
-5.65058
-4.31179
-2.62164
-0.508567
1.87942
4.89538
8.30024
12.1103
16.2406
20.6421
24.7796