/*--------------------------------*- C++ -*----------------------------------*\
| =========                 |                                                 |
| \\      /  F ield         | OpenFOAM: The Open Source CFD Toolbox           |
|  \\    /   O peration     | Version:  v1806                                 |
|   \\  /    A nd           | Web:      www.OpenFOAM.com                      |
|    \\/     M anipulation  |                                                 |
\*---------------------------------------------------------------------------*/
FoamFile
{
    version     2.0;
    format      ascii;
    class       surfaceScalarField;
    location    "0.146";
    object      phi;
}
// * * * * * * * * * * * * * * * * * * * * * * * * * * * * * * * * * * * * * //

dimensions      [0 3 -1 0 0 0 0];
oriented        oriented;


internalField   nonuniform List<scalar> 
187200
(
-3.71039e-05
8.53662e-05
-4.8343e-05
-3.5797e-05
6.42965e-05
-6.56018e-05
-5.85167e-05
7.62528e-05
-5.35299e-05
-8.79193e-05
8.01169e-05
-5.07116e-05
-0.000118632
8.17028e-05
-5.09887e-05
-0.000146697
8.16219e-05
-5.35577e-05
-0.00016942
8.04663e-05
-5.77444e-05
-0.000184342
7.83103e-05
-6.33881e-05
-0.000197554
7.99751e-05
-6.67613e-05
-0.000213983
8.32004e-05
-6.677e-05
-0.000235718
8.64982e-05
-6.47632e-05
-0.000261078
8.72642e-05
-6.19049e-05
-0.000293191
9.11195e-05
-5.90078e-05
-0.000327545
9.15926e-05
-5.72398e-05
-0.000371251
9.39568e-05
-5.02511e-05
-0.000406141
8.26895e-05
-4.77996e-05
-0.000445772
8.54524e-05
-4.5819e-05
-0.000486138
9.07178e-05
-5.03485e-05
-0.000594765
0.000131639
-2.30095e-05
-0.000760352
0.000175026
-9.43886e-06
-0.00102146
0.000250512
1.05947e-05
-0.00116443
0.000244755
-0.000101781
-0.00127013
0.000292206
-0.000186507
-0.00128427
0.000305835
-0.0002917
-0.00123663
0.000332005
-0.000379638
-0.00112688
0.000356933
-0.000466687
-0.000973171
0.00038159
-0.000535292
-0.00078308
0.000395871
-0.000585961
-0.000577115
0.000396322
-0.000602287
-0.000374068
0.00038211
-0.000585155
-0.000207392
0.00034584
-0.000512514
-9.2479e-05
0.000296619
-0.00041153
-3.04092e-05
0.000237785
-0.000299853
-1.23331e-05
0.000176268
-0.000194345
-1.54117e-05
0.000121601
-0.000118524
-2.19897e-05
8.28941e-05
-7.63174e-05
-2.23829e-05
5.78953e-05
-5.75033e-05
-1.93348e-05
4.79371e-05
-5.09843e-05
-1.30481e-05
4.10393e-05
-4.73239e-05
3.44073e-05
-4.74576e-05
-4.62268e-05
0.000192736
-6.11411e-05
-5.20349e-05
0.000149738
-7.96281e-05
-5.93749e-05
0.000156006
-7.24095e-05
-7.68013e-05
0.000166735
-6.91894e-05
-0.000102619
0.00017699
-6.94695e-05
-0.000132679
0.000185397
-7.37166e-05
-0.000164331
0.000194064
-8.19456e-05
-0.000197444
0.000204534
-9.31083e-05
-0.000236525
0.000220959
-0.000101901
-0.000291661
0.000247389
-0.000109052
-0.000372462
0.000281144
-0.000113845
-0.000479621
0.000315635
-0.000121214
-0.000608161
0.000352375
-0.000132716
-0.000750598
0.000388266
-0.000154236
-0.000900434
0.000430087
-0.000186293
-0.00105631
0.000470916
-0.000232342
-0.00120332
0.000530332
-0.000297872
-0.00133838
0.00058438
-0.000358601
-0.00147908
0.000685507
-0.000413163
-0.00162069
0.000774944
-0.00045831
-0.00177396
0.000897434
-0.000493644
-0.00185644
0.000969024
-0.000641787
-0.00190172
0.00104938
-0.000711898
-0.00185915
0.00107523
-0.000811957
-0.00174021
0.00110916
-0.000896091
-0.00155381
0.00112666
-0.000956119
-0.00131717
0.0011332
-0.000988251
-0.00104377
0.00110934
-0.000986865
-0.000759217
0.00105659
-0.000944819
-0.000484776
0.000974115
-0.000866442
-0.000250331
0.000856993
-0.000745593
-7.40534e-05
0.000725428
-0.000605086
4.25697e-05
0.000571171
-0.00045001
9.38566e-05
0.000442823
-0.000317844
9.92318e-05
0.000330733
-0.000214507
8.18046e-05
0.000249773
-0.000149451
5.8983e-05
0.000190139
-0.000109418
3.70442e-05
0.000158295
-8.84177e-05
1.46846e-05
0.000132759
-6.9363e-05
0.000103853
-5.47632e-05
-2.99109e-05
0.000274479
-5.18295e-05
-3.91483e-05
0.000237598
-7.86171e-05
-4.73437e-05
0.000248462
-8.4257e-05
-6.79746e-05
0.000273363
-8.5995e-05
-0.000102079
0.000301652
-9.05563e-05
-0.000146825
0.00032819
-9.8046e-05
-0.000200593
0.000361192
-0.000113358
-0.000267426
0.000402478
-0.00013111
-0.000347836
0.000451503
-0.000150134
-0.000450077
0.000516846
-0.000167216
-0.000577599
0.000591622
-0.000182956
-0.000731679
0.000672394
-0.000202678
-0.000905465
0.000756403
-0.00023024
-0.00108811
0.000840098
-0.000269182
-0.0012718
0.00092427
-0.0003105
-0.00144235
0.00100383
-0.000362356
-0.00158521
0.00110031
-0.000427127
-0.00170183
0.00119286
-0.000491862
-0.00181365
0.00133144
-0.000534111
-0.0019414
0.00145969
-0.000556991
-0.0020585
0.00157261
-0.000558078
-0.00210197
0.00165895
-0.000646466
-0.00210685
0.00172153
-0.00066727
-0.00203824
0.00171612
-0.000709507
-0.00190416
0.00172575
-0.000750673
-0.00171715
0.00170299
-0.000763332
-0.00149425
0.00166178
-0.000751481
-0.00124765
0.00158049
-0.000717744
-0.00099165
0.00146318
-0.000662582
-0.000730735
0.00131327
-0.000600063
-0.000497168
0.00113147
-0.000508039
-0.000294558
0.00096001
-0.000437192
-0.000146789
0.000773355
-0.000349954
-5.15663e-05
0.000624798
-0.000277194
6.10525e-06
0.000485373
-0.000212306
3.34438e-05
0.000386346
-0.000163908
4.21198e-05
0.000315787
-0.000134316
3.5075e-05
0.000276396
-0.000111053
1.70639e-05
0.000232965
-8.22004e-05
0.000176257
-5.53434e-05
-2.7698e-05
0.000359671
-5.74914e-05
-3.76295e-05
0.000338199
-9.06668e-05
-4.90418e-05
0.000363381
-0.000103504
-7.6896e-05
0.000408934
-0.000107714
-0.000124025
0.000463288
-0.000114506
-0.0001873
0.000520519
-0.000129053
-0.000263807
0.00058992
-0.000152221
-0.000354846
0.000670331
-0.000176813
-0.000461815
0.0007594
-0.000200928
-0.000593492
0.00087028
-0.000221755
-0.000746844
0.000986354
-0.000241377
-0.000913261
0.00110245
-0.000263637
-0.00108847
0.00121663
-0.000285017
-0.00126049
0.00131984
-0.000307717
-0.00142076
0.00141813
-0.000333593
-0.00156146
0.0015111
-0.00036657
-0.00167522
0.0016156
-0.000401529
-0.00176181
0.0017017
-0.000422244
-0.00184763
0.00183721
-0.000419949
-0.00195059
0.00193985
-0.000377196
-0.00206391
0.00199429
-0.000308355
-0.00209528
0.00203089
-0.000340569
-0.0020924
0.00203548
-0.000316824
-0.00202278
0.00196631
-0.000319807
-0.00190193
0.00193146
-0.000326558
-0.00174592
0.00186021
-0.000313223
-0.00156886
0.00177676
-0.000292039
-0.00137713
0.00165238
-0.000263618
-0.00117653
0.00150542
-0.000242851
-0.000968173
0.00133813
-0.000233219
-0.000757985
0.00115532
-0.000234038
-0.000553523
0.000982073
-0.000226522
-0.000370694
0.000807326
-0.000216796
-0.000219994
0.000680765
-0.00020666
-0.00011399
0.000568095
-0.00018872
-3.93254e-05
0.000478248
-0.000166563
3.24145e-06
0.000421152
-0.000147932
2.13356e-05
0.000381092
-0.000122791
1.85826e-05
0.000326052
-9.03325e-05
0.000248047
-5.32099e-05
-2.61842e-05
0.000457515
-7.16585e-05
-3.11437e-05
0.000458815
-0.000115655
-4.19762e-05
0.000506837
-0.000132621
-7.80145e-05
0.000581484
-0.000136509
-0.000136643
0.000668777
-0.000146859
-0.000214482
0.000761731
-0.000163373
-0.000306879
0.000875447
-0.000193129
-0.000408794
0.00098915
-0.000216903
-0.00052365
0.00111723
-0.000242969
-0.000654014
0.0012599
-0.000259255
-0.000798862
0.00139805
-0.000266845
-0.000954866
0.00152621
-0.000267748
-0.00110921
0.0016382
-0.000267228
-0.00125435
0.00173362
-0.000268655
-0.00138895
0.00182072
-0.00026799
-0.00150101
0.00189031
-0.000267155
-0.00158196
0.00195985
-0.000263297
-0.00163516
0.00199659
-0.000241681
-0.00170299
0.00207181
-0.000166774
-0.00179714
0.00208451
-5.05006e-05
-0.00192177
0.0020523
6.662e-05
-0.001955
0.00199362
7.05106e-05
-0.00196241
0.00195259
9.02987e-05
-0.00191932
0.00184798
7.52408e-05
-0.00183887
0.00180339
4.7624e-05
-0.00173496
0.00172013
3.61822e-05
-0.00162131
0.00163643
2.66687e-05
-0.0014929
0.00151764
6.33503e-06
-0.0013472
0.00138647
-2.67521e-05
-0.00117798
0.00123786
-6.89498e-05
-0.000994152
0.00108363
-0.000112134
-0.000795136
0.000944816
-0.000161756
-0.000601449
0.000805017
-0.000191373
-0.000414865
0.000703
-0.000208817
-0.000255791
0.000615437
-0.000206414
-0.000134754
0.000543984
-0.000186766
-4.9697e-05
0.000500713
-0.000164614
-2.58062e-07
0.000467794
-0.00013614
1.2129e-05
0.000407162
-9.34946e-05
0.000309121
-4.89429e-05
-3.03924e-05
0.000589084
-0.000101176
-3.08941e-05
0.000618571
-0.000159252
-4.03599e-05
0.000689662
-0.000173356
-8.01361e-05
0.000791388
-0.000170126
-0.000143155
0.000908189
-0.000176391
-0.000229075
0.0010409
-0.000193252
-0.000319127
0.00118932
-0.000223819
-0.000404995
0.00132862
-0.0002536
-0.000514137
0.00149619
-0.000269819
-0.000634244
0.00164691
-0.000266894
-0.000760461
0.00177365
-0.000249383
-0.00088894
0.00188206
-0.000227378
-0.00101593
0.00196804
-0.000202858
-0.0011362
0.0020312
-0.000177307
-0.00124448
0.00207567
-0.000146675
-0.00132915
0.00208768
-0.000112699
-0.00139235
0.00208426
-6.12073e-05
-0.00144573
0.00203316
1.68081e-05
-0.00149969
0.00201677
0.00010899
-0.00158185
0.00192995
0.000236722
-0.00170896
0.00186984
0.000309578
-0.0017597
0.00173847
0.000305891
-0.00179829
0.00168502
0.000306166
-0.00179677
0.00156311
0.000283353
-0.00176473
0.00151539
0.00025595
-0.00171385
0.00143739
0.000231853
-0.00165494
0.00137626
0.000201259
-0.00157965
0.00128835
0.000154
-0.00147982
0.00120051
8.61404e-05
-0.00134952
0.00109895
8.60511e-06
-0.00119152
0.000995815
-7.01883e-05
-0.00100042
0.000895121
-0.000141406
-0.000792259
0.000792816
-0.000195951
-0.000568058
0.000714037
-0.000235235
-0.00037091
0.000656868
-0.000238581
-0.000215838
0.000604037
-0.000215121
-9.55489e-05
0.000569182
-0.000188756
-1.81136e-05
0.000541376
-0.000151015
1.06613e-05
0.000479725
-0.000101338
0.000367816
-4.80309e-05
-3.12157e-05
0.000754409
-0.000134108
-2.17353e-05
0.000816633
-0.000207538
-2.58149e-05
0.00091571
-0.000221964
-7.33237e-05
0.00104881
-0.000209913
-0.000135923
0.00118474
-0.000213951
-0.000216101
0.00134992
-0.000228834
-0.000279323
0.00151422
-0.00026168
-0.000354871
0.00167421
-0.000270036
-0.000420016
0.00183049
-0.00026916
-0.000484443
0.00195421
-0.000242877
-0.00057578
0.00206526
-0.000200266
-0.000682788
0.00214647
-0.0001574
-0.000803129
0.00219936
-0.000110981
-0.000929245
0.00221776
-6.0441e-05
-0.00103796
0.00219193
-7.54405e-06
-0.00113203
0.0021226
5.91542e-05
-0.00120824
0.00204039
0.000120078
-0.0012689
0.00191253
0.000181298
-0.00132412
0.00181272
0.000259284
-0.0013948
0.00164973
0.000350893
-0.00151855
0.00157302
0.000420573
-0.00158609
0.00138292
0.000423083
-0.00164309
0.00133924
0.000402785
-0.00168252
0.00123424
0.000368305
-0.00169641
0.00120504
0.000324236
-0.00169561
0.00115275
0.000283843
-0.00168364
0.00112897
0.000235319
-0.00165263
0.00108386
0.000173482
-0.00159041
0.00104328
9.50027e-05
-0.00148902
0.000989389
8.17332e-06
-0.00135625
0.000926856
-6.38065e-05
-0.00117803
0.000857174
-0.000140279
-0.000968397
0.000787119
-0.000203927
-0.00072879
0.000719349
-0.000244913
-0.000481578
0.000690281
-0.000280621
-0.000292264
0.000662505
-0.000247776
-0.000136604
0.000635087
-0.000221566
-3.62301e-05
0.00061325
-0.000172239
8.33832e-06
0.000549578
-0.000114418
0.000426795
-5.06427e-05
-2.39219e-05
0.000937047
-0.000158713
3.1283e-06
0.00103509
-0.000245506
1.47913e-05
0.00115718
-0.000253133
-2.4728e-05
0.00131125
-0.000222911
-8.94949e-05
0.00146447
-0.000214957
-0.000167033
0.00166113
-0.000233669
-0.000204144
0.00181044
-0.000259105
-0.000233628
0.00195826
-0.000254569
-0.000285655
0.00210256
-0.000220035
-0.000372003
0.00221415
-0.00017359
-0.000473371
0.00229361
-0.000126988
-0.000580782
0.00233321
-7.93217e-05
-0.000692449
0.00233542
-2.43888e-05
-0.000796243
0.00228368
3.78749e-05
-0.000901876
0.00219646
0.000101102
-0.00101158
0.0020664
0.000165892
-0.00110388
0.00191525
0.000217435
-0.00117287
0.00172259
0.00025893
-0.00122591
0.00156499
0.000300769
-0.00128913
0.00135669
0.00035626
-0.0013816
0.00126861
0.000396872
-0.00147486
0.00107573
0.000400458
-0.0015434
0.00103798
0.000369797
-0.00161184
0.000962109
0.000340577
-0.00165403
0.000951753
0.00029548
-0.00168271
0.000926937
0.000254497
-0.00170003
0.000931363
0.000214929
-0.00170075
0.00092411
0.000160476
-0.00166831
0.000918817
9.20253e-05
-0.00159614
0.000897032
2.01799e-05
-0.00148287
0.000854025
-4.04281e-05
-0.00131746
0.000806005
-0.000114244
-0.00110446
0.000758561
-0.000184431
-0.000863567
0.000719564
-0.000241114
-0.000603263
0.000701663
-0.000271684
-0.000370939
0.000710482
-0.000280295
-0.000183065
0.000690167
-0.000242952
-5.69119e-05
0.000681045
-0.000193937
4.39854e-06
0.000615993
-0.00012772
0.000486032
-5.48415e-05
-1.18906e-05
0.00113405
-0.000185113
3.79765e-05
0.0012715
-0.000286269
6.5854e-05
0.00141978
-0.000290469
4.76745e-05
0.00157392
-0.000244489
-9.96085e-06
0.00173845
-0.000216347
-5.07603e-05
0.00192791
-0.000225976
-6.30886e-05
0.00205809
-0.000235316
-0.000112588
0.00220941
-0.000201651
-0.000184797
0.00233075
-0.000155989
-0.000275818
0.00241326
-0.000108096
-0.000385875
0.00245548
-5.18095e-05
-0.000504958
0.00244901
3.27803e-06
-0.000635838
0.00239379
7.25186e-05
-0.000762171
0.00228735
0.000122669
-0.000891579
0.00214749
0.000178377
-0.00100528
0.00196059
0.000219512
-0.0010955
0.00176137
0.0002441
-0.00116502
0.00153521
0.00025691
-0.00121306
0.00134707
0.000265957
-0.00127422
0.0011338
0.00028405
-0.00133358
0.00102452
0.000303453
-0.00143716
0.000863586
0.000315717
-0.00150618
0.000815312
0.000291691
-0.00157908
0.000760857
0.000274159
-0.00162607
0.000760925
0.000237817
-0.0016686
0.000755405
0.000214061
-0.00170137
0.000781088
0.000183045
-0.00172269
0.000796319
0.000149115
-0.00171806
0.00080713
0.000107052
-0.00167438
0.000798215
5.51435e-05
-0.00157811
0.000776593
-1.8832e-05
-0.00142696
0.000749525
-9.4674e-05
-0.00121975
0.000714216
-0.000162862
-0.000971687
0.000688602
-0.000217092
-0.000692912
0.000681589
-0.000258692
-0.000435237
0.000723716
-0.000270905
-0.000222556
0.000736694
-0.000259201
-7.01519e-05
0.000738024
-0.000209377
1.407e-06
0.000685515
-0.000141079
0.00054789
-6.04498e-05
9.77724e-06
0.0013244
-0.000200126
8.92446e-05
0.00150719
-0.000315166
0.000151059
0.0016704
-0.000312434
0.000157227
0.00181999
-0.000252242
0.000108773
0.00198499
-0.000198089
8.99252e-05
0.00214019
-0.000193435
4.79003e-05
0.00228177
-0.000181663
-6.01895e-06
0.00240287
-0.00013954
-9.1263e-05
0.00250022
-8.42292e-05
-0.000198107
0.0025463
-2.61947e-05
-0.00032482
0.00255385
2.83457e-05
-0.000475491
0.00250397
9.57169e-05
-0.000638579
0.00240973
0.000147153
-0.000796943
0.00225696
0.000188756
-0.00094017
0.00207024
0.000220475
-0.00106258
0.00184589
0.000237108
-0.00115745
0.00161891
0.000237325
-0.00122774
0.00137959
0.000225908
-0.00127009
0.0011789
0.000210523
-0.00131789
0.000976335
0.000205258
-0.00135309
0.000849681
0.000210048
-0.00143555
0.000718149
0.000227898
-0.0014936
0.000655926
0.000217432
-0.0015504
0.000606961
0.000210698
-0.00158442
0.000608777
0.000186169
-0.00162558
0.000614854
0.000181715
-0.00166355
0.000649004
0.000170056
-0.00169989
0.000670832
0.000161834
-0.00171402
0.000689566
0.000131694
-0.0016938
0.000696568
8.14245e-05
-0.00162318
0.000694434
1.15429e-05
-0.00149552
0.000681407
-5.95377e-05
-0.00130274
0.000662025
-0.00014059
-0.00105916
0.000647093
-0.000202071
-0.000783022
0.000641376
-0.000235911
-0.000498218
0.0006963
-0.000257386
-0.000262342
0.00075822
-0.000257402
-9.05403e-05
0.000782996
-0.000216776
-3.99781e-06
0.000744753
-0.000145783
0.000608607
-6.47119e-05
3.66366e-05
0.00149107
-0.00020331
0.000156341
0.00171601
-0.000328526
0.000258395
0.00189295
-0.000324609
0.000291176
0.00203463
-0.000247422
0.000261391
0.00219252
-0.000177738
0.000217849
0.00232243
-0.000138703
0.000164747
0.00245185
-0.000116974
9.51401e-05
0.00254832
-7.5842e-05
-3.93986e-06
0.00261355
-1.42398e-05
-0.000135572
0.00263313
4.48113e-05
-0.000300457
0.0026016
0.00011714
-0.000487438
0.00251929
0.000171668
-0.000678392
0.00239051
0.000210177
-0.000860843
0.00220269
0.000236719
-0.00102315
0.00198509
0.000247456
-0.0011589
0.00173978
0.000241866
-0.00126219
0.00149985
0.000222355
-0.00133568
0.00125923
0.000193862
-0.00137441
0.00105346
0.000164175
-0.00140332
0.000859627
0.000145617
-0.00141491
0.000719334
0.000141928
-0.00145622
0.000600517
0.00015894
-0.00148215
0.000521929
0.000159932
-0.00150807
0.000470803
0.000162082
-0.00151965
0.000464611
0.000155749
-0.00155013
0.000477874
0.000167461
-0.00158804
0.000510442
0.000176475
-0.00162987
0.000541988
0.000170671
-0.0016611
0.000574424
0.00014637
-0.00166891
0.000596148
0.000108235
-0.00163417
0.000603591
5.61103e-05
-0.0015397
0.00060677
-1.98221e-05
-0.00136696
0.000602895
-0.00011361
-0.00112171
0.000599431
-0.000197578
-0.000834059
0.000596431
-0.000242711
-0.000537304
0.000648081
-0.00024853
-0.00029159
0.00074117
-0.000228661
-0.000100577
0.00081586
-0.000223878
-6.02114e-06
0.000799751
-0.000149554
0.000672629
-7.00385e-05
6.38078e-05
0.00162063
-0.000193366
0.000210947
0.00189727
-0.000328389
0.000345977
0.00208201
-0.00032409
0.000398796
0.00221926
-0.000237452
0.000388162
0.00235359
-0.000150439
0.000338252
0.00246161
-8.92677e-05
0.000272266
0.0025721
-5.42655e-05
0.000185085
0.00264366
-8.15985e-06
6.55679e-05
0.00268431
4.87548e-05
-0.000102846
0.00267127
0.000130269
-0.000301491
0.00261509
0.000185156
-0.00052391
0.00250988
0.000231832
-0.00074093
0.0023444
0.00026313
-0.000949127
0.00213494
0.000275946
-0.00113256
0.00190042
0.000268098
-0.0012835
0.00164627
0.000244457
-0.00139423
0.00140065
0.000209935
-0.00146717
0.00116065
0.000171528
-0.00149821
0.000949613
0.000134877
-0.00150503
0.000756752
0.000109694
-0.00148559
0.000600853
9.90461e-05
-0.00147487
0.000478766
0.000111028
-0.00144784
0.000382229
0.000112672
-0.00143067
0.000336696
0.000116935
-0.00141682
0.000320313
0.000130449
-0.00142993
0.000339866
0.000151121
-0.00146044
0.000378372
0.000162586
-0.0015076
0.000425378
0.000163767
-0.00155467
0.000472802
0.0001487
-0.00159093
0.000507553
0.000124849
-0.00158565
0.000542725
5.55888e-05
-0.00153217
0.000563766
-1.04703e-05
-0.00140702
0.000572957
-9.52245e-05
-0.00118924
0.000572056
-0.000190387
-0.000905711
0.000571723
-0.00025882
-0.000590625
0.000596771
-0.000263777
-0.000316698
0.000693477
-0.000226228
-0.000115758
0.000820604
-0.000205679
-9.89141e-06
0.000842341
-0.000148459
0.000734388
-7.16457e-05
8.26408e-05
0.00170711
-0.000169121
0.000262602
0.00203018
-0.000312872
0.00042806
0.00222561
-0.000309059
0.000502328
0.00235632
-0.000211327
0.00050473
0.00246748
-0.000116297
0.000456329
0.00255885
-4.88434e-05
0.000363394
0.00264485
2.01957e-05
0.000249599
0.00270014
5.7322e-05
0.000108128
0.00270358
0.000122203
-8.54295e-05
0.00267459
0.000190238
-0.000323574
0.0026033
0.000249937
-0.000563031
0.0024622
0.000287135
-0.000815294
0.00228393
0.000312729
-0.00105412
0.00205979
0.000313972
-0.00126151
0.00181494
0.000292868
-0.00142639
0.00155858
0.000252578
-0.00154363
0.00131216
0.000205724
-0.00161292
0.00107104
0.000158897
-0.00162856
0.000848568
0.000116686
-0.00160349
0.000644243
8.74353e-05
-0.00154433
0.000467212
7.44874e-05
-0.0014727
0.000327816
7.93222e-05
-0.00139368
0.000225481
7.77258e-05
-0.00133346
0.000196037
8.04375e-05
-0.0012884
0.000184042
9.12102e-05
-0.0012729
0.000211156
0.000113211
-0.00128998
0.000261308
0.000134149
-0.0013328
0.000324774
0.000143424
-0.00139721
0.000388056
0.000149159
-0.00145918
0.000448508
0.00012102
-0.0015055
0.000499029
9.00165e-05
-0.00150292
0.000522195
3.89941e-05
-0.00142816
0.000524242
-2.60434e-05
-0.00125196
0.000518042
-0.000122179
-0.00098427
0.000523865
-0.000219827
-0.000653676
0.000555227
-0.00028905
-0.000337827
0.000633028
-0.000255403
-0.000125562
0.000790696
-0.000182355
-1.10876e-05
0.000878976
-0.00015111
0.00079872
-7.54174e-05
9.766e-05
0.00174988
-0.000140422
0.000305265
0.00211323
-0.00029065
0.000500066
0.00232282
-0.000292011
0.000596177
0.0024469
-0.000186694
0.00060888
0.0025362
-8.14228e-05
0.000559922
0.00260791
-9.57882e-08
0.000454617
0.00266402
8.6128e-05
0.00031389
0.00268958
0.000151291
0.000135127
0.00268505
0.000197291
-7.98224e-05
0.00263437
0.00025517
-0.00032691
0.00254571
0.000304672
-0.000608857
0.00239475
0.000349392
-0.000897655
0.00220685
0.000365876
-0.00116979
0.00197363
0.000358297
-0.00140287
0.00172127
0.000326753
-0.00158149
0.00146443
0.000272765
-0.00170593
0.00122271
0.00021389
-0.00176143
0.000969394
0.000157144
-0.00174331
0.000722438
0.000108008
-0.00167779
0.000505299
7.34323e-05
-0.00157797
0.00031594
5.1446e-05
-0.00146159
0.000173755
3.76845e-05
-0.00133445
8.02084e-05
1.81272e-05
-0.00121175
5.06456e-05
2.26925e-05
-0.00112655
6.23556e-05
3.64899e-05
-0.00107839
0.000109987
5.30092e-05
-0.00107488
0.000177328
8.04769e-05
-0.00111741
0.000257614
0.000109684
-0.00119274
0.000337748
0.000125637
-0.00129234
0.000410198
0.00013791
-0.00138093
0.000455789
0.000131833
-0.00143129
0.000469472
0.00010308
-0.00141283
0.000459663
4.61205e-05
-0.00129055
0.000438463
-4.26948e-05
-0.00106004
0.000435175
-0.000141827
-0.000739655
0.000482689
-0.000247842
-0.000395473
0.000576897
-0.000288047
-0.00013659
0.000735595
-0.000203784
-1.43547e-05
0.000890805
-0.000134065
0.000859364
-7.49946e-05
0.000111898
0.00173904
-0.000101057
0.000345123
0.00213679
-0.000256783
0.000566074
0.00236102
-0.000259155
0.00068223
0.00248294
-0.000152193
0.000702414
0.00255469
-3.86667e-05
0.000646218
0.00260145
6.26634e-05
0.00053326
0.00263005
0.000146937
0.00037412
0.00263147
0.000217249
0.0001735
0.0026118
0.000273869
-7.11015e-05
0.00254983
0.000329147
-0.000340726
0.00244154
0.000373802
-0.000656369
0.00229216
0.000418232
-0.000976853
0.00209782
0.000429515
-0.00128237
0.00186582
0.000413324
-0.00154613
0.00161148
0.000373551
-0.00173777
0.00134615
0.000309929
-0.0018634
0.00110909
0.000239248
-0.00189183
0.000831126
0.000166696
-0.00184694
0.000578186
9.9372e-05
-0.00175736
0.000360526
5.51917e-05
-0.00161856
0.000172001
5.13074e-06
-0.001448
3.96424e-05
-3.64508e-05
-0.00125009
-5.15711e-05
-6.6124e-05
-0.00107505
-6.95115e-05
-5.48851e-05
-0.000942879
-3.84822e-05
-3.13271e-05
-0.000864719
3.56467e-05
-3.82013e-06
-0.000845798
0.000130562
2.78439e-05
-0.000883217
0.000223188
7.18465e-05
-0.000967732
0.000307258
0.000115007
-0.00108097
0.000373199
0.000150239
-0.00120571
0.00041446
0.000166068
-0.00130972
0.000419751
0.000153725
-0.0013537
0.000396877
0.000106762
-0.00129763
0.000354168
2.82315e-05
-0.00111659
0.000325668
-7.15289e-05
-0.000811473
0.000350678
-0.000173107
-0.000459201
0.000483246
-0.00025862
-0.00015536
0.000671747
-0.000239991
-1.42626e-05
0.000884357
-0.000134654
0.000917582
-7.24831e-05
0.000122911
0.00167773
-6.15985e-05
0.000375636
0.00210323
-0.000219168
0.000619728
0.00234482
-0.00022788
0.000757511
0.00246297
-0.000117806
0.000788185
0.0025182
5.82261e-06
0.000731147
0.00254402
0.00011447
0.000610506
0.00254666
0.00020403
0.000436243
0.00252059
0.000285148
0.000213785
0.00248826
0.000345999
-5.30773e-05
0.00241376
0.000402933
-0.000357653
0.00229556
0.000450549
-0.000701608
0.00214615
0.000489967
-0.00105657
0.00195252
0.000500271
-0.00139142
0.00172411
0.000476561
-0.00167834
0.00147131
0.000427096
-0.00189356
0.00120662
0.000354742
-0.00201993
0.00096671
0.000268755
-0.00203178
0.000675626
0.00016734
-0.001959
0.000422815
8.25928e-05
-0.00182882
0.000218097
1.22498e-05
-0.0016468
5.17902e-05
-6.1806e-05
-0.00141635
-6.40169e-05
-0.000126798
-0.00116523
-0.000141236
-0.000161451
-0.000933512
-0.000141908
-0.000159319
-0.000754121
-9.38996e-05
-0.000123973
-0.000645344
-4.75498e-06
-6.83759e-05
-0.000606446
0.000101068
-9.40468e-06
-0.000635905
0.000204351
4.82957e-05
-0.000721762
0.000290855
0.000102258
-0.000848165
0.000345778
0.00015382
-0.000999833
0.000378439
0.000187686
-0.001145
0.000371937
0.000192981
-0.00124774
0.000337069
0.000162552
-0.00125888
0.000269628
9.5678e-05
-0.00114785
0.000212466
2.17373e-06
-0.000894857
0.000201075
-0.000103391
-0.00053307
0.000319598
-0.000198142
-0.000200149
0.00056835
-0.000229517
-1.83526e-05
0.00082879
-0.000126225
0.000958123
-5.89011e-05
0.000137732
0.0015512
-1.12049e-05
0.000407087
0.00199971
-0.000165825
0.000672059
0.00226022
-0.000180376
0.0008262
0.00238132
-7.24871e-05
0.000857171
0.00242041
6.68195e-05
0.000793588
0.00242565
0.000181951
0.000663873
0.00240073
0.000275649
0.000477702
0.00235142
0.000355346
0.000234304
0.00230181
0.000429854
-4.88065e-05
0.00220603
0.000490842
-0.000383893
0.00209759
0.00053306
-0.000759139
0.00195273
0.000568666
-0.00114772
0.00176676
0.000574337
-0.00151579
0.00154566
0.000546522
-0.00182461
0.00129529
0.000484839
-0.00205698
0.00103346
0.000405529
-0.00215966
0.000776664
0.000292722
-0.0021422
0.000490157
0.000168009
-0.00203663
0.000267062
5.01842e-05
-0.00188285
0.000109299
-4.49707e-05
-0.00165694
-1.97345e-05
-0.000154389
-0.00137487
-0.000117008
-0.000229077
-0.00106835
-0.000172835
-0.000274922
-0.000790753
-0.00014762
-0.000271885
-0.000571712
-7.98546e-05
-0.000233084
-0.000435488
1.67932e-05
-0.000157772
-0.00039524
0.000119817
-5.90001e-05
-0.000418659
0.000198682
2.90857e-05
-0.00049328
0.00026165
0.000103826
-0.000616485
0.000311646
0.00015734
-0.000777899
0.00033862
0.000201237
-0.00095119
0.000322612
0.000222619
-0.00110055
0.000276631
0.000209796
-0.00117467
0.000186176
0.000157565
-0.00113109
9.60131e-05
7.28814e-05
-0.000933712
4.2457e-05
-3.87592e-05
-0.00060098
0.000122572
-0.000135697
-0.000247847
0.000403224
-0.000187999
-2.28313e-05
0.000747702
-0.000143919
0.000984456
-4.9168e-05
0.000151004
0.00136045
3.975e-05
0.000431011
0.00184402
-0.000124322
0.000718334
0.002123
-0.000150091
0.000891695
0.00223421
-2.62539e-05
0.000937306
0.00225936
0.000115442
0.000876715
0.00224421
0.000242032
0.000738789
0.00219551
0.00034314
0.00053733
0.0021292
0.000423676
0.000276484
0.00207324
0.000489416
-4.23063e-05
0.00197775
0.000547076
-0.000410054
0.00187372
0.000591623
-0.000824174
0.00173634
0.00063051
-0.00125623
0.00156298
0.000635839
-0.00165919
0.00134447
0.000604156
-0.00199258
0.00109204
0.000536632
-0.00221586
0.000821183
0.00043555
-0.00228408
0.000539507
0.000305372
-0.00222554
0.00028505
0.000146575
-0.00210335
0.000139372
5.50735e-06
-0.0019132
3.61616e-05
-0.000117018
-0.0016581
-4.77664e-05
-0.000227067
-0.00132724
-0.000124103
-0.000323768
-0.000959734
-0.000153054
-0.000387288
-0.00063695
-9.0298e-05
-0.000380105
-0.000394526
4.15076e-06
-0.000326432
-0.000237476
9.84711e-05
-0.000238732
-0.000184488
0.000179895
-0.000113068
-0.000208236
0.000228644
-6.2144e-06
-0.000297749
0.00026453
8.66384e-05
-0.000425104
0.000276719
0.000162284
-0.000578516
0.000273826
0.0002182
-0.000756694
0.000245054
0.000255736
-0.000931967
0.000190883
0.000261021
-0.00105984
8.98966e-05
0.000224163
-0.00108457
-2.64573e-05
0.0001472
-0.000956556
-0.000131456
4.58905e-05
-0.000669967
-9.79946e-05
-6.60286e-05
-0.000297296
0.000163009
-0.000132452
-2.99641e-05
0.000619253
-0.000138875
0.000967699
-1.31996e-05
0.00016262
0.00111134
8.64921e-05
0.000430276
0.00162883
-5.24657e-05
0.000720129
0.00191857
-8.5424e-05
0.00090214
0.0020273
2.48967e-05
0.000942386
0.00204851
0.000170601
0.000879091
0.0020166
0.000290905
0.000734205
0.00194421
0.000396187
0.000512621
0.00186292
0.000487866
0.000248311
0.00179523
0.000542322
-7.88432e-05
0.00170549
0.00059941
-0.000443668
0.00160338
0.000635169
-0.000879941
0.00148004
0.000692579
-0.00133927
0.0013245
0.000697805
-0.00177724
0.00112264
0.000659797
-0.0021338
0.000879291
0.000569305
-0.00235362
0.000602736
0.000438262
-0.00237921
0.000284736
0.000280365
-0.00227557
9.66483e-05
8.47702e-05
-0.00211241
1.77001e-05
-4.14937e-05
-0.00190423
-1.87381e-05
-0.000153285
-0.00163519
-4.59214e-05
-0.000270882
-0.0012609
-9.93809e-05
-0.000399017
-0.000830988
-9.48414e-05
-0.000488123
-0.000472699
1.58015e-05
-0.000464391
-0.000219097
0.000137482
-0.000386936
-5.94453e-05
0.000217937
-0.000279115
-7.77708e-06
0.00027895
-0.000150719
-4.39855e-05
0.000278187
-1.3335e-05
-0.000130004
0.000263787
8.67584e-05
-0.000239972
0.000226408
0.000160275
-0.000384671
0.000189296
0.000229232
-0.000573553
0.000150106
0.000283833
-0.000775376
7.75245e-05
0.000315176
-0.000940051
-5.30635e-05
0.000307625
-0.00102028
-0.000193851
0.000247629
-0.000954361
-0.000347774
0.000150401
-0.000714061
-0.000371579
3.32831e-05
-0.000330388
-0.000155831
-6.48422e-05
-4.40046e-05
0.000417226
-8.43654e-05
0.000888099
3.56001e-05
0.000175105
0.000820458
0.000115774
0.000431165
0.00137729
-4.51513e-06
0.000719098
0.00167082
-4.01861e-05
0.000913499
0.00177127
6.16333e-05
0.000971425
0.00178322
0.000207368
0.000931605
0.00172825
0.000328174
0.000793884
0.00164744
0.000434498
0.000563768
0.00157012
0.00052291
0.000283664
0.00151084
0.000564494
-5.41699e-05
0.00143361
0.000609719
-0.000442806
0.00135347
0.000638538
-0.000920536
0.00124874
0.000709026
-0.00143841
0.00112324
0.000719132
-0.00193401
0.000948663
0.000669571
-0.00231738
0.000716702
0.000545951
-0.00250537
0.000430593
0.000360139
-0.00247264
0.000138009
0.000114002
-0.00227373
-2.92744e-05
-7.29954e-05
-0.0020589
-6.68414e-05
-0.000130292
-0.00184627
-4.60675e-05
-0.000185298
-0.0015885
-2.11344e-05
-0.000282564
-0.0011717
-6.45702e-05
-0.000451609
-0.000674236
-1.91796e-05
-0.000573131
-0.00028313
0.00013493
-0.000510233
-3.25345e-05
0.000276645
-0.000389754
9.1067e-05
0.000355934
-0.000261596
0.000113271
0.000380059
-0.000123317
6.63821e-05
0.000328751
-3.67493e-06
-1.75088e-05
0.000253991
9.36843e-05
-0.00013049
0.000175237
0.000164147
-0.000260461
8.56357e-05
0.000233622
-0.000398719
-1.75318e-05
0.000305889
-0.000582177
-9.63818e-05
0.000357364
-0.000787517
-0.000228092
0.000380375
-0.00096228
-0.000380411
0.000361325
-0.000974993
-0.000626425
0.00029136
-0.000801174
-0.000720609
0.000175212
-0.000435321
-0.000570357
4.86723e-05
-7.62775e-05
5.56152e-05
2.55956e-06
0.000750188
6.16344e-05
0.000157354
0.000544076
0.000119028
0.000404539
0.00112828
1.82824e-06
0.000700517
0.00141039
-3.55387e-05
0.000913666
0.00151463
4.34953e-05
0.000983446
0.00152689
0.000186553
0.000943222
0.00146894
0.000299533
0.000789658
0.00139548
0.000405526
0.000545347
0.00131453
0.000499905
0.00027273
0.0012425
0.000540952
-7.02073e-05