/*--------------------------------*- C++ -*----------------------------------*\
| =========                 |                                                 |
| \\      /  F ield         | OpenFOAM: The Open Source CFD Toolbox           |
|  \\    /   O peration     | Version:  v1806                                 |
|   \\  /    A nd           | Web:      www.OpenFOAM.com                      |
|    \\/     M anipulation  |                                                 |
\*---------------------------------------------------------------------------*/
FoamFile
{
    version     2.0;
    format      ascii;
    class       vectorField;
    location    "0.0925";
    object      currentcloudofpoints;
}
// * * * * * * * * * * * * * * * * * * * * * * * * * * * * * * * * * * * * * //


2409
(
(0.976401 1.44957 1.00438)
(0.905365 1.1471 1.23481)
(1.40593 1.23119 1.00001)
(1.11231 1.28624 0.757772)
(1.20669 1.29426 1.21896)
(1.07478 1.13924 1.00049)
(1.13284 1.52065 1.00935)
(0.563547 1.08257 0.960018)
(1.62054 1.34837 0.997931)
(1.19497 1.03768 0.771653)
(1.15162 1.1368 1.17593)
(1.36879 1.23364 1.06414)
(1.29366 1.2638 1.08817)
(1.26937 1.27984 1.12491)
(1.18185 1.27188 1.08808)
(1.39305 1.23368 1.03763)
(1.32115 1.23541 1.07298)
(1.27488 1.32947 1.12537)
(1.22543 1.28002 1.07264)
(1.19896 1.27072 1.13293)
(0.804343 0.958598 1.29859)
(0.709283 1.12703 1.37115)
(0.928997 1.2905 1.40221)
(0.984349 1.2341 1.33986)
(0.886474 1.00939 1.26617)
(0.718043 1.02369 1.35442)
(0.841514 1.20458 1.41923)
(0.986604 1.30648 1.38026)
(1.08046 1.23536 1.3)
(1.36631 1.2287 0.934299)
(1.27813 1.23174 0.916678)
(1.25253 1.27404 0.864295)
(1.16318 1.27735 0.89285)
(1.38879 1.22815 0.960815)
(1.31847 1.22222 0.928221)
(1.26463 1.25842 0.882204)
(1.2288 1.28813 0.879222)
(1.18849 1.28612 0.841872)
(1.01102 1.28068 0.612859)
(0.798338 1.16757 0.597306)
(0.792247 1.03973 0.628195)
(0.868823 0.975355 0.740623)
(0.994493 1.19897 0.719855)
(0.89898 1.22951 0.580098)
(0.785362 1.09269 0.607067)
(0.87295 0.989001 0.679351)
(0.759119 0.98197 0.972596)
(1.14878 1.35262 1.08717)
(1.12626 1.39546 1.30417)
(1.05735 1.37618 1.23227)
(0.986411 1.3763 1.03864)
(1.172 1.31862 1.18889)
(1.05805 1.35408 1.18975)
(1.11428 1.41488 1.31323)
(1.06199 1.34719 1.03892)
(0.995379 1.44239 1.03801)
(0.960044 1.30415 0.983332)
(1.08758 1.43736 0.6805)
(1.13003 1.47411 0.679609)
(1.06761 1.36423 0.827819)
(0.916976 1.37126 0.998979)
(1.05928 1.33301 0.975612)
(1.09562 1.50752 0.688762)
(1.10514 1.37349 0.699121)
(1.12406 1.33606 0.829531)
(0.878603 1.08085 1.26333)
(0.874778 1.07548 1.25326)
(0.798281 1.21622 1.09406)
(0.896496 1.44812 1.0305)
(0.874235 1.06963 1.27574)
(0.87552 1.07868 1.25811)
(0.863044 1.0782 1.24959)
(0.814378 1.33746 0.957624)
(0.873419 1.29677 1.01665)
(1.2248 1.49266 0.970243)
(1.35899 1.47226 1.00076)
(1.35602 1.4149 0.998045)
(1.37659 1.26604 1.00028)
(1.10397 1.48473 0.972035)
(1.30834 1.49824 0.988787)
(1.36853 1.44699 1.00056)
(1.32915 1.3872 0.995742)
(1.40935 1.25643 0.999509)
(0.461858 1.124 1.0866)
(0.507356 1.10038 1.20697)
(0.815784 1.1426 1.46381)
(0.991736 1.1266 1.43469)
(1.0958 1.02484 1.28722)
(0.995864 1.10814 1.35023)
(1.12831 1.15715 1.20842)
(0.625694 1.11315 1.1252)
(0.452958 1.12424 1.1467)
(0.665373 1.10919 1.40479)
(0.94485 1.13411 1.43513)
(1.08748 1.05126 1.42892)
(1.00264 1.08696 1.28839)
(1.10839 1.16191 1.26663)
(1.13919 1.15164 1.18411)
(1.24532 1.09741 1.32087)
(1.30195 1.12607 1.33978)
(1.35932 1.15565 1.31536)
(1.40884 1.19106 1.29352)
(1.46807 1.20759 1.25122)
(1.54049 1.25523 1.19549)
(1.60412 1.32078 1.11384)
(1.1826 1.09363 1.21433)
(1.2749 1.11392 1.33938)
(1.33127 1.13732 1.32525)
(1.38407 1.17469 1.30067)
(1.43483 1.19855 1.27324)
(1.50032 1.22507 1.2216)
(1.573 1.28439 1.15926)
(1.61581 1.3362 1.05737)
(0.474576 1.13977 0.876193)
(0.519878 1.06792 0.83227)
(0.83005 1.12485 0.514822)
(0.975054 1.12858 0.542789)
(1.10864 1.00702 0.701655)
(1.03387 1.11699 0.698935)
(1.10116 1.09763 0.792938)
(0.624474 1.1137 0.907765)
(0.473022 1.16467 0.84514)
(0.691245 1.09133 0.561485)
(0.934074 1.13057 0.542492)
(1.09113 1.0626 0.580492)
(1.03779 1.07699 0.739111)
(1.08009 1.12379 0.741165)
(1.13556 1.06038 0.814146)
(1.60071 1.32044 0.885803)
(1.54072 1.25901 0.802714)
(1.46729 1.21415 0.75021)
(1.40983 1.19606 0.709481)
(1.3628 1.16063 0.685653)
(1.31193 1.12777 0.660777)
(1.26673 1.0929 0.659294)
(1.61229 1.33486 0.939903)
(1.57187 1.28671 0.840455)
(1.50028 1.23088 0.776651)
(1.43484 1.20461 0.730512)
(1.38542 1.18103 0.699814)
(1.33863 1.14043 0.677611)
(1.28869 1.11147 0.659151)
(1.24432 1.05761 0.695455)
(0.923321 1.59023 1.1049)
(0.904105 1.56492 1.24489)
(0.896472 1.47523 1.29717)
(0.972245 1.50502 1.3722)
(0.952563 1.42933 1.43024)
(1.07642 1.24944 1.49469)
(1.15936 1.16044 1.25618)
(0.973499 1.56746 1.03061)
(0.920983 1.59301 1.20951)
(0.891212 1.51447 1.27544)
(0.925006 1.46726 1.3222)
(0.956804 1.47033 1.40065)
(1.00674 1.34746 1.46552)
(1.19648 1.16926 1.40381)
(1.20322 1.19331 1.23548)
(0.967533 1.6837 0.800023)
(0.895403 1.58273 0.762255)
(0.878919 1.49523 0.72108)
(0.976074 1.51534 0.625863)
(0.988592 1.39137 0.57466)
(1.10746 1.24149 0.518746)
(1.19951 1.08678 0.758854)
(0.990173 1.6917 0.882927)
(0.917307 1.62437 0.778685)
(0.876406 1.53072 0.744985)
(0.891859 1.48431 0.694139)
(0.987542 1.44833 0.591053)
(1.04384 1.31255 0.537652)
(1.17815 1.17785 0.595611)
(1.18698 1.07853 0.797383)
(0.603331 1.13769 0.974087)
(0.691524 1.10251 0.981)
(0.700382 1.0483 1.00908)
(0.789387 1.32664 0.981595)
(0.897969 1.49654 1.10014)
(0.99649 1.50279 1.00555)
(1.04177 1.50114 0.919436)
(0.560749 1.13838 0.970691)
(0.673344 1.13858 0.97256)
(0.67536 1.04842 1.00182)
(0.794638 1.13642 0.943357)
(0.827509 1.45171 1.07928)
(0.964685 1.5008 1.07094)
(1.01451 1.5022 0.911951)
(1.06637 1.51015 0.919441)
(1.21148 1.52834 1.06241)
(1.23605 1.5727 1.03582)
(1.27788 1.58064 1.0325)
(1.38405 1.54368 1.01183)
(1.48153 1.54367 1.00387)
(1.54673 1.50945 0.996388)
(1.59785 1.44279 0.99748)
(1.17734 1.52233 1.0622)
(1.23425 1.54373 1.04784)
(1.24831 1.58826 1.03507)
(1.32897 1.55415 1.01947)
(1.44635 1.54345 1.00819)
(1.52257 1.52359 0.998295)
(1.57715 1.46782 0.996072)
(1.6156 1.40109 0.997951)
(1.14574 1.23832 0.87346)
(1.14562 1.09303 0.833544)
(1.20854 1.28155 0.784241)
(1.16485 1.23134 1.12215)
(1.23439 1.2722 1.16887)
(1.17039 1.17195 1.16661)
(0.639796 0.946131 1.04574)
(0.839838 1.11261 0.899685)
(0.59006 1.04019 0.961273)
(1.50221 1.25501 0.996799)
(1.45905 1.24979 0.999225)
(1.55487 1.26746 0.996399)
(1.18556 1.58933 1.232)
(1.27541 1.67824 1.16501)
(1.23078 1.31584 1.27422)
(1.48973 1.49864 1.20339)
(1.07201 1.65438 1.13431)
(1.26525 1.18876 1.31508)
(1.57998 1.40556 1.18365)
(1.49919 1.43251 1.27325)
(1.12586 1.63569 1.23441)
(1.37364 1.63927 1.2449)
(1.37608 1.59622 1.2146)
(0.957774 1.53796 1.30377)
(1.39322 1.45863 1.30501)
(1.54183 1.4931 1.16618)
(1.27687 1.54106 1.30879)
(1.56941 1.48205 1.0842)
(1.27583 1.2721 1.32622)
(1.51835 1.52823 1.09972)
(0.995468 1.64007 1.21315)
(1.21489 1.14289 1.28691)
(1.11417 1.39201 1.41884)
(1.30003 1.44143 1.30737)
(1.48675 1.30755 1.28955)
(1.23539 1.62973 1.11197)
(0.996053 1.60217 1.29366)
(1.22888 1.45008 1.32973)
(1.40306 1.28862 1.32768)
(1.37949 1.38934 1.31575)
(0.974949 1.60629 1.0517)
(1.2001 1.11443 1.2496)
(1.607 1.42029 1.07798)
(1.16642 1.53042 1.33903)
(1.07822 1.48913 1.38871)
(1.32504 1.30105 1.33863)
(1.32479 1.56416 1.1263)
(1.44926 1.54827 1.13053)
(1.25427 1.14268 1.32603)
(1.28019 1.17442 1.34242)
(1.17314 1.13971 1.20069)
(1.22057 1.10259 1.28698)
(1.24339 1.13874 1.30354)
(1.30351 1.19851 1.34944)
(1.3326 1.21113 1.34363)
(1.27501 1.23485 1.32309)
(1.36099 1.22307 1.32972)
(1.38213 1.24175 1.32176)
(1.29922 1.28732 1.33489)
(1.40826 1.23839 1.30719)
(1.44178 1.23759 1.28433)
(1.36084 1.29937 1.33725)
(1.47617 1.24865 1.26331)
(1.51562 1.27184 1.23568)
(1.44305 1.28991 1.30952)
(1.5651 1.3225 1.19807)
(1.59577 1.3616 1.14857)
(1.53751 1.34678 1.24978)
(1.61243 1.3749 1.09798)
(1.61878 1.3872 1.03753)
(1.59554 1.41054 1.13218)
(1.60338 1.43212 1.03852)
(1.14088 1.62358 1.10656)
(1.06616 1.62586 1.07854)
(1.00003 1.63842 1.08216)
(1.08373 1.59958 1.06455)
(1.0794 1.56741 1.04985)
(1.27764 1.57744 1.09226)
(1.20748 1.60529 1.0919)
(1.16224 1.64441 1.1498)
(1.36669 1.55032 1.07727)
(1.31534 1.55907 1.07778)
(1.28959 1.58657 1.11778)
(1.47626 1.54349 1.06111)
(1.43322 1.55086 1.07804)
(1.37751 1.5495 1.18038)
(1.5379 1.51141 1.04869)
(1.50802 1.53092 1.05399)
(1.49325 1.53684 1.10995)
(1.58557 1.45724 1.04328)
(1.56053 1.4912 1.04008)
(1.5493 1.50008 1.09213)
(1.59049 1.44508 1.0852)
(1.15133 1.59831 1.23897)
(1.18799 1.66085 1.20989)
(1.21913 1.64801 1.21794)
(1.32406 1.66922 1.18827)
(1.27354 1.64341 1.22841)
(1.18815 1.66808 1.17476)
(1.2622 1.65925 1.13371)
(1.33045 1.63849 1.14933)
(1.38348 1.62774 1.21154)
(1.31279 1.60492 1.14544)
(1.2693 1.24747 1.29145)
(1.27477 1.29599 1.28409)
(1.24813 1.16019 1.28998)
(1.2334 1.23789 1.2951)
(1.2691 1.37123 1.27191)
(1.28848 1.34535 1.28012)
(1.1776 1.33823 1.3249)
(1.16998 1.27153 1.34337)
(1.21321 1.36612 1.28309)
(1.18779 1.40412 1.35166)
(1.2631 1.45824 1.31078)
(1.47682 1.52084 1.16944)
(1.50952 1.5129 1.15596)
(1.4489 1.51119 1.23031)
(1.41261 1.53377 1.21808)
(1.44464 1.43905 1.27294)
(1.45547 1.46378 1.26178)
(1.50363 1.46366 1.23739)
(1.51938 1.49316 1.186)
(1.53124 1.46082 1.22613)
(1.53408 1.50832 1.13269)
(1.44698 1.50324 1.2684)
(1.38416 1.51473 1.32436)
(1.05774 1.63209 1.24632)
(1.02608 1.65836 1.15005)
(1.10167 1.65742 1.19918)
(0.97109 1.63858 1.10694)
(0.95341 1.62384 1.14918)
(0.951544 1.60909 1.25349)
(0.940845 1.60444 1.0712)
(0.935803 1.58569 1.27127)
(0.912428 1.53728 1.27684)
(1.00104 1.61683 1.27332)
(0.920695 1.51236 1.27859)
(0.951609 1.48147 1.3146)
(0.976796 1.56669 1.31031)
(1.00582 1.46218 1.39986)
(1.01882 1.50024 1.37592)
(0.981193 1.50806 1.32297)
(1.03059 1.41497 1.43271)
(1.09052 1.30986 1.46335)
(1.10138 1.44386 1.40603)
(1.19271 1.198 1.38245)
(1.18251 1.13576 1.24682)
(1.18594 1.15597 1.22717)
(1.20824 1.13386 1.25133)
(1.10441 1.56337 1.31965)
(1.176 1.55715 1.2945)
(1.03064 1.54153 1.33028)
(1.22728 1.54583 1.30248)
(1.23487 1.5909 1.24035)
(1.08403 1.58257 1.30579)
(1.31328 1.58379 1.29052)
(1.5804 1.44249 1.13845)
(1.12527 1.51069 1.36394)
(1.16993 1.45109 1.38072)
(1.21299 1.49202 1.34903)
(1.25288 1.50879 1.32716)
(1.3413 1.58283 1.19899)
(1.56395 1.44685 1.18401)
(1.54267 1.41267 1.2423)
(1.48652 1.3745 1.29467)
(1.55931 1.48075 1.13068)
(1.43708 1.40691 1.29522)
(1.39588 1.43249 1.29482)
(1.42838 1.34966 1.3188)
(1.07393 1.61005 1.27567)
(1.33524 1.49445 1.33123)
(1.2923 1.49184 1.32515)
(1.34185 1.45357 1.31998)
(1.33846 1.41827 1.31064)
(1.30623 1.37193 1.29518)
(1.33125 1.34821 1.32485)
(1.37792 1.34121 1.33112)
(0.757791 1.38782 1.42781)
(0.65294 1.46602 1.18173)
(0.690754 1.18886 1.23948)
(0.615781 1.18333 1.27327)
(0.691986 1.4402 1.19027)
(0.885496 1.37028 1.45643)
(0.498194 1.18302 1.12129)
(0.865532 1.54178 1.23156)
(1.14308 1.16558 1.45255)
(0.701473 1.32409 1.19077)
(0.621774 1.20697 1.29295)
(0.782051 1.54299 1.23754)
(0.822481 1.47777 1.40887)
(0.991875 1.18731 1.46027)
(0.906862 1.44265 1.4513)
(0.849422 1.47793 1.34172)
(0.555343 1.11324 1.28485)
(1.0765 1.21971 1.48695)
(0.541613 1.19753 1.07469)
(0.835989 1.34396 1.19692)
(0.990165 1.24496 1.47655)
(0.799049 1.49081 1.28702)
(0.957505 1.36399 1.45127)
(0.777537 1.30593 1.12067)
(0.90825 1.26712 1.44624)
(0.880341 1.21041 1.4449)
(0.720641 1.2687 1.24879)
(0.741006 1.31688 1.42038)
(0.983489 1.17684 1.44413)
(0.889003 1.3076 1.45151)
(0.683176 1.22514 1.16881)
(0.697875 1.28527 1.17303)
(0.583141 1.12286 1.11542)
(1.13591 1.18788 1.30299)
(0.718241 1.22861 1.08721)
(0.828983 1.57397 1.09106)
(0.939917 1.38513 1.22553)
(0.503176 1.20533 1.10348)
(0.57846 1.15895 1.12872)
(0.598796 1.1492 1.25345)
(0.451043 1.21024 1.11331)
(0.516196 1.1768 1.07574)
(0.587289 1.09574 1.2805)
(0.57562 1.09849 1.26277)
(0.439773 1.19131 1.13334)
(0.508184 1.13278 1.14344)
(0.513062 1.13654 1.07549)
(0.527593 1.10293 1.2484)
(1.04913 1.11128 1.26273)
(1.10308 1.1694 1.30711)
(1.08822 1.15267 1.44296)
(1.14327 1.09899 1.42958)
(1.02721 1.20125 1.457)
(1.19711 1.20598 1.22894)
(1.21524 1.20013 1.21405)
(1.09456 1.1286 1.26108)
(0.713592 1.52376 1.21236)
(0.734761 1.50388 1.2374)
(0.684916 1.46957 1.19917)
(0.785712 1.51208 1.27385)
(0.719528 1.45063 1.20821)
(0.713016 1.43684 1.24869)
(0.725235 1.4487 1.23782)
(0.848898 1.50184 1.38013)
(0.68145 1.37297 1.16214)
(0.708576 1.41938 1.26423)
(0.801035 1.44952 1.2964)
(0.661962 1.38785 1.15971)
(0.671484 1.18341 1.27916)
(0.583579 1.172 1.09777)
(0.653766 1.18261 1.13375)
(0.627944 1.17613 1.10028)
(0.715952 1.16976 1.20643)
(0.693517 1.15077 1.23016)
(0.656109 1.14792 1.09039)
(0.7537 1.18866 1.07784)
(0.829226 1.53607 1.26128)
(0.835455 1.51318 1.28969)
(0.824176 1.57246 1.19499)
(0.875376 1.58558 1.18072)
(0.672865 1.47574 1.15466)
(0.737309 1.55494 1.17907)
(0.898677 1.51829 1.1245)
(0.870988 1.44984 1.4497)
(0.903211 1.49696 1.4146)
(0.887303 1.41307 1.45184)
(0.846717 1.40669 1.46069)
(0.790047 1.42733 1.43303)
(0.828945 1.37162 1.45338)
(0.697828 1.37809 1.26895)
(1.06226 1.14049 1.43641)
(1.00076 1.18843 1.44815)
(0.99958 1.22497 1.46596)
(1.03753 1.228 1.46756)
(0.965276 1.23956 1.46555)
(0.948626 1.26966 1.47223)
(0.978591 1.22728 1.45456)
(0.970821 1.22875 1.44604)
(0.901499 1.28914 1.44813)
(0.931585 1.48245 1.40914)
(0.92792 1.51248 1.37072)
(0.923555 1.44493 1.42843)
(0.944213 1.41068 1.43257)
(0.906674 1.42582 1.42974)
(0.912057 1.38968 1.43974)
(0.880697 1.45015 1.32364)
(0.852187 1.45937 1.30373)
(1.19637 1.08982 1.3333)
(1.0762 1.23005 1.49352)
(1.04352 1.25515 1.48351)
(1.02142 1.28832 1.48246)
(1.13476 1.17246 1.29954)
(1.16383 1.07882 1.26434)
(1.13437 1.19359 1.46502)
(1.06001 1.23824 1.4767)
(0.995985 1.3049 1.46739)
(0.66037 1.24449 1.26628)
(0.607661 1.20886 1.26481)
(0.733787 1.22748 1.25382)
(0.638949 1.27304 1.23422)
(0.718202 1.22616 1.15898)
(0.668902 1.20148 1.17977)
(0.729461 1.25015 1.22131)
(0.576679 1.16415 1.28611)
(0.881121 1.5398 1.23871)
(0.903537 1.5811 1.17792)
(0.892069 1.59964 1.11936)
(1.0689 1.49622 1.15756)
(0.856706 1.50153 1.28972)
(0.885015 1.3422 1.45098)
(0.818177 1.34181 1.4436)
(0.696116 1.31951 1.27843)
(0.724148 1.29346 1.23617)
(0.748952 1.35077 1.42685)
(0.680336 1.27964 1.28211)
(0.825492 1.31763 1.4371)
(0.638271 1.10289 1.06701)
(0.771009 1.18743 1.05433)
(0.769499 1.23983 1.02963)
(0.894008 1.41118 1.19145)
(0.835696 1.41722 1.15538)
(0.764619 1.31748 1.06957)
(0.735652 1.25476 1.10153)
(0.807902 1.32759 1.14833)
(0.962031 1.48155 1.19963)
(0.923717 1.4767 1.1919)
(0.891435 1.37998 1.23113)
(1.01244 1.4684 1.2402)
(0.984514 1.44725 1.21358)
(0.660943 1.15774 1.37962)
(0.970273 1.16957 1.43285)
(0.85339 1.17339 1.44928)
(0.68862 1.19143 1.3864)
(0.994169 1.15232 1.4373)
(0.975567 1.20536 1.43697)
(0.937878 1.31904 1.46338)
(0.718795 1.22725 1.40305)
(0.657243 1.34844 1.14406)
(0.698526 1.30615 1.18158)
(0.733158 1.27414 1.22052)
(0.91575 1.24603 1.44237)
(0.761967 1.26036 1.42436)
(0.705944 1.29115 1.36012)
(0.819415 1.29132 1.43363)
(0.739955 1.30289 1.18489)
(0.676568 1.35483 1.13486)
(0.732555 1.25619 1.16455)
(0.725845 1.27536 1.17104)
(0.700212 1.25927 1.17501)
(0.605058 1.26841 0.751317)
(0.702509 1.44234 0.760545)
(0.610774 1.08224 0.700823)
(0.652568 1.07233 0.678462)
(0.725653 1.57628 0.772908)
(0.878166 1.3436 0.578037)
(0.832956 1.58473 0.757251)
(1.0051 1.24111 0.524965)
(0.683369 1.22607 0.677163)
(0.643535 1.48445 0.806394)
(0.93173 1.22025 0.551113)
(0.877399 1.52466 0.640435)
(0.777349 1.4015 0.611099)
(0.647426 1.32509 0.76262)
(0.800275 1.32339 0.617071)
(0.725297 1.50483 0.776628)
(0.915519 1.38054 0.570729)
(0.609881 1.05251 0.802371)
(1.16593 1.10287 0.581195)
(0.606498 1.13455 0.839956)
(0.766337 1.23716 0.840546)
(0.749472 1.39465 0.788048)
(0.781309 1.29501 0.75702)
(0.722374 1.09331 0.791025)
(0.806963 1.49547 0.739772)
(0.659325 1.30006 0.810325)
(0.714418 1.18939 0.584048)
(0.752613 1.1852 0.71597)
(0.907557 1.44414 0.554556)
(0.909877 1.4727 0.786393)
(0.987333 1.1933 0.530059)
(0.656524 1.13197 0.868765)
(0.918074 1.6794 0.819409)
(0.708046 1.3137 0.609967)
(0.85177 1.47702 0.564392)
(1.16478 1.12822 0.767245)
(0.653066 1.28855 0.72117)
(0.616395 1.31084 0.75578)
(0.638103 1.19207 0.697989)
(0.626344 1.12413 0.70388)
(0.638768 1.1383 0.678853)
(0.671317 1.32034 0.62683)
(0.704436 1.38799 0.658702)
(0.617647 1.10519 0.757417)
(0.630425 1.25191 0.64882)
(0.711919 1.25408 0.598658)
(0.993963 1.2375 0.535737)
(0.967784 1.28729 0.546294)
(1.04966 1.19913 0.524662)
(0.892877 1.36847 0.577423)
(0.972824 1.30853 0.549331)
(1.04043 1.17692 0.536484)
(0.957802 1.26063 0.54665)
(0.841638 1.33706 0.594895)
(0.780628 1.35838 0.628221)
(0.816303 1.37688 0.60398)
(0.848367 1.40519 0.582947)
(0.932889 1.26687 0.554958)
(1.17993 1.09855 0.778321)
(1.16049 1.10138 0.812392)
(1.14076 1.13373 0.776082)
(0.774037 1.52624 0.75405)
(0.740198 1.53237 0.756437)
(0.791427 1.58074 0.75638)
(0.757798 1.4936 0.766018)
(0.803264 1.52313 0.75223)
(0.827006 1.63083 0.805736)
(0.761098 1.6158 0.831212)
(0.846657 1.51821 0.739513)
(0.847759 1.54587 0.751704)
(0.871186 1.62501 0.786136)
(0.884096 1.59737 0.772215)
(0.852869 1.64109 0.860161)
(1.1524 1.16491 0.545879)
(1.14669 1.08798 0.755226)
(1.00176 1.31249 0.544629)
(1.04773 1.23649 0.513479)
(1.14904 1.18604 0.538914)
(0.701448 1.27827 0.712189)
(0.688432 1.31291 0.74025)
(0.704114 1.12077 0.672329)
(0.733229 1.19532 0.681033)
(0.720721 1.24787 0.715932)
(1.08848 1.10685 0.722094)
(1.12005 1.13815 0.728603)
(1.15942 1.04456 0.629464)
(0.659934 1.39889 0.763911)
(0.679596 1.34645 0.797043)
(0.661387 1.41759 0.841771)
(0.626008 1.38476 0.841344)
(0.684278 1.50639 0.795573)
(0.688855 1.53136 0.771112)
(0.677433 1.462 0.832019)
(0.616935 1.49345 0.812963)
(0.652617 1.55271 0.836791)
(0.635629 1.35437 0.859008)
(0.754283 1.31771 0.629773)
(0.855166 1.27998 0.576944)
(0.77486 1.28335 0.612194)
(0.983045 1.20652 0.544561)
(1.02245 1.15145 0.550634)
(0.993082 1.15958 0.553211)
(0.810624 1.24125 0.572451)
(0.919503 1.16738 0.547835)
(1.0985 1.11339 0.558206)
(0.81491 1.48615 0.66129)
(0.766647 1.46718 0.744462)
(0.824555 1.46257 0.700431)
(0.962177 1.52519 0.608083)
(0.865152 1.48671 0.684105)
(0.850268 1.47914 0.714317)
(0.929682 1.48804 0.558723)
(0.960093 1.46422 0.572028)
(0.899873 1.51723 0.580288)
(0.819576 1.49868 0.619551)
(0.877044 1.45656 0.556052)
(0.789997 1.45936 0.603697)
(0.749434 1.4221 0.6408)
(0.745232 1.35444 0.636659)
(0.905019 1.41593 0.56803)
(0.837809 1.4299 0.572203)
(0.801144 1.43556 0.588892)
(0.951835 1.38346 0.573345)
(0.943534 1.42205 0.572641)
(0.625632 1.04086 0.724071)
(0.616477 1.03852 0.703066)
(0.622823 1.07901 0.685053)
(0.68256 1.05741 0.700823)
(0.662068 1.03757 0.717027)
(0.561336 1.05972 0.836946)
(0.631945 1.1283 0.603987)
(0.569851 1.11976 0.857721)
(0.548468 1.12017 0.792655)
(0.790533 1.16775 0.534929)
(0.854063 1.44158 0.764291)
(0.718967 1.09825 0.683651)
(0.7172 1.10491 0.757068)
(0.704834 1.06647 0.701916)
(0.73724 1.08964 0.721558)
(0.938394 1.67951 0.8042)
(0.965084 1.68168 0.904433)
(0.631863 1.24501 0.952009)
(0.604129 1.23879 0.939713)
(0.57913 1.23781 0.944135)
(0.557319 1.18133 0.921699)
(0.713398 1.12706 0.797101)
(0.753708 1.2238 0.942141)
(0.743267 1.21571 0.951021)
(0.737301 1.15261 0.818817)
(0.750123 1.35707 0.934709)
(0.733065 1.31105 0.863367)
(0.782964 1.25582 0.78506)
(0.807488 1.42672 0.892979)
(0.853108 1.44358 0.841591)
(0.780568 1.34012 0.740121)
(0.947372 1.41858 0.828007)
(0.933364 1.47861 0.856834)
(0.981022 1.40017 0.808009)
(0.913363 1.55612 0.927669)
(0.563256 1.12532 0.878774)
(0.475781 1.18856 0.861807)
(0.573058 1.14512 0.860012)
(0.760547 1.18874 0.743603)
(0.741431 1.24792 0.736292)
(0.695197 1.27796 0.775195)
(1.30482 1.63644 0.76972)
(1.16876 1.62804 0.759093)
(1.53976 1.48192 0.794986)
(1.21031 1.43031 0.670412)
(1.04926 1.67757 0.830566)
(1.58056 1.39483 0.818122)
(1.26231 1.19158 0.680362)
(1.25756 1.33785 0.717815)
(1.14648 1.65643 0.853835)
(1.24071 1.52024 0.665593)
(1.00655 1.56192 0.717342)
(1.30027 1.58826 0.827892)
(1.32559 1.45214 0.719851)
(1.203 1.27946 0.692178)
(1.38442 1.51333 0.695803)
(1.23372 1.15287 0.714691)
(1.50827 1.35071 0.720173)
(1.13995 1.34128 0.615187)
(1.17076 1.56392 0.92085)
(1.57494 1.47184 0.90692)
(1.50377 1.54823 0.897839)
(1.43275 1.44417 0.711094)
(1.29164 1.26018 0.650804)
(0.983917 1.61289 0.77714)
(1.18637 1.57453 0.855817)
(1.48368 1.53499 0.77666)
(1.3565 1.27682 0.656278)
(1.31948 1.38218 0.691185)
(1.00986 1.65526 0.915462)
(1.60678 1.40924 0.918455)
(1.24249 1.09376 0.705838)
(1.41996 1.58793 0.811753)
(1.42498 1.56181 0.925646)
(1.41261 1.30429 0.669889)
(0.911128 1.53871 0.756314)
(1.11549 1.47448 0.623873)
(1.60406 1.42437 0.956989)
(1.61703 1.38166 0.959064)
(1.60907 1.36817 0.900421)
(1.22592 1.64651 0.805468)
(1.18466 1.65532 0.802162)
(1.24943 1.63758 0.750496)
(1.1882 1.58012 0.692946)
(1.27492 1.58298 0.673994)
(1.30671 1.6226 0.795257)
(1.2193 1.62868 0.833185)
(1.31732 1.50024 0.676288)
(1.35667 1.58848 0.711111)
(1.366 1.61302 0.772073)
(1.37502 1.59428 0.825858)
(1.41485 1.57856 0.74848)
(1.22204 1.53217 0.956125)
(1.2352 1.53444 0.882444)
(1.04034 1.60182 0.946263)
(1.18527 1.53396 0.976205)
(1.10006 1.60238 0.957727)
(1.24641 1.54557 0.874654)
(1.26449 1.56744 0.898029)
(1.16397 1.56967 0.877446)
(1.28268 1.57119 0.872691)
(1.3282 1.5665 0.905715)
(1.23099 1.58956 0.83455)
(1.45954 1.54918 0.964338)
(1.39977 1.54871 0.958407)
(1.37111 1.57264 0.882464)
(1.49783 1.54327 0.947441)
(1.53606 1.51535 0.939431)
(1.47556 1.55641 0.911262)
(1.56595 1.48371 0.951107)
(1.58865 1.44807 0.949322)
(1.54809 1.5018 0.894)
(1.59262 1.43347 0.908167)
(1.21962 1.05951 0.743437)
(1.21873 1.08099 0.75841)
(1.25182 1.10179 0.675025)
(0.966956 1.64424 0.783877)
(0.998065 1.67801 0.807916)
(1.02029 1.67738 0.865588)
(0.997827 1.69063 0.83746)
(0.925361 1.59714 0.785448)
(1.03233 1.6513 0.787515)
(1.09987 1.63463 0.912707)
(1.0461 1.65579 0.909468)
(1.08672 1.66612 0.85801)
(1.10905 1.65786 0.797067)
(1.5606 1.4339 0.79685)
(1.52867 1.41914 0.744999)
(1.54849 1.36758 0.763444)
(1.52747 1.29581 0.764943)
(1.56498 1.32128 0.804577)
(1.58201 1.43352 0.856825)
(1.5956 1.40002 0.866913)
(1.56063 1.47184 0.845191)
(1.59392 1.35552 0.853316)
(0.90805 1.56064 0.777678)
(0.906839 1.48894 0.703694)
(0.896924 1.51665 0.739319)
(0.929584 1.57866 0.780111)
(1.05786 1.43744 0.601585)
(1.02808 1.5035 0.626887)
(0.933634 1.52331 0.710361)
(1.1333 1.27896 0.590162)
(1.08604 1.37925 0.582677)
(1.12979 1.41809 0.618949)
(1.22185 1.10837 0.732039)
(1.18827 1.17623 0.655612)
(1.1886 1.22327 0.677616)
(1.24558 1.11246 0.725976)
(1.28482 1.40336 0.728314)
(1.26952 1.43901 0.711709)
(1.22351 1.37152 0.710437)
(1.18995 1.3613 0.683384)
(1.23675 1.31076 0.713653)
(1.16795 1.30037 0.658388)
(1.17304 1.39184 0.658234)
(1.17608 1.4515 0.648718)
(1.14041 1.55715 0.695599)
(1.16696 1.51262 0.660559)
(1.23466 1.4815 0.677038)
(1.29612 1.47774 0.698931)
(1.04131 1.54493 0.678181)
(1.06508 1.61614 0.76837)
(1.08089 1.57784 0.725766)
(0.970662 1.58374 0.75832)
(1.26511 1.22145 0.709121)
(1.27375 1.2594 0.702441)
(1.27339 1.23212 0.665906)
(1.27728 1.30379 0.692237)
(1.23277 1.2102 0.707536)
(1.26314 1.16538 0.705359)
(1.26006 1.14296 0.685176)
(1.27801 1.18135 0.649257)
(1.31644 1.19217 0.650813)
(1.26434 1.14627 0.662815)
(1.28741 1.37081 0.712183)
(1.32863 1.42453 0.720368)
(1.29639 1.322 0.674221)
(1.14654 1.6262 0.88269)
(1.35313 1.47144 0.714161)
(0.934486 1.56068 0.76004)
(1.43247 1.57316 0.869732)
(1.41269 1.47487 0.720775)
(1.37665 1.44715 0.720774)
(1.37212 1.41201 0.694624)
(1.46249 1.48421 0.730916)
(1.43782 1.52936 0.728596)
(1.45707 1.56314 0.792927)
(1.41148 1.3827 0.676192)
(1.45694 1.31798 0.69073)
(1.46724 1.40274 0.701726)
(1.44452 1.25327 0.71732)
(1.48519 1.26955 0.738608)
(1.49228 1.45741 0.734571)
(1.35775 1.34329 0.662051)
(1.38152 1.29206 0.66319)
(1.32564 1.32848 0.662539)
(1.41196 1.25045 0.695991)
(1.39167 1.23553 0.687316)
(1.5296 1.51418 0.843031)
(1.50128 1.53762 0.835023)
(1.47488 1.55539 0.854462)
(1.51396 1.50179 0.782578)
(1.32375 1.27059 0.650814)
(1.34312 1.20827 0.661584)
(1.36765 1.21912 0.675916)
(1.00624 1.31945 1.35855)
(0.769125 0.95957 1.18737)
(0.799936 1.04758 1.19768)
(1.04074 1.31513 1.29978)
(0.917993 1.30724 1.19915)
(0.858993 1.29844 1.36271)
(0.801371 1.25968 1.39692)
(0.771495 1.25764 1.3663)
(0.848201 1.26605 1.3211)
(1.12113 1.24301 1.20704)
(0.809567 1.06232 1.09295)
(0.946954 1.30112 1.32242)
(1.02146 1.34667 1.16326)
(0.817525 1.02896 1.10376)
(0.945603 1.31079 1.06101)
(0.908097 1.29806 1.02344)
(0.937434 1.35431 1.03936)
(0.994397 1.34017 1.05809)
(1.05134 1.3649 1.1316)
(0.974403 1.33855 1.08132)
(0.728293 1.15909 1.35557)
(0.764514 1.27767 1.37524)
(0.752848 1.14987 1.3482)
(0.774046 1.01201 1.18909)
(0.788787 1.19131 1.3483)
(0.839282 1.01377 1.17011)
(0.830397 1.00823 1.14489)
(0.821904 0.987863 1.14911)
(0.811603 1.05091 1.09308)
(0.754695 1.1875 1.39099)
(0.709679 1.07262 1.33714)
(0.773473 0.944125 1.23497)
(0.837464 0.97179 1.20179)
(0.81443 1.23011 1.32024)
(0.872504 1.28784 1.24005)
(0.832056 1.21036 1.18979)
(0.830373 1.17445 1.2191)
(0.822707 1.01281 1.20284)
(0.940693 1.28129 1.27603)
(0.979046 1.34403 1.15255)
(1.02191 1.31129 1.13717)
(0.994866 1.33149 1.11119)
(0.909083 1.29523 1.07252)
(0.980329 1.24104 1.31515)
(0.995452 1.18019 1.30309)
(0.99024 1.20886 1.25725)
(1.13865 1.27136 1.24528)
(1.06537 1.24637 1.17942)
(1.01703 1.28993 1.30864)
(1.15766 1.31847 1.13434)
(1.07994 1.32241 1.14065)
(0.852986 1.28487 1.37995)
(0.79551 1.31222 1.36639)
(0.818267 1.27464 1.359)
(0.837087 1.28872 1.34898)
(0.892914 1.06266 1.1977)
(0.887471 1.06304 1.19489)
(0.893065 1.05334 1.19959)
(0.860135 1.03054 1.18456)
(0.958238 1.31459 1.38122)
(0.918528 1.29228 1.37936)
(0.967769 1.31528 1.36101)
(0.884238 1.26907 1.40378)
(0.993459 1.33752 1.35164)
(1.0743 1.3468 1.29516)
(1.04883 1.35598 1.30514)
(1.07182 1.38545 1.32858)
(1.02737 1.36017 1.34242)
(0.994604 1.30108 1.28641)
(0.896701 1.03385 1.22962)
(0.891098 1.27949 1.31198)
(0.89085 1.28593 1.34163)
(1.16541 1.43297 1.05385)
(1.31666 1.39003 1.01393)
(1.3345 1.41638 1.01142)
(1.33625 1.44548 1.07003)
(1.36511 1.40085 1.13085)
(1.1936 1.40866 1.16651)
(1.39081 1.38445 1.08572)
(1.37885 1.4316 1.06765)
(1.0946 1.37026 1.19521)
(1.37685 1.26488 1.03486)
(1.32585 1.41825 1.18891)
(1.19412 1.41364 1.17445)
(1.29346 1.48127 1.1244)
(1.09907 1.45968 1.0227)
(1.14298 1.36781 1.10326)
(1.36289 1.41556 1.02581)
(1.36353 1.39574 1.03517)
(1.39114 1.41698 1.08661)
(1.33043 1.45844 1.18033)
(1.38168 1.44371 1.12923)
(1.34374 1.42064 1.03414)
(1.30566 1.4475 1.03005)
(1.3683 1.40251 1.06521)
(1.32282 1.41776 1.01368)
(1.37271 1.41258 1.10235)
(1.38723 1.39588 1.10759)
(1.37149 1.42499 1.14086)
(1.04755 1.43808 1.03774)
(1.0905 1.48025 1.0164)
(1.10698 1.39876 1.04878)
(1.05095 1.39555 1.0261)
(1.09641 1.43802 1.02146)
(1.31157 1.32301 1.03278)
(1.33601 1.26204 1.04284)
(1.33572 1.30058 1.02044)
(1.38116 1.25498 1.04965)
(1.40963 1.25674 1.02491)
(1.16258 1.40051 1.10044)
(1.21555 1.43285 1.08047)
(1.27166 1.44748 1.07038)
(1.29258 1.41531 1.04561)
(1.31948 1.45082 1.14861)
(1.16026 1.38548 1.13254)
(1.16579 1.35529 1.16363)
(1.10684 1.37376 1.13447)
(1.08762 1.37035 1.23544)
(1.07626 1.372 1.14976)
(1.08657 1.36497 1.14784)
(1.15999 1.36594 1.07511)
(1.16424 1.39983 1.18655)
(1.0986 1.3846 1.22468)
(1.13342 1.3826 1.18718)
(1.28315 1.39455 1.1902)
(1.32025 1.41214 1.17135)
(1.32252 1.41408 1.15108)
(1.155 1.47148 0.998661)
(1.08444 1.39882 1.17283)
(1.18809 1.43751 1.09844)
(1.24798 1.46954 1.08897)
(1.2033 1.46431 1.02517)
(1.27312 1.43959 1.20053)
(1.2288 1.43201 1.17895)
(1.28764 1.41345 1.19386)
(1.37662 1.26416 1.01703)
(1.32873 1.34695 1.00621)
(1.32735 1.36178 1.0004)
(1.26881 1.48469 1.03)
(1.3385 1.47673 1.05427)
(1.36325 1.43538 1.01595)
(1.36541 1.45308 1.03473)
(1.33536 1.47688 1.12749)
(1.3393 1.43524 1.00737)
(1.1349 1.40646 0.810858)
(1.31024 1.35643 0.975121)
(1.29629 1.47791 0.879726)
(1.15249 1.42359 0.894045)
(1.33649 1.43877 0.900748)
(1.33907 1.40795 0.973435)
(1.17565 1.41029 0.771527)
(1.33725 1.43842 0.940224)
(1.14821 1.4185 0.756318)
(1.24753 1.4692 0.950893)
(1.35117 1.28769 0.981398)
(1.09735 1.36531 0.843399)
(1.37149 1.42585 0.978966)
(1.11363 1.46803 0.933568)
(1.07315 1.40159 0.963658)
(1.13471 1.4251 0.715613)
(1.05523 1.46739 0.956607)
(1.00256 1.40551 0.982247)
(1.11146 1.44182 0.930618)
(1.17121 1.41793 0.77295)
(1.15705 1.46534 0.705569)
(1.16926 1.42617 0.714934)
(1.08448 1.3639 0.746579)
(1.08572 1.37257 0.795049)
(1.0961 1.37385 0.87627)
(1.10257 1.37777 0.842236)
(1.13525 1.41401 0.847897)
(1.34532 1.43278 0.930563)
(1.27137 1.44504 0.870342)
(1.26699 1.44965 0.862359)
(1.27863 1.45973 0.891023)
(1.13827 1.3847 0.752824)
(1.15437 1.41434 0.801842)
(1.24766 1.44405 0.846315)
(1.17699 1.48593 0.939225)
(1.23654 1.44288 0.83521)
(1.21209 1.46172 0.859789)
(1.32532 1.45913 0.890809)
(1.18887 1.48085 0.908777)
(1.12503 1.35021 0.8278)
(1.14871 1.37418 0.830539)
(1.16705 1.39689 0.860174)
(1.28006 1.48043 0.95921)
(1.2896 1.48084 0.936059)
(1.33961 1.44118 0.962458)
(1.23969 1.47286 0.921742)
(1.35622 1.41506 0.953649)
(1.27083 1.45625 0.963626)
(1.28462 1.47161 0.972816)
(1.29776 1.28612 0.949132)
(1.28901 1.39863 0.950063)
(1.25489 1.44142 0.926578)
(1.20865 1.42394 0.900723)
(1.32059 1.45246 0.983782)
(1.32216 1.34611 0.981608)
(1.35885 1.25167 0.965272)
(1.33088 1.24678 0.955911)
(1.27437 1.5033 0.936209)
(1.36414 1.42148 0.989928)
(1.36259 1.46384 0.982762)
(1.34516 1.47646 0.947855)
(1.3065 1.49703 0.935536)
(1.36503 1.27113 0.986812)
(1.33399 1.39201 0.991515)
(1.34033 1.41319 0.987924)
(1.35664 1.41957 0.975508)
(1.39271 1.25167 0.976038)
(1.36309 1.44258 0.954972)
(0.933047 1.2858 0.777948)
(0.687803 1.25177 0.935143)
(0.860958 1.36076 0.63682)
(0.698086 1.19614 0.91272)
(0.88472 1.27906 0.599742)
(1.0284 1.31808 0.8952)
(0.777146 1.13589 0.637732)