/*--------------------------------*- C++ -*----------------------------------*\
| =========                 |                                                 |
| \\      /  F ield         | OpenFOAM: The Open Source CFD Toolbox           |
|  \\    /   O peration     | Version:  v1806                                 |
|   \\  /    A nd           | Web:      www.OpenFOAM.com                      |
|    \\/     M anipulation  |                                                 |
\*---------------------------------------------------------------------------*/
FoamFile
{
    version     2.0;
    format      ascii;
    class       volVectorField;
    location    "0.116";
    object      U_0;
}
// * * * * * * * * * * * * * * * * * * * * * * * * * * * * * * * * * * * * * //

dimensions      [0 1 -1 0 0 0 0];


internalField   nonuniform List<vector> 
64000
(
(-0.0117304 -0.0140966 -0.0101563)
(0.0167494 -0.0133213 -0.00753053)
(0.0227953 -0.00450295 7.84037e-05)
(0.0278663 -0.0036507 0.00127384)
(0.0293278 -0.00262186 0.00157425)
(0.0304264 -0.00319395 0.00194842)
(0.0310315 -0.00414281 0.00185031)
(0.0293458 -0.00493307 0.00242591)
(0.0296125 -0.00610407 0.00290671)
(0.0248973 -0.00612748 0.00429711)
(0.0201123 -0.00765833 0.00249508)
(0.0109656 -0.00775039 0.00832339)
(0.000196358 -0.0121069 0.00643606)
(-0.0211605 -0.0179376 0.0044363)
(-0.0447038 -0.0191596 0.00415808)
(-0.0789832 -0.0202087 0.00313054)
(-0.0992268 -0.00380644 0.000679953)
(-0.143148 -0.00543886 -0.00317091)
(-0.134356 -0.00924858 0.00245241)
(-0.196698 -0.0257003 -0.0109333)
(-0.167262 -0.0193918 -0.0169336)
(-0.0776127 -0.0221958 -0.0365346)
(-0.0967699 -0.00505182 -0.0219252)
(-0.0961071 -0.00203598 -0.0361531)
(-0.118801 0.00412566 -0.0469364)
(-0.112331 0.012015 -0.0574585)
(-0.10252 0.0225188 -0.0618975)
(-0.0656851 0.0329904 -0.058988)
(-0.0334523 0.0408497 -0.0542006)
(0.0112482 0.0525985 -0.0400881)
(0.0568842 0.0496747 -0.032642)
(0.0942944 0.0395096 -0.0256181)
(0.109275 0.0294335 -0.0124797)
(0.106418 0.015385 -0.00529697)
(0.0916514 0.00657318 0.00117755)
(0.0726803 -0.00150491 0.00370923)
(0.053011 -0.00562582 0.00484998)
(0.0323805 -0.00527848 0.00576041)
(0.0173784 -0.00388092 0.00598702)
(0.00280757 -0.00242786 0.00383481)
(-0.00825373 0.0039554 -0.0061514)
(0.0081253 -0.0174504 -0.00627469)
(0.0231666 -0.0111205 -0.00255189)
(0.0349377 -0.00772341 -0.000895783)
(0.0415319 -0.00327225 -0.00164013)
(0.042877 -0.00140307 -0.00178833)
(0.04263 0.00201824 -0.00383473)
(0.0368236 0.00359237 -0.00294404)
(0.0312611 0.00659749 -0.00837265)
(0.0150554 0.0137313 -0.00358689)
(-0.00485557 0.0208768 -0.00794614)
(-0.0378414 0.0298921 0.000226295)
(-0.0810784 0.039086 -0.00367228)
(-0.131346 0.0561547 -0.00657469)
(-0.185904 0.0714099 -0.0117881)
(-0.241379 0.0809075 -0.0169977)
(-0.306588 0.0894098 -0.0432936)
(-0.40864 0.0911257 -0.0595847)
(-0.448924 0.0983937 -0.0776428)
(-0.539339 0.100827 -0.0949941)
(-0.487519 0.127808 -0.0876406)
(-0.366105 0.144192 -0.123831)
(-0.36808 0.191637 -0.130437)
(-0.354612 0.213143 -0.143084)
(-0.351249 0.237214 -0.155204)
(-0.311706 0.258231 -0.162255)
(-0.266754 0.279435 -0.163904)
(-0.194125 0.294796 -0.152442)
(-0.121968 0.301586 -0.132887)
(-0.0496611 0.306158 -0.109235)
(0.0134104 0.291372 -0.0752987)
(0.0780865 0.259732 -0.0458617)
(0.114592 0.210923 -0.0381722)
(0.126857 0.159372 -0.0254714)
(0.121019 0.109176 -0.0120797)
(0.101757 0.0695088 -0.00461833)
(0.0815152 0.0412919 -0.000316671)
(0.0563851 0.0263259 0.000591327)
(0.0337471 0.0165935 0.00175773)
(0.00842148 0.00853437 0.00156139)
(-0.000564741 -0.00268718 0.00139827)
(0.0148197 -0.0225166 -0.00245979)
(0.0310986 -0.0170662 -0.00321828)
(0.0426815 -0.00552114 -0.00424427)
(0.0462029 0.00294966 -0.00611064)
(0.0449465 0.0132076 -0.00763746)
(0.0389816 0.0271319 -0.00897754)
(0.0242804 0.0397274 -0.0107731)
(0.0112098 0.0634242 -0.00260504)
(-0.0162507 0.0838035 -0.00402846)
(-0.0530469 0.111033 -0.00814456)
(-0.102379 0.139748 -0.0125846)
(-0.153881 0.176316 -0.0174607)
(-0.22614 0.205179 -0.0313152)
(-0.313967 0.22669 -0.0373879)
(-0.409818 0.24203 -0.0436863)
(-0.486389 0.248129 -0.0610374)
(-0.572241 0.26401 -0.0801531)
(-0.604967 0.297096 -0.0980839)
(-0.681201 0.334688 -0.115004)
(-0.613882 0.371454 -0.0990007)
(-0.464987 0.406662 -0.123895)
(-0.444519 0.462697 -0.121441)
(-0.419452 0.491869 -0.122351)
(-0.407357 0.523661 -0.12621)
(-0.363073 0.5443 -0.125437)
(-0.317511 0.558894 -0.120806)
(-0.250898 0.561157 -0.105178)
(-0.188038 0.551358 -0.0824334)
(-0.122126 0.530474 -0.0591288)
(-0.0685191 0.499383 -0.0389443)
(-0.02424 0.450031 -0.0274487)
(0.00876137 0.377414 -0.0158865)
(0.0326697 0.304143 -0.00782985)
(0.0450048 0.225681 -0.0100613)
(0.0507522 0.161853 -0.0103637)
(0.0504162 0.115165 -0.00650705)
(0.0406122 0.0784922 -0.00449593)
(0.0287491 0.0525726 -0.00106579)
(0.00851569 0.0270775 0.00140796)
(0.00117779 -0.0080415 0.00225303)
(0.0175733 -0.0243806 -0.00159218)
(0.0371582 -0.0120147 -0.00423893)
(0.0443245 0.00416534 -0.00767452)
(0.0429018 0.0274179 -0.00818057)
(0.0400782 0.0506344 -0.00950741)
(0.027577 0.0840657 -0.00916791)
(0.0108842 0.115087 -0.00477959)
(-0.013704 0.160348 -0.0107885)
(-0.0574548 0.198213 -0.0127073)
(-0.102543 0.242169 -0.0176902)
(-0.160422 0.280135 -0.0235262)
(-0.236478 0.310398 -0.0294649)
(-0.326309 0.326301 -0.030078)
(-0.406163 0.348471 -0.0334283)
(-0.482694 0.371194 -0.0377258)
(-0.544295 0.40353 -0.0540713)
(-0.616634 0.43298 -0.064391)
(-0.635653 0.479188 -0.0749003)
(-0.70152 0.528949 -0.0781997)
(-0.621965 0.559326 -0.0394804)
(-0.451455 0.587102 -0.0449879)
(-0.417969 0.625973 -0.0360095)
(-0.39223 0.630736 -0.0288029)
(-0.381014 0.643726 -0.0276511)
(-0.345479 0.642832 -0.0233997)
(-0.311673 0.635261 -0.0199329)
(-0.261493 0.614958 -0.0118344)
(-0.216151 0.588452 0.000499121)
(-0.170642 0.554126 0.00784724)
(-0.141584 0.51225 0.0124731)
(-0.115572 0.466091 0.0111659)
(-0.0917261 0.406654 0.00522569)
(-0.0680672 0.344402 -0.00244371)
(-0.0442142 0.267253 -0.00586141)
(-0.0151123 0.200807 -0.0103719)
(0.00401042 0.146909 -0.010182)
(0.0114646 0.111269 -0.00767006)
(0.018457 0.0781967 -0.00320246)
(0.00691323 0.0395457 0.00120728)
(0.00080811 -0.00876676 0.000489379)
(0.0223972 -0.0142569 -0.00365097)
(0.0438859 0.00279943 -0.00850637)
(0.0527025 0.0351615 -0.0087376)
(0.0509018 0.0718986 -0.00903768)
(0.044576 0.116484 -0.0146344)
(0.0269686 0.172086 -0.012387)
(0.000973388 0.226581 -0.00588213)
(-0.0295254 0.282832 -0.00877931)
(-0.08024 0.329963 -0.0110461)
(-0.135995 0.368591 -0.0144484)
(-0.2095 0.391977 -0.0168014)
(-0.282085 0.411533 -0.0173916)
(-0.350278 0.435944 -0.0201276)
(-0.414084 0.466124 -0.022676)
(-0.481777 0.498879 -0.023535)
(-0.530871 0.529954 -0.0290147)
(-0.586306 0.560665 -0.0277589)
(-0.584235 0.619721 -0.0207725)
(-0.634849 0.670416 -0.0283556)
(-0.557391 0.696662 0.011851)
(-0.380566 0.706506 0.0184176)
(-0.343886 0.715418 0.0328861)
(-0.327523 0.684429 0.0368862)
(-0.329089 0.668363 0.0361993)
(-0.312705 0.640648 0.0415606)
(-0.298554 0.608872 0.0430181)
(-0.267166 0.570393 0.0472316)
(-0.242397 0.528347 0.0404018)
(-0.216349 0.48707 0.0315911)
(-0.198091 0.441254 0.0212185)
(-0.187472 0.407414 0.0139872)
(-0.177939 0.368984 0.00703586)
(-0.167013 0.338134 -0.00486727)
(-0.1441 0.277398 -0.0139486)
(-0.0971027 0.208173 -0.0146423)
(-0.0471336 0.160597 -0.0133941)
(-0.0135762 0.130934 -0.011477)
(0.00466575 0.0969253 -0.00574373)
(0.00406031 0.0495999 0.00129055)
(0.00458009 -0.00193061 -0.000252114)
(0.0270322 0.00295608 -0.00657267)
(0.057028 0.0304654 -0.00769923)
(0.0673998 0.0808994 -0.00960308)
(0.0629982 0.137393 -0.0146637)
(0.0619559 0.199889 -0.0178266)
(0.0418869 0.273721 -0.0145342)
(0.00933059 0.325508 -0.00520334)
(-0.0357726 0.370645 -0.00789218)
(-0.102518 0.404829 -0.010003)
(-0.167997 0.434518 -0.0121733)
(-0.230261 0.461512 -0.0118269)
(-0.284732 0.493849 -0.0103246)
(-0.340089 0.524626 -0.00688514)
(-0.384715 0.551868 -0.00155898)
(-0.434127 0.580851 0.00426768)
(-0.464829 0.610986 0.00824676)
(-0.490067 0.642734 0.0108589)
(-0.477456 0.692297 0.00773252)
(-0.519433 0.735735 0.00994566)
(-0.446025 0.754978 0.0464328)
(-0.289549 0.715648 0.056742)
(-0.271064 0.694139 0.0697923)
(-0.276598 0.631302 0.0777103)
(-0.291762 0.593211 0.0781652)
(-0.294843 0.549387 0.0764812)
(-0.296479 0.507738 0.0736612)
(-0.285068 0.464201 0.066417)
(-0.272823 0.41711 0.0641514)
(-0.260483 0.377269 0.0422575)
(-0.251719 0.333195 0.0301115)
(-0.240083 0.302016 0.0143987)
(-0.22567 0.275393 0.00412852)
(-0.228169 0.264011 -0.00694622)
(-0.230449 0.240697 -0.0181976)
(-0.169041 0.192228 -0.0147379)
(-0.0879151 0.160828 -0.0150787)
(-0.037073 0.135436 -0.0117616)
(-0.00304977 0.104029 -0.00655637)
(0.00304794 0.0527407 0.00203609)
(0.00467734 0.00427886 -0.00176139)
(0.0361864 0.018526 -0.0097477)
(0.078328 0.0588409 -0.0109131)
(0.100472 0.114509 -0.0131816)
(0.0967017 0.180921 -0.0189515)
(0.0934434 0.25372 -0.0214663)
(0.0541153 0.314552 -0.015937)
(-0.00633895 0.345895 -0.00132682)
(-0.0529104 0.387464 -0.00697212)
(-0.107562 0.423657 -0.00714072)
(-0.151928 0.465401 -0.00697952)
(-0.199074 0.507283 -0.00470043)
(-0.241317 0.546211 -0.000678692)
(-0.284426 0.578557 0.00363164)
(-0.319078 0.610807 0.0122595)
(-0.351677 0.635569 0.0171104)
(-0.366333 0.663746 0.0249669)
(-0.387163 0.679648 0.0279287)
(-0.359078 0.69896 0.031395)
(-0.380836 0.710401 0.0173418)
(-0.369362 0.73204 0.0430969)
(-0.2433 0.625419 0.0596827)
(-0.218552 0.586962 0.0677394)
(-0.240985 0.519897 0.0763624)
(-0.267493 0.483031 0.0751221)
(-0.288191 0.444125 0.0733812)
(-0.306003 0.411297 0.0690776)
(-0.3117 0.376186 0.0606537)
(-0.312409 0.3396 0.0463285)
(-0.312653 0.304725 0.0290226)
(-0.309886 0.2714 0.0150655)
(-0.301379 0.242671 0.00112548)
(-0.285339 0.22139 -0.00573094)
(-0.27547 0.206115 -0.0131994)
(-0.278391 0.216003 -0.0205834)
(-0.220617 0.192156 -0.0209731)
(-0.122902 0.166595 -0.0214237)
(-0.052416 0.145756 -0.01656)
(-0.00840442 0.11323 -0.0101715)
(0.00294881 0.0576061 0.000517885)
(0.00607296 0.0114756 -0.00417603)
(0.0440624 0.0380582 -0.0136051)
(0.0969069 0.0863058 -0.0139704)
(0.12169 0.142652 -0.0121183)
(0.125306 0.202237 -0.0136545)
(0.108991 0.27296 -0.0158992)
(0.0484577 0.302201 -0.00502751)
(0.00436283 0.349899 0.00158333)
(-0.0239996 0.393843 -0.00259191)
(-0.0715895 0.447252 -0.000604552)
(-0.109511 0.490018 0.000182775)
(-0.148621 0.527194 0.00631336)
(-0.182275 0.557446 0.0122137)
(-0.211055 0.58229 0.0209499)
(-0.231821 0.60575 0.0253016)
(-0.256714 0.618462 0.0303296)
(-0.268052 0.629848 0.0340077)
(-0.283858 0.623657 0.0335557)
(-0.273984 0.627501 0.0313666)
(-0.281555 0.587544 0.0172935)
(-0.315067 0.608935 0.0211878)
(-0.238531 0.50772 0.0419242)
(-0.194274 0.455345 0.0447833)
(-0.225965 0.409095 0.0557913)
(-0.259423 0.381703 0.0578223)
(-0.293038 0.355967 0.0586023)
(-0.320894 0.333468 0.0591222)
(-0.339232 0.307329 0.0502084)
(-0.35167 0.28132 0.0386693)
(-0.358374 0.251322 0.015147)
(-0.360188 0.219843 0.00442672)
(-0.349977 0.194731 -0.00502866)
(-0.334025 0.181714 -0.0126911)
(-0.311758 0.170458 -0.0153431)
(-0.317122 0.189775 -0.0245054)
(-0.269994 0.194657 -0.0205464)
(-0.157909 0.171097 -0.0218186)
(-0.0711509 0.153763 -0.0164142)
(-0.013442 0.119063 -0.00972379)
(0.00353654 0.0602855 0.00151319)
(0.00467657 0.0264158 -0.00692231)
(0.0524325 0.0700798 -0.017468)
(0.117171 0.125464 -0.019181)
(0.148068 0.181426 -0.0138701)
(0.155438 0.242174 -0.0157984)
(0.121005 0.29025 -0.0147778)
(0.0693513 0.326731 -0.00621066)
(0.0337063 0.38426 0.00152778)
(0.00809954 0.420222 0.00735117)
(-0.0233119 0.461227 0.00653623)
(-0.0600678 0.493883 0.0111803)
(-0.0906103 0.520276 0.0156149)
(-0.113912 0.538667 0.0249044)
(-0.134099 0.548906 0.0311785)
(-0.152651 0.55025 0.0344633)
(-0.173101 0.541552 0.035046)
(-0.188003 0.53198 0.034055)
(-0.207365 0.508742 0.0294907)
(-0.223748 0.49479 0.0228163)
(-0.227528 0.450185 0.0113531)
(-0.277675 0.455625 -0.00196064)
(-0.255963 0.405515 0.0166534)
(-0.1987 0.345692 0.0233499)
(-0.221721 0.327095 0.0331821)
(-0.259681 0.310004 0.0395632)
(-0.300271 0.294753 0.0439335)
(-0.337227 0.280138 0.0485116)
(-0.364007 0.259252 0.042556)
(-0.386264 0.238146 0.0251261)
(-0.403725 0.205503 0.00674783)
(-0.405885 0.180769 -0.00314781)
(-0.392204 0.157381 -0.00980788)
(-0.37661 0.143296 -0.0136956)
(-0.345458 0.14256 -0.023918)
(-0.333013 0.153935 -0.026971)
(-0.300241 0.189171 -0.0299737)
(-0.194393 0.173611 -0.0249765)
(-0.0872264 0.162921 -0.0234764)
(-0.0188917 0.128216 -0.0125329)
(0.00442352 0.0660806 -0.000529175)
(0.00701893 0.043118 -0.00936673)
(0.0615944 0.107797 -0.0251745)
(0.135737 0.167289 -0.0244125)
(0.173991 0.221475 -0.0160951)
(0.172441 0.273967 -0.0165506)
(0.140361 0.305822 -0.0174521)
(0.102427 0.354382 -0.00613705)
(0.0708582 0.398743 0.00497742)
(0.0428101 0.436866 0.0119254)
(0.0175551 0.460713 0.022237)
(-0.00573103 0.482195 0.0209759)
(-0.0325123 0.493178 0.0298272)
(-0.055178 0.496433 0.0358629)
(-0.0746794 0.486723 0.0416444)
(-0.0926742 0.466651 0.0430392)
(-0.114834 0.439433 0.0401895)
(-0.13625 0.412677 0.0343852)
(-0.159907 0.380391 0.0265969)
(-0.188182 0.358156 0.0174393)
(-0.197541 0.330483 0.00854417)
(-0.250559 0.322994 -0.0111951)
(-0.26719 0.312967 0.000433614)
(-0.207537 0.275872 0.0113921)
(-0.21474 0.272742 0.0182974)
(-0.256618 0.260279 0.0291555)
(-0.300436 0.25256 0.0362782)
(-0.342535 0.236802 0.0450348)
(-0.377762 0.222298 0.036751)
(-0.408867 0.194934 0.0263618)
(-0.424612 0.168561 0.00960194)
(-0.43122 0.141361 0.00964293)
(-0.425198 0.117539 0.0162747)
(-0.405114 0.098297 0.0115078)
(-0.376168 0.0980859 0.00848781)
(-0.354158 0.11014 -0.0143515)
(-0.323872 0.156904 -0.0251616)
(-0.225207 0.167773 -0.0241629)
(-0.106419 0.160342 -0.0197801)
(-0.0250978 0.13321 -0.0116166)
(0.00519703 0.0681429 0.00079589)
(0.00801241 0.067071 -0.0116955)
(0.0706704 0.151599 -0.0309923)
(0.15411 0.214379 -0.0302546)
(0.196248 0.263668 -0.0189004)
(0.191913 0.300085 -0.0133512)
(0.166282 0.335677 -0.0161477)
(0.141321 0.375508 -0.00543302)
(0.110669 0.411977 0.00131896)
(0.0867492 0.439455 0.00909993)
(0.0598702 0.458953 0.0235179)
(0.0342584 0.463448 0.0343527)
(0.0145501 0.460418 0.0440215)
(-0.00359742 0.44699 0.0473163)
(-0.0274423 0.41954 0.0479295)
(-0.0521087 0.390672 0.0480708)
(-0.0767163 0.35312 0.0427414)
(-0.104133 0.322299 0.0336838)
(-0.133359 0.292393 0.0231759)
(-0.166216 0.270889 0.0131588)
(-0.181777 0.256534 0.00379549)
(-0.230875 0.245708 -0.0134537)
(-0.25409 0.247628 -0.00559237)
(-0.199142 0.241462 0.00544129)
(-0.202907 0.235987 0.0112832)
(-0.243132 0.225722 0.0238097)
(-0.290358 0.215452 0.0320841)
(-0.337394 0.20312 0.0402854)
(-0.376638 0.18295 0.0357486)
(-0.412059 0.159604 0.0238028)
(-0.436877 0.130351 0.0315876)
(-0.452456 0.0956024 0.0330458)
(-0.453096 0.0676453 0.0176287)
(-0.438039 0.0513274 0.0126006)
(-0.402674 0.0483083 0.00234892)
(-0.36302 0.0604492 -0.00107405)
(-0.333786 0.107562 -0.0227919)
(-0.250515 0.144957 -0.0271039)
(-0.12432 0.155663 -0.0217819)
(-0.0287658 0.13543 -0.0132091)
(0.00454645 0.071827 -0.000736087)
(0.00946628 0.0868765 -0.0123117)
(0.0766611 0.191462 -0.03483)
(0.167556 0.256652 -0.033298)
(0.209062 0.294686 -0.0181106)
(0.21114 0.323339 -0.0118162)
(0.196591 0.356954 -0.00908331)
(0.175281 0.388486 -0.00718169)
(0.148973 0.411675 0.00446879)
(0.122978 0.431243 0.0106781)
(0.0978516 0.437063 0.020742)
(0.0766486 0.437492 0.0288981)
(0.0522198 0.423323 0.0495005)
(0.0254799 0.397309 0.0534341)
(0.00643538 0.360107 0.0552614)
(-0.0186286 0.322745 0.0476358)
(-0.0499545 0.288754 0.0419324)
(-0.0783828 0.25987 0.0303587)
(-0.110954 0.237243 0.0189198)
(-0.144526 0.22227 0.00931799)
(-0.165359 0.217733 -0.000195398)
(-0.213551 0.209018 -0.0141867)
(-0.228532 0.211379 -0.00673217)
(-0.178419 0.218626 0.00118184)
(-0.182357 0.205201 0.00717655)
(-0.220903 0.192877 0.019242)
(-0.265669 0.178321 0.0282845)
(-0.315331 0.165412 0.0350851)
(-0.357805 0.144241 0.0282208)
(-0.397875 0.119054 0.0421143)
(-0.432704 0.0850171 0.0482023)
(-0.455663 0.0520328 0.0400162)
(-0.458886 0.0251691 0.0498956)
(-0.451122 0.00237837 0.0390717)
(-0.429982 -0.00290747 0.0369622)
(-0.391083 0.00481475 0.0257445)
(-0.350188 0.0505548 0.00681569)
(-0.264499 0.104549 -0.022227)
(-0.139557 0.138813 -0.0234017)
(-0.0356549 0.13059 -0.0124617)
(0.00596735 0.071236 -0.000522517)
(0.00979241 0.107681 -0.0111073)
(0.0812997 0.231124 -0.0369066)
(0.173053 0.297051 -0.0357928)
(0.221373 0.326229 -0.0187381)
(0.234809 0.350421 -0.00634143)
(0.226483 0.375008 -0.00101339)
(0.20611 0.397018 0.00240904)
(0.181531 0.410761 0.00273538)
(0.160023 0.418845 0.0134187)
(0.135254 0.418368 0.0233811)
(0.1109 0.407689 0.0322635)
(0.0843018 0.38428 0.0397274)
(0.0578049 0.352833 0.0480115)
(0.0279913 0.314885 0.0544341)
(0.00355979 0.272293 0.0493189)
(-0.0233533 0.239546 0.0382342)
(-0.0570721 0.216402 0.0268246)
(-0.0894693 0.19892 0.0149663)
(-0.120818 0.188995 0.00706756)
(-0.143458 0.188232 -0.00203187)
(-0.188559 0.180542 -0.0119802)
(-0.189768 0.186035 -0.00472983)
(-0.146609 0.194505 0.000285982)
(-0.157003 0.174601 0.00526)
(-0.188986 0.157823 0.0166715)
(-0.232848 0.141288 0.0249621)
(-0.279954 0.122815 0.0292094)
(-0.325935 0.102784 0.0414845)
(-0.373079 0.0732937 0.0524164)
(-0.413929 0.0416694 0.052004)
(-0.441014 0.0105323 0.0700639)
(-0.466974 -0.0276411 0.0501437)
(-0.474792 -0.067573 0.0347962)
(-0.457374 -0.0890151 0.0111206)
(-0.412936 -0.0789424 0.00401775)
(-0.368966 -0.032877 0.00526037)
(-0.287443 0.0524405 0.00135272)
(-0.155593 0.106439 -0.0273887)
(-0.0408117 0.120098 -0.0118558)
(0.00532998 0.0707391 -0.00169363)
(0.00916299 0.116412 -0.0105042)
(0.0792116 0.255763 -0.0396693)
(0.173479 0.324806 -0.0401651)
(0.228306 0.351943 -0.0215672)
(0.252665 0.367231 -0.00342307)
(0.251124 0.380435 0.00590675)
(0.232203 0.391871 0.011732)
(0.208171 0.398931 0.014048)
(0.186963 0.400747 0.0172323)
(0.164024 0.393413 0.0208169)
(0.14039 0.375557 0.027817)
(0.110934 0.34645 0.0376417)
(0.0792026 0.311968 0.0391534)
(0.0492824 0.272442 0.0425318)
(0.0203708 0.238211 0.0455417)
(-0.00448832 0.202427 0.0358544)
(-0.0327018 0.18502 0.0224251)
(-0.0656461 0.170068 0.0119473)
(-0.0923504 0.162316 0.00529484)
(-0.115355 0.163911 -0.0029216)
(-0.152957 0.152151 -0.00897023)
(-0.141615 0.16872 -0.00116407)
(-0.110728 0.166817 -0.0012024)
(-0.126234 0.142771 0.00495605)
(-0.152753 0.123001 0.0128183)
(-0.191869 0.100047 0.0207799)
(-0.236661 0.0822158 0.0267134)
(-0.282313 0.0571245 0.0440473)
(-0.331905 0.0319771 0.0498039)
(-0.37434 0.00191235 0.0689992)
(-0.426806 -0.0400144 0.052094)
(-0.471633 -0.0924456 0.0416193)
(-0.488872 -0.136881 0.0265682)
(-0.475015 -0.169507 0.0135194)
(-0.433022 -0.172306 -0.00846318)
(-0.371794 -0.136149 -0.00703661)
(-0.294133 -0.0337424 -0.00210672)
(-0.177355 0.0627143 -0.0145379)
(-0.046818 0.101822 -0.0184308)
(0.00751146 0.0674865 -0.000206438)
(0.0078268 0.123628 -0.00804701)
(0.0782083 0.277251 -0.0387517)
(0.173784 0.35138 -0.0414742)
(0.235361 0.375637 -0.0223769)
(0.266847 0.38295 -0.00142308)
(0.269795 0.383116 0.0125539)
(0.25522 0.385774 0.0224103)
(0.234918 0.386576 0.0247749)
(0.215792 0.384085 0.0273522)
(0.191202 0.371268 0.0284991)
(0.164186 0.34912 0.0295292)
(0.134815 0.316473 0.0277527)
(0.103111 0.280244 0.0283096)
(0.0706118 0.241718 0.0305749)
(0.0385026 0.208409 0.0334472)
(0.0145784 0.18048 0.031448)
(-0.00895626 0.156502 0.0179226)
(-0.0403432 0.146028 0.00883769)
(-0.0591277 0.14018 0.00413778)
(-0.083823 0.136676 -0.00448199)
(-0.105329 0.129436 -0.00348476)
(-0.0881156 0.153509 0.00109953)
(-0.0791738 0.13598 0.00142505)
(-0.0961783 0.111324 0.00508854)
(-0.119183 0.086599 0.0116652)
(-0.152236 0.0624588 0.0164336)
(-0.190942 0.0412576 0.0327859)
(-0.234489 0.0193667 0.0417875)
(-0.279902 -0.00616595 0.0575557)
(-0.340531 -0.0443322 0.0495905)
(-0.402855 -0.0954112 0.0449257)
(-0.453427 -0.146327 0.0343138)
(-0.485565 -0.196773 0.0217645)
(-0.48796 -0.238726 0.0054174)
(-0.453003 -0.258486 -0.0128235)
(-0.385277 -0.231321 -0.0196117)
(-0.296236 -0.145797 -0.0173333)
(-0.185646 -0.00032119 0.00335987)
(-0.0580636 0.0729014 -0.021265)
(0.00541178 0.0617816 -0.00126376)
(0.00549286 0.108267 -0.00840152)
(0.0717193 0.274668 -0.0391094)
(0.167773 0.354974 -0.0410561)
(0.23422 0.380406 -0.0215127)
(0.272989 0.38244 0.00214451)
(0.284265 0.378828 0.0162542)
(0.276659 0.376505 0.0229121)
(0.257577 0.370106 0.0269283)
(0.236719 0.359175 0.0286182)
(0.211941 0.342214 0.0290569)
(0.185092 0.318462 0.0283155)
(0.153289 0.287923 0.0248699)
(0.119222 0.252634 0.0201484)
(0.08713 0.216104 0.0137763)
(0.0584412 0.185016 0.0154637)
(0.030557 0.161709 0.0198706)
(0.0114229 0.140667 0.0134655)
(-0.00710956 0.125336 0.0047878)
(-0.0270029 0.119747 0.000342043)
(-0.0460551 0.112839 -0.00455751)
(-0.0483674 0.123902 0.00137735)
(-0.042647 0.126781 0.00239902)
(-0.0540891 0.105195 0.00419393)
(-0.0699878 0.0794292 0.00608951)
(-0.0895313 0.0541725 0.00983306)
(-0.116031 0.0293489 0.016672)
(-0.147461 0.0076477 0.0273586)
(-0.185104 -0.0181016 0.0404973)
(-0.240274 -0.051371 0.0411744)
(-0.300945 -0.0967095 0.0420099)
(-0.361823 -0.142765 0.0376225)
(-0.419302 -0.197932 0.0319069)
(-0.460848 -0.254894 0.0207324)
(-0.478673 -0.309034 0.00616803)
(-0.457417 -0.342502 -0.0127269)
(-0.398503 -0.333475 -0.0254461)
(-0.294418 -0.257188 -0.0284703)
(-0.190837 -0.105028 -0.0171122)
(-0.0691559 0.0339153 -0.0145049)
(0.0072332 0.0512859 -0.00482292)
(0.00688416 0.109328 -0.00180655)
(0.0720146 0.282032 -0.0314497)
(0.16651 0.366515 -0.0360983)
(0.23885 0.38953 -0.0158548)
(0.287134 0.386079 0.00906743)
(0.306818 0.374061 0.0167006)
(0.300064 0.364938 0.0257397)
(0.279703 0.351584 0.0275117)
(0.259437 0.33899 0.0270511)
(0.235349 0.318853 0.0241678)
(0.208364 0.293547 0.0210283)
(0.17699 0.259715 0.0160095)
(0.141622 0.224567 0.0100418)
(0.10798 0.1889 0.00602064)
(0.0793497 0.158961 0.00137616)
(0.0560911 0.135183 0.00445402)
(0.0341289 0.122136 0.00376094)
(0.0166548 0.113142 -0.00049934)
(0.00909307 0.11507 -0.00273911)
(0.00561379 0.113059 -0.00177258)
(-0.00258332 0.117247 0.00201517)
(-0.0149901 0.0976143 0.00458934)
(-0.0308373 0.076444 0.00629156)
(-0.0483229 0.0512383 0.00722582)
(-0.0655582 0.0265401 0.00983435)
(-0.0867583 0.00171349 0.0185539)
(-0.11568 -0.022425 0.0277768)
(-0.157915 -0.0545802 0.0294777)
(-0.208434 -0.0903646 0.0325827)
(-0.26374 -0.12987 0.0330881)
(-0.32336 -0.17613 0.0331213)
(-0.380319 -0.2321 0.0298533)
(-0.427061 -0.293488 0.0224229)
(-0.455266 -0.358964 0.00914719)
(-0.448109 -0.408454 -0.00876943)
(-0.399686 -0.423689 -0.0252985)
(-0.303789 -0.361626 -0.0369456)
(-0.185243 -0.2192 -0.0285395)
(-0.0637716 -0.0250894 -0.00945935)
(-0.000442537 0.0345924 -0.00572658)
(-0.00315816 0.0860458 -0.0131715)
(0.0514006 0.267703 -0.0379658)
(0.148117 0.362879 -0.0438809)
(0.229095 0.388877 -0.0224367)
(0.287789 0.386682 -0.0013625)
(0.319777 0.367194 0.01233)
(0.322959 0.350011 0.0191463)
(0.305101 0.328824 0.0207514)
(0.283016 0.309723 0.0186569)
(0.254604 0.293537 0.0154443)
(0.223506 0.276948 0.0119881)
(0.18842 0.255836 0.00911154)
(0.153359 0.228193 0.00545585)
(0.12153 0.196054 0.00223534)
(0.0968938 0.168073 -0.000556654)
(0.078691 0.146261 0.000227489)
(0.0705438 0.138948 -0.000164425)
(0.0668438 0.134269 -0.00360811)
(0.0554829 0.129797 -0.00568911)
(0.0405871 0.113987 -0.00367668)
(0.0222033 0.0973317 -0.000729029)
(0.0038349 0.0735821 0.00360514)
(-0.0127185 0.0489195 0.00666776)
(-0.0305216 0.0243344 0.00884899)
(-0.0460057 0.000281326 0.0104814)
(-0.0655266 -0.0244235 0.0142023)
(-0.0944416 -0.0531447 0.0156876)
(-0.131079 -0.0874603 0.0180042)
(-0.17582 -0.122878 0.0200361)
(-0.226522 -0.166553 0.0223475)
(-0.2807 -0.213238 0.0238655)
(-0.335439 -0.27227 0.0235464)
(-0.384504 -0.337201 0.0190062)
(-0.420506 -0.412179 0.00925627)
(-0.427242 -0.475447 -0.00762321)
(-0.390611 -0.509184 -0.0228705)
(-0.303939 -0.465981 -0.0475775)
(-0.19027 -0.336335 -0.0413163)
(-0.0646869 -0.112902 -0.010853)
(0.000337412 0.0198676 0.00196924)
(-0.00266455 0.154283 -0.00144643)
(0.0476854 0.351991 -0.0151831)
(0.13672 0.451563 -0.0256305)
(0.220233 0.474193 -0.00663006)
(0.288156 0.464574 -4.252e-05)
(0.326403 0.432183 0.0156273)
(0.334032 0.397401 0.021161)
(0.317194 0.373241 0.0236523)
(0.305553 0.367568 0.0207741)
(0.290219 0.362014 0.0151803)
(0.264236 0.349812 0.00834137)
(0.225699 0.328196 0.00172644)
(0.179971 0.296488 -0.00317578)
(0.142337 0.259633 -0.00533628)
(0.118419 0.226764 -0.00738453)
(0.111079 0.197991 -0.00544051)
(0.103177 0.174955 -0.00146506)
(0.0877871 0.149811 -0.00703357)
(0.0699317 0.124213 -0.0109778)
(0.054792 0.0975765 -0.00655884)
(0.0383523 0.0712728 -0.00377643)
(0.0169283 0.0467835 0.00107913)
(-0.000263256 0.0239601 0.00665774)
(-0.0163824 -0.00272996 0.00928942)
(-0.0309458 -0.02401 0.00938434)
(-0.0518037 -0.0498644 0.00869105)
(-0.0818625 -0.0744288 0.00860677)
(-0.118452 -0.104623 0.00861279)
(-0.161162 -0.135119 0.0107871)
(-0.205019 -0.175053 0.0139376)
(-0.25148 -0.220536 0.0170546)
(-0.298342 -0.28048 0.0189978)
(-0.344443 -0.350499 0.0177255)
(-0.383123 -0.43574 0.0106839)
(-0.396815 -0.518734 -0.00463094)
(-0.371007 -0.582851 -0.0244521)
(-0.304675 -0.582611 -0.0538436)
(-0.194173 -0.454059 -0.0544261)
(-0.05341 -0.23574 -0.0276835)
(0.0076672 -0.0252949 -0.00278957)
(-0.0165571 0.225413 -0.0179352)
(0.0191347 0.464636 -0.0375795)
(0.105701 0.575089 -0.046004)
(0.190869 0.613639 -0.0294484)
(0.26202 0.604237 -0.0202193)
(0.3081 0.570701 -0.00104848)
(0.337264 0.523553 0.00702522)
(0.35538 0.487647 0.00809531)
(0.354407 0.465619 0.000561078)
(0.32207 0.436475 -0.00549708)
(0.278859 0.399898 -0.00947524)
(0.227502 0.357774 -0.0111175)
(0.178418 0.311268 -0.0119109)
(0.143887 0.271312 -0.0123189)
(0.123454 0.235867 -0.0132825)
(0.110865 0.203039 -0.0118247)
(0.103964 0.164654 -0.00857026)
(0.0963895 0.132707 -0.00231996)
(0.0821613 0.103086 -0.00527344)
(0.0654612 0.078203 -0.00743496)
(0.0475109 0.0509947 -0.00370439)
(0.0309309 0.0261278 0.00100171)
(0.0113814 0.0036196 0.00626718)
(-0.00452185 -0.0226692 0.00903722)
(-0.0169749 -0.047004 0.00941405)
(-0.0355273 -0.0764497 0.00923929)
(-0.0617326 -0.101693 0.00534664)
(-0.0930239 -0.130411 0.00153837)
(-0.131034 -0.161543 -0.00328251)
(-0.17401 -0.20557 -0.006061)
(-0.219285 -0.251934 -0.00621514)
(-0.264113 -0.31427 -0.00566133)
(-0.30781 -0.382806 -0.00407184)
(-0.349241 -0.475732 -0.00596706)
(-0.378098 -0.571741 -0.0160013)
(-0.37924 -0.670944 -0.0315966)
(-0.308066 -0.699914 -0.0553861)
(-0.222795 -0.599318 -0.0737637)
(-0.081728 -0.322595 -0.0329688)
(0.0167891 -0.058267 -0.00294523)
(0.000504595 0.18833 0.00450872)
(0.0360258 0.429629 -0.0336424)
(0.10815 0.554255 -0.0458369)
(0.192986 0.609819 -0.0418195)
(0.262826 0.611368 -0.0323972)
(0.309952 0.588398 -0.0201024)
(0.335199 0.545933 -0.0122744)
(0.344244 0.498408 -0.00452472)
(0.339687 0.446753 -0.00737366)
(0.311119 0.402224 -0.00817375)
(0.273275 0.360394 -0.00905057)
(0.226472 0.320067 -0.00875782)
(0.183639 0.279931 -0.00874356)
(0.156102 0.246737 -0.00883162)
(0.137347 0.21535 -0.00915004)
(0.124448 0.185084 -0.00800846)
(0.114487 0.154204 -0.00612885)
(0.105489 0.118797 -0.00399571)
(0.0921835 0.0887711 -9.67803e-05)
(0.0767934 0.0606353 -0.000941095)
(0.0581961 0.037588 -0.00309741)
(0.039873 0.012653 -0.000224214)
(0.0203568 -0.0092622 0.0046096)
(0.00273231 -0.0329929 0.00838321)
(-0.0132069 -0.0584423 0.0109476)
(-0.0314064 -0.0883349 0.0138311)
(-0.0546554 -0.115462 0.0124334)
(-0.0874741 -0.14457 0.00864626)
(-0.130324 -0.171701 0.00422472)
(-0.166711 -0.214182 0.00309274)
(-0.200731 -0.261676 0.00132046)
(-0.232453 -0.33445 -0.00101118)
(-0.268908 -0.424523 -0.00564154)
(-0.305205 -0.555586 -0.0114032)
(-0.338872 -0.692643 -0.0174972)
(-0.34816 -0.822511 -0.0261855)
(-0.298484 -0.881777 -0.0469053)
(-0.193344 -0.831648 -0.062064)
(-0.0720147 -0.530155 -0.0604105)
(-0.00462216 -0.155367 0.0108559)
(-0.00174514 0.202375 -0.0013097)
(0.0303172 0.417935 -0.0310151)
(0.0948812 0.540644 -0.0418354)
(0.170745 0.593537 -0.0395991)
(0.237841 0.596357 -0.0228781)
(0.288371 0.569685 -0.0162575)
(0.321601 0.525355 -0.00689461)
(0.336818 0.480073 -0.000955576)
(0.337741 0.431209 -0.00235738)
(0.314695 0.389973 -0.00345911)
(0.275315 0.350584 -0.00474438)
(0.227868 0.310224 -0.00524607)
(0.188422 0.273429 -0.0063661)
(0.164053 0.240016 -0.00719689)
(0.146367 0.208044 -0.00751792)
(0.133422 0.175981 -0.00647226)
(0.119377 0.14494 -0.0057578)
(0.109759 0.109277 -0.00246325)
(0.0994368 0.0750558 -0.00135741)
(0.0865125 0.046323 0.00206793)
(0.0691336 0.0240176 0.000351991)
(0.0519192 0.00025172 -0.00129644)
(0.0328344 -0.0183961 0.000771838)
(0.0137058 -0.0392603 0.0046129)
(-0.00344466 -0.0615934 0.00883332)
(-0.0207705 -0.0871071 0.0119035)
(-0.041074 -0.109971 0.0132461)
(-0.0641235 -0.134997 0.0124944)
(-0.102808 -0.15071 0.00778051)
(-0.146204 -0.17161 0.00669512)
(-0.191987 -0.202109 0.00841578)
(-0.239854 -0.25982 0.0116087)
(-0.295977 -0.337982 0.0155275)
(-0.340166 -0.463395 0.0181517)
(-0.352302 -0.615237 0.0124313)
(-0.346118 -0.785211 0.00429125)
(-0.301887 -0.909001 -0.0125978)
(-0.203971 -0.933326 -0.0398818)
(-0.0517849 -0.709577 -0.0502702)
(0.0232947 -0.270851 -0.0139295)
(0.00222393 0.187264 -0.0022221)
(0.0359559 0.385534 -0.0245395)
(0.0943253 0.513817 -0.0359878)
(0.165024 0.571913 -0.0348303)
(0.228014 0.58517 -0.0233452)
(0.273899 0.563631 -0.0132535)
(0.308828 0.521641 -0.00358588)
(0.323495 0.473409 0.00185157)
(0.324371 0.420776 0.000509278)
(0.306766 0.372545 -0.00131375)
(0.270283 0.328663 -0.00319052)
(0.228108 0.288109 -0.00400091)
(0.194922 0.254327 -0.00538148)
(0.174306 0.22193 -0.00601305)
(0.157689 0.191515 -0.00628318)
(0.145414 0.160257 -0.00545218)
(0.13045 0.129924 -0.00446774)
(0.115345 0.0982592 -0.00416617)
(0.10514 0.0624178 -7.22882e-05)
(0.0978381 0.0311117 0.000920641)
(0.0811329 0.0114258 0.00173333)
(0.0645856 -0.00962844 0.000547815)
(0.047199 -0.0265295 -3.76887e-05)
(0.0261909 -0.0460661 0.00175807)
(0.00687675 -0.064659 0.00606757)