/*--------------------------------*- C++ -*----------------------------------*\
| =========                 |                                                 |
| \\      /  F ield         | OpenFOAM: The Open Source CFD Toolbox           |
|  \\    /   O peration     | Version:  v1806                                 |
|   \\  /    A nd           | Web:      www.OpenFOAM.com                      |
|    \\/     M anipulation  |                                                 |
\*---------------------------------------------------------------------------*/
FoamFile
{
    version     2.0;
    format      ascii;
    class       volScalarField;
    location    "0.072";
    object      p;
}
// * * * * * * * * * * * * * * * * * * * * * * * * * * * * * * * * * * * * * //

dimensions      [0 2 -2 0 0 0 0];


internalField   nonuniform List<scalar> 
64000
(
8.31414e-06
-0.104192
-0.23762
-0.316133
-0.376617
-0.421428
-0.466688
-0.505657
-0.537896
-0.581277
-0.593366
-0.651937
-0.664532
-0.710285
-0.707562
-0.753124
-0.698342
-0.776948
-0.63181
-0.85258
-0.534869
-0.762623
-0.626222
-0.706684
-0.5544
-0.521113
-0.386772
-0.326968
-0.269148
-0.253599
-0.257414
-0.273733
-0.335654
-0.364044
-0.412588
-0.414793
-0.442081
-0.435202
-0.44842
-0.442022
-0.10763
-0.21235
-0.285083
-0.337829
-0.38679
-0.424843
-0.46063
-0.498323
-0.528574
-0.566267
-0.585578
-0.619629
-0.625111
-0.646728
-0.636906
-0.659739
-0.662433
-0.72823
-0.591844
-0.76443
-0.476927
-0.676165
-0.577657
-0.637767
-0.48119
-0.450049
-0.330158
-0.284518
-0.235546
-0.224764
-0.247588
-0.236411
-0.305997
-0.327791
-0.377881
-0.383975
-0.412454
-0.415504
-0.436156
-0.435771
-0.254411
-0.292097
-0.332696
-0.363097
-0.407297
-0.431249
-0.472626
-0.498318
-0.527395
-0.562186
-0.587748
-0.630318
-0.646857
-0.705853
-0.724014
-0.77885
-0.740397
-0.817074
-0.698161
-0.903869
-0.679691
-0.913895
-0.887067
-0.990962
-0.880258
-0.876504
-0.781535
-0.732793
-0.661136
-0.592683
-0.558256
-0.50398
-0.504952
-0.454919
-0.457094
-0.436247
-0.446154
-0.440157
-0.452698
-0.451606
-0.3348
-0.34757
-0.366962
-0.392363
-0.407452
-0.438056
-0.465811
-0.501216
-0.550151
-0.593931
-0.625379
-0.691573
-0.743598
-0.810409
-0.834081
-0.886123
-0.887618
-0.988156
-0.907747
-1.13664
-0.953799
-1.19658
-1.22999
-1.35365
-1.27195
-1.27545
-1.18035
-1.11872
-1.0208
-0.918742
-0.829314
-0.712562
-0.648587
-0.571086
-0.526623
-0.485731
-0.492971
-0.470044
-0.476871
-0.47631
-0.390913
-0.388852
-0.416797
-0.410487
-0.452627
-0.467019
-0.52508
-0.551412
-0.613991
-0.673499
-0.762822
-0.878174
-0.943302
-1.02386
-1.07038
-1.14808
-1.16053
-1.25931
-1.18386
-1.42123
-1.27312
-1.50805
-1.5623
-1.69346
-1.62962
-1.62896
-1.53496
-1.45576
-1.35058
-1.22606
-1.10473
-0.969694
-0.835868
-0.716257
-0.615602
-0.554433
-0.527554
-0.510918
-0.511684
-0.510579
-0.435716
-0.441422
-0.435783
-0.474247
-0.463859
-0.509783
-0.541329
-0.653986
-0.783675
-0.925349
-1.03517
-1.11257
-1.18214
-1.25092
-1.29043
-1.37709
-1.35343
-1.48927
-1.42115
-1.62318
-1.5099
-1.71696
-1.79481
-1.89619
-1.83889
-1.82864
-1.72988
-1.65384
-1.53165
-1.41617
-1.27451
-1.12816
-0.985951
-0.871673
-0.73379
-0.619094
-0.583514
-0.555408
-0.554741
-0.556422
-0.488143
-0.474815
-0.511791
-0.561554
-0.650967
-0.685338
-0.842056
-0.955073
-1.07769
-1.16281
-1.26295
-1.35684
-1.43624
-1.51741
-1.56124
-1.62488
-1.63371
-1.71104
-1.66558
-1.8405
-1.79233
-1.87453
-1.95544
-2.03041
-1.97943
-1.96085
-1.87234
-1.79578
-1.68964
-1.57227
-1.42924
-1.27586
-1.09534
-0.953516
-0.813109
-0.669882
-0.615763
-0.591844
-0.592421
-0.598057
-0.543931
-0.52741
-0.568512
-0.64121
-0.730194
-0.819607
-1.02682
-1.07994
-1.24402
-1.35695
-1.48125
-1.57699
-1.66698
-1.73311
-1.78773
-1.84777
-1.84607
-1.91632
-1.86521
-1.97913
-1.98275
-1.97593
-2.04443
-2.10833
-2.06809
-2.04592
-1.96512
-1.90021
-1.80111
-1.70057
-1.5646
-1.40861
-1.24052
-1.06637
-0.943105
-0.754126
-0.681617
-0.646659
-0.64651
-0.65676
-0.580028
-0.5625
-0.632078
-0.724606
-0.854605
-1.01264
-1.1712
-1.2917
-1.42115
-1.55666
-1.67933
-1.78078
-1.87426
-1.94765
-2.00773
-2.0601
-2.07245
-2.10581
-2.07302
-2.08959
-2.13417
-2.08084
-2.10294
-2.16122
-2.1351
-2.11213
-2.04351
-1.98125
-1.90676
-1.812
-1.6823
-1.52537
-1.35651
-1.15753
-1.01484
-0.843002
-0.725917
-0.696412
-0.692462
-0.708627
-0.665254
-0.648399
-0.725482
-0.839935
-0.9904
-1.17262
-1.32463
-1.44772
-1.59648
-1.70859
-1.8537
-1.94813
-2.04167
-2.11108
-2.16515
-2.21542
-2.22981
-2.25175
-2.21955
-2.20819
-2.22769
-2.20425
-2.11068
-2.19763
-2.17463
-2.16548
-2.10176
-2.06223
-1.99426
-1.90604
-1.79867
-1.64544
-1.47546
-1.28626
-1.12763
-0.956162
-0.819443
-0.773237
-0.762812
-0.782679
-0.71558
-0.703925
-0.801189
-0.929861
-1.14058
-1.29403
-1.46525
-1.60656
-1.75518
-1.88147
-1.99709
-2.08578
-2.19672
-2.24918
-2.30355
-2.33333
-2.3498
-2.36432
-2.3083
-2.30952
-2.28519
-2.25313
-2.10947
-2.21905
-2.19054
-2.212
-2.14906
-2.132
-2.07072
-2.00244
-1.88975
-1.75569
-1.57803
-1.37344
-1.18605
-1.04289
-0.887086
-0.82832
-0.817935
-0.840283
-0.846798
-0.83722
-0.934545
-1.1024
-1.28746
-1.45678
-1.62294
-1.76522
-1.9128
-2.02359
-2.14133
-2.22428
-2.29067
-2.35913
-2.39983
-2.42629
-2.44566
-2.45182
-2.40452
-2.3963
-2.34968
-2.29477
-2.08703
-2.20293
-2.20247
-2.22744
-2.20081
-2.18172
-2.14446
-2.08104
-1.99013
-1.84276
-1.69017
-1.50525
-1.30258
-1.14336
-0.986766
-0.926389
-0.900829
-0.928616
-0.889718
-0.883904
-1.00859
-1.17079
-1.37352
-1.5432
-1.72381
-1.8643
-2.01561
-2.12915
-2.25027
-2.3252
-2.41587
-2.44221
-2.50577
-2.50871
-2.5352
-2.52249
-2.49916
-2.46274
-2.40936
-2.29428
-1.96471
-2.10075
-2.16507
-2.23402
-2.23147
-2.23723
-2.20332
-2.15842
-2.06205
-1.96542
-1.80456
-1.63154
-1.41442
-1.24343
-1.06326
-0.990593
-0.962431
-0.98749
-1.07913
-1.07808
-1.18913
-1.35201
-1.5378
-1.71777
-1.88032
-2.0173
-2.1485
-2.25006
-2.35186
-2.42105
-2.47823
-2.52231
-2.54484
-2.5751
-2.60326
-2.60343
-2.57268
-2.52417
-2.48608
-2.15045
-1.99563
-2.06332
-2.16022
-2.24834
-2.26854
-2.28097
-2.25646
-2.21118
-2.16468
-2.05758
-1.92084
-1.74504
-1.55827
-1.36625
-1.19891
-1.10534
-1.07338
-1.10634
-1.07262
-1.07547
-1.19827
-1.35888
-1.55979
-1.74167
-1.90889
-2.03828
-2.17775
-2.27704
-2.39384
-2.47473
-2.55935
-2.60259
-2.63808
-2.65211
-2.67519
-2.62157
-2.64109
-2.60364
-2.35855
-2.12139
-2.04559
-2.07595
-2.11855
-2.25394
-2.28918
-2.3131
-2.31103
-2.30052
-2.24024
-2.15316
-2.02358
-1.86615
-1.66855
-1.47643
-1.30054
-1.16721
-1.12885
-1.15267
-1.31177
-1.3079
-1.41398
-1.56324
-1.74238
-1.91306
-2.06445
-2.18869
-2.30987
-2.40589
-2.50647
-2.56383
-2.61929
-2.63967
-2.64914
-2.64443
-2.67028
-2.66948
-2.67918
-2.41731
-2.25902
-2.16715
-2.11447
-2.09218
-2.11167
-2.21287
-2.27569
-2.32119
-2.34508
-2.32926
-2.29636
-2.23251
-2.14098
-2.00741
-1.8381
-1.65356
-1.47437
-1.38319
-1.29569
-1.33162
-1.17681
-1.19888
-1.31781
-1.47904
-1.67511
-1.86478
-2.02344
-2.13641
-2.24132
-2.32701
-2.43111
-2.52949
-2.62734
-2.69992
-2.73548
-2.73726
-2.66517
-2.54959
-2.44787
-2.30471
-2.24331
-2.19195
-2.15146
-2.11891
-2.11652
-2.14957
-2.2805
-2.34579
-2.38739
-2.38002
-2.34102
-2.27606
-2.18088
-2.05276
-1.89027
-1.71131
-1.52374
-1.39913
-1.30697
-1.35164
-1.40813
-1.40252
-1.48746
-1.61419
-1.77639
-1.93269
-2.10057
-2.23106
-2.36483
-2.47734
-2.58866
-2.6368
-2.64982
-2.60618
-2.52406
-2.4092
-2.34978
-2.25117
-2.24798
-2.20208
-2.21288
-2.18702
-2.17413
-2.14115
-2.12457
-2.13462
-2.19053
-2.2606
-2.32392
-2.34922
-2.37033
-2.37163
-2.36313
-2.29106
-2.17649
-1.99584
-1.81567
-1.67462
-1.56838
-1.57342
-1.08559
-1.09597
-1.19376
-1.33191
-1.53618
-1.71589
-1.908
-1.99822
-2.01222
-2.01901
-2.0325
-2.05973
-2.11947
-2.19954
-2.24445
-2.29975
-2.30944
-2.28342
-2.27053
-2.23697
-2.20353
-2.19405
-2.1763
-2.16725
-2.15015
-2.16072
-2.20165
-2.26903
-2.35354
-2.34851
-2.29684
-2.22227
-2.12587
-2.02768
-1.95467
-1.83086
-1.74225
-1.56477
-1.59332
-1.62797
-1.27086
-1.20701
-1.24281
-1.2964
-1.41179
-1.5193
-1.65082
-1.80119
-1.95814
-2.08681
-2.19797
-2.25926
-2.3055
-2.33685
-2.34895
-2.33813
-2.3246
-2.3068
-2.26137
-2.24637
-2.23123
-2.19176
-2.20582
-2.17326
-2.1763
-2.16286
-2.18763
-2.16555
-2.11836
-2.18092
-2.35383
-2.53288
-2.67437
-2.65802
-2.58392
-2.40391
-2.18184
-2.02103
-1.64621
-1.6553
-1.14142
-1.14295
-1.18459
-1.26951
-1.41461
-1.55049
-1.70222
-1.82454
-1.9492
-2.0538
-2.14622
-2.22061
-2.28453
-2.33673
-2.36619
-2.38829
-2.36833
-2.33633
-2.32259
-2.25983
-2.24871
-2.22886
-2.19655
-2.19371
-2.18648
-2.18971
-2.20285
-2.20137
-2.18536
-2.13173
-2.07236
-1.94444
-1.93819
-1.97706
-2.09574
-2.1066
-2.15514
-2.10237
-2.17186
-2.08189
-1.24895
-1.23846
-1.2663
-1.32314
-1.43615
-1.55449
-1.69508
-1.83901
-1.98398
-2.11195
-2.2208
-2.29448
-2.35836
-2.40292
-2.42946
-2.42751
-2.41647
-2.38463
-2.36383
-2.3144
-2.29777
-2.24521
-2.2545
-2.21205
-2.23398
-2.21311
-2.23197
-2.21643
-2.22973
-2.19704
-2.21323
-2.17019
-2.15921
-1.98768
-1.8021
-1.57226
-1.39599
-1.24278
-1.15621
-1.16213
-1.2143
-1.22136
-1.25597
-1.3223
-1.44318
-1.56787
-1.71171
-1.86285
-2.00248
-2.13673
-2.2428
-2.33417
-2.40506
-2.45135
-2.48161
-2.47986
-2.4751
-2.41934
-2.41582
-2.35556
-2.33448
-2.29371
-2.27269
-2.26292
-2.2515
-2.24401
-2.25244
-2.22996
-2.23695
-2.19419
-2.19095
-2.09795
-2.05286
-1.922
-1.87195
-1.71919
-1.6292
-1.48306
-1.48214
-1.64101
-1.26716
-1.24691
-1.31239
-1.36161
-1.4844
-1.59777
-1.73818
-1.88281
-2.03037
-2.1608
-2.27866
-2.37456
-2.44882
-2.49415
-2.52991
-2.52432
-2.52903
-2.47077
-2.47765
-2.44036
-2.42896
-2.34472
-2.35757
-2.3085
-2.32165
-2.27494
-2.3005
-2.2597
-2.27558
-2.21836
-2.23877
-2.1652
-2.17234
-2.04549
-2.00236
-1.84292
-1.75809
-1.58664
-1.45972
-1.46556
-1.27324
-1.25762
-1.32764
-1.37609
-1.49752
-1.61273
-1.75315
-1.89683
-2.03594
-2.17657
-2.31022
-2.40466
-2.48201
-2.52549
-2.56927
-2.564
-2.59332
-2.54103
-2.59961
-2.48815
-2.48769
-2.44065
-2.39682
-2.35881
-2.36065
-2.32443
-2.32945
-2.28815
-2.3019
-2.23709
-2.24221
-2.13329
-2.11946
-1.97909
-1.964
-1.8233
-1.79473
-1.65313
-1.62367
-1.72535
-1.29041
-1.25841
-1.33441
-1.3804
-1.4964
-1.61513
-1.75844
-1.8853
-2.03616
-2.16212
-2.2776
-2.38222
-2.4733
-2.5267
-2.59032
-2.60474
-2.66481
-2.63875
-2.66569
-2.52125
-2.5197
-2.45649
-2.45117
-2.39368
-2.42401
-2.36275
-2.39161
-2.30718
-2.34223
-2.24459
-2.2681
-2.17119
-2.21138
-2.06568
-2.06092
-1.8801
-1.84102
-1.66158
-1.55766
-1.51505
-1.31031
-1.28712
-1.35095
-1.40834
-1.51195
-1.6265
-1.74605
-1.90694
-2.0451
-2.17573
-2.29168
-2.38008
-2.46973
-2.51504
-2.61348
-2.61803
-2.70936
-2.64627
-2.7014
-2.53241
-2.5892
-2.52051
-2.49605
-2.45969
-2.47803
-2.4212
-2.46575
-2.43142
-2.50498
-2.50931
-2.66851
-2.626
-2.72834
-2.6395
-2.73238
-2.60801
-2.6153
-2.43031
-2.35728
-2.29473
-1.28757
-1.26969
-1.2993
-1.3781
-1.47462
-1.57862
-1.72188
-1.85096
-1.99743
-2.11966
-2.24226
-2.33244
-2.42784
-2.47892
-2.56545
-2.61068
-2.69006
-2.66091
-2.70882
-2.58356
-2.60755
-2.54358
-2.5569
-2.476
-2.55579
-2.46984
-2.55255
-2.50849
-2.58266
-2.51815
-2.60804
-2.46885
-2.54708
-2.39375
-2.5109
-2.35916
-2.45616
-2.27723
-2.32525
-2.25251
-1.31956
-1.30824
-1.33541
-1.39239
-1.49592
-1.57924
-1.72688
-1.86764
-2.00222
-2.12468
-2.24655
-2.33258
-2.43359
-2.47792
-2.59479
-2.60461
-2.74219
-2.66793
-2.76933
-2.59053
-2.63304
-2.54215
-2.59124
-2.48481
-2.56622
-2.45249
-2.57989
-2.5119
-2.61746
-2.54869
-2.66514
-2.50172
-2.59475
-2.4086
-2.51571
-2.3338
-2.40189
-2.16276
-2.13254
-1.98679
-1.25997
-1.24806
-1.27338
-1.30459
-1.42077
-1.48749
-1.63811
-1.75847
-1.91234
-2.03033
-2.16568
-2.25719
-2.3703
-2.42586
-2.53932
-2.57777
-2.67946
-2.6686
-2.73185
-2.59381
-2.59644
-2.54084
-2.58906
-2.48184
-2.59624
-2.40778
-2.51303
-2.563
-2.65334
-2.53296
-2.66001
-2.43207
-2.57241
-2.32274
-2.49257
-2.19732
-2.31247
-1.97972
-1.95206
-1.80427
-1.30645
-1.3029
-1.31661
-1.33103
-1.43068
-1.51454
-1.63844
-1.75386
-1.89892
-2.01449
-2.15526
-2.24663
-2.37588
-2.42453
-2.5546
-2.55518
-2.6978
-2.66532
-2.74194
-2.60552
-2.57585
-2.53168
-2.57175
-2.4453
-2.58335
-2.31206
-2.58546
-2.59974
-2.72561
-2.52261
-2.76421
-2.4588
-2.61678
-2.31446
-2.47714
-2.16564
-2.25178
-1.85907
-1.75121
-1.49864
-1.21104
-1.19905
-1.22488
-1.21064
-1.28434
-1.37199
-1.49939
-1.59443
-1.75339
-1.86777
-2.02766
-2.12559
-2.27456
-2.33558
-2.46903
-2.51163
-2.63461
-2.62452
-2.68762
-2.57328
-2.48508
-2.46708
-2.50198
-2.35733
-2.54452
-2.2057
-2.59799
-2.60385
-2.75202
-2.51695
-2.77458
-2.45377
-2.67536
-2.26436
-2.4864
-2.00181
-2.18821
-1.63741
-1.52904
-1.09191
-1.28823
-1.28947
-1.29494
-1.29445
-1.31977
-1.39329
-1.51002
-1.58337
-1.73057
-1.83583
-2.00083
-2.10664
-2.25231
-2.32721
-2.48504
-2.51466
-2.64945
-2.65009
-2.68369
-2.60103
-2.43433
-2.43134
-2.45318
-2.28497
-2.50147
-2.11034
-2.57542
-2.62637
-2.82703
-2.51794
-2.84331
-2.455
-2.74251
-2.30329
-2.52343
-1.99418
-2.11163
-1.49434
-1.27521
-0.626625
-1.14871
-1.12942
-1.16506
-1.11537
-1.16445
-1.16696
-1.33516
-1.37039
-1.538
-1.63986
-1.81626
-1.91683
-2.1239
-2.21241
-2.38407
-2.43985
-2.57876
-2.60241
-2.62298
-2.56164
-2.29737
-2.3101
-2.3234
-2.14086
-2.38217
-1.99009
-2.46542
-2.66081
-2.83889
-2.60514
-2.87391
-2.43328
-2.76555
-2.22272
-2.55201
-1.84941
-2.03851
-1.07508
-0.941596
0.141361
-1.26722
-1.28197
-1.27332
-1.24841
-1.26315
-1.20441
-1.36023
-1.37022
-1.52273
-1.59211
-1.78725
-1.90873
-2.10663
-2.20817
-2.39428
-2.45545
-2.60159
-2.64566
-2.63194
-2.59962
-2.23083
-2.2718
-2.24294
-2.02889
-2.26612
-1.87182
-2.36965
-2.67801
-2.94936
-2.60918
-2.96208
-2.48087
-2.86666
-2.24847
-2.63099
-1.91115
-2.1065
-0.897896
-0.626167
0.995699
-1.11973
-1.04691
-1.11252
-0.996393
-1.07037
-0.947707
-1.12803
-1.11161
-1.27724
-1.3837
-1.59769
-1.72253
-1.96065
-2.07649
-2.29539
-2.38103
-2.53526
-2.60369
-2.58312
-2.55302
-2.06648
-2.11571
-2.05556
-1.83339
-2.06495
-1.71523
-2.25065
-2.65838
-2.9804
-2.65822
-3.04976
-2.39986
-2.9025
-2.16037
-2.53694
-1.68035
-1.95041
-0.304621
0.0436519
2.72151
-1.26334
-1.33979
-1.24623
-1.2345
-1.16407
-1.0836
-1.13899
-1.12855
-1.27047
-1.35066
-1.54735
-1.67806
-1.90978
-2.04214
-2.27636
-2.38949
-2.56396
-2.6546
-2.62641
-2.54611
-2.0323
-2.01344
-1.95075
-1.63869
-1.88836
-1.56154
-2.20012
-2.5926
-3.07581
-2.71733
-3.16655
-2.53223
-2.99095
-2.2079
-2.74982
-1.67191
-2.19173
-0.0805423
0.484709
4.44623
-1.50375
-1.0647
-1.18459
-0.848804
-0.938648
-0.742636
-0.852023
-0.868096
-1.01836
-1.10905
-1.33417
-1.46815
-1.72928
-1.87708
-2.13443
-2.27523
-2.47243
-2.61039
-2.57946
-2.43895
-1.93408
-1.77357
-1.6836
-1.37298
-1.63177
-1.38152
-2.16643
-2.50712
-3.09295
-2.74277
-3.19447
-2.52434
-2.92406
-2.02934
-2.52577
-1.09944
-1.61341
1.04511
2.24233
9.01358
-1.3389
-1.60612
-1.4115
-1.37118
-0.970674
-0.915043
-0.851963
-0.840934
-0.977083
-1.05543
-1.24918
-1.38266
-1.63525
-1.78511
-2.05134
-2.20989
-2.45423
-2.63384
-2.72771
-2.39367
-1.97546
-1.65783
-1.52878
-1.15943
-1.44674
-1.23655
-2.16115
-2.38909
-3.18154
-2.80024
-3.29134
-2.59046
-3.04395
-2.15371
-2.69259
-1.37652
-1.82574
1.70499
3.48963
12.7626
-3.83507
-1.08704
-1.39541
-0.937857
-0.854331
-0.622666
-0.692746
-0.685047
-0.841733
-0.934425
-1.16713
-1.29793
-1.55978
-1.71229
-1.98338
-2.16924
-2.4798
-2.69042
-2.69221
-2.29175
-1.89307
-1.40727
-1.24736
-0.911791
-1.31221
-1.25812
-2.28575
-2.47298
-3.30981
-2.82907
-3.25267
-2.49182
-2.88169
-1.97947
-2.3203
-0.625109
-0.172666
5.71181
10.7294
25.432
-0.106482
-0.209816
-0.28254
-0.336171
-0.383678
-0.425438
-0.468904
-0.510145
-0.549775
-0.586493
-0.61197
-0.659821
-0.675346
-0.715651
-0.721353
-0.761686
-0.718344
-0.793007
-0.702738
-0.900577
-0.620409
-0.788487
-0.730101
-0.784666
-0.63786
-0.606402
-0.484308
-0.437255
-0.379399
-0.35218
-0.356081
-0.337301
-0.390687
-0.398015
-0.433095
-0.425904
-0.442928
-0.436969
-0.451764
-0.43973
-0.221786
-0.272702
-0.315513
-0.357715
-0.392946
-0.430441
-0.462347
-0.503857
-0.519968
-0.568806
-0.575738
-0.645718
-0.63637
-0.662754
-0.648478
-0.68741
-0.663823
-0.741228
-0.616666
-0.80649
-0.624497
-0.778407
-0.719097
-0.787447
-0.648713
-0.640207
-0.532773
-0.495722
-0.443569
-0.403558
-0.400928
-0.388677
-0.378129
-0.380094
-0.413953
-0.408713
-0.429562
-0.423611
-0.43888
-0.426246
-0.304463
-0.325239
-0.349291
-0.366049
-0.406943
-0.431271
-0.470464
-0.493086
-0.554279
-0.577719
-0.606693
-0.638287
-0.654021
-0.695073
-0.72329
-0.806808
-0.777606
-0.853317
-0.757952
-0.971388
-0.855104
-1.05659
-1.07954
-1.19212
-1.08959
-1.09467
-1.00256
-0.956787
-0.880802
-0.793489
-0.711328
-0.6166
-0.572948
-0.525882
-0.490167
-0.456331
-0.462219
-0.449878
-0.457831
-0.450029
-0.363891
-0.377822
-0.377164
-0.403181
-0.411731
-0.443709
-0.475338
-0.517215
-0.556659
-0.599884
-0.627974
-0.682208
-0.74079
-0.825419
-0.855471
-0.943576
-0.935913
-1.04294
-0.977441
-1.21453
-1.16346
-1.39272
-1.45396
-1.57442
-1.48282
-1.48195
-1.37742
-1.30227
-1.19394
-1.06722
-0.951048
-0.803974
-0.699814
-0.598132
-0.556571
-0.505123
-0.509025
-0.48146
-0.48421
-0.477033
-0.413237
-0.417055
-0.421479
-0.423114
-0.463899
-0.46338
-0.521926
-0.562544
-0.627378
-0.685609
-0.776813
-0.89272
-0.968977
-1.04374
-1.09469
-1.1968
-1.20521
-1.31657
-1.28857
-1.49129
-1.43656
-1.66174
-1.73985
-1.8448
-1.75537
-1.74889
-1.64808
-1.57355
-1.44024
-1.29099
-1.14217
-0.997855
-0.858102
-0.723896
-0.620573
-0.565127
-0.540549
-0.519534
-0.515163
-0.513319
-0.448751
-0.443222
-0.459999
-0.488948
-0.465659
-0.512308
-0.55033
-0.65197
-0.799385
-0.936145
-1.04428
-1.12504
-1.19838
-1.27533
-1.32116
-1.4258
-1.42499
-1.53564
-1.48319
-1.66911
-1.64056
-1.8394
-1.92918
-2.0219
-1.94902
-1.91453
-1.81008
-1.70521
-1.60455
-1.44812
-1.29984
-1.13514
-0.992118
-0.870571
-0.732526
-0.639339
-0.60331
-0.573004
-0.563421
-0.564591
-0.507832
-0.502042
-0.539635
-0.57091
-0.623107
-0.648332
-0.794384
-0.971158
-1.07882
-1.16943
-1.27251
-1.37001
-1.45429
-1.53415
-1.59558
-1.6574
-1.6744
-1.74906
-1.71439
-1.84365
-1.84176
-1.95506
-2.02667
-2.10419
-2.03426
-2.00203
-1.90885
-1.82195
-1.6936
-1.56485
-1.41035
-1.24186
-1.0776
-0.933353
-0.81254
-0.682055
-0.628906
-0.604119
-0.596093
-0.602537
-0.545432
-0.553584
-0.603345
-0.663936
-0.738307
-0.803481
-1.02135
-1.09824
-1.25037
-1.36704
-1.48279
-1.5914
-1.67683
-1.76081
-1.80981
-1.86619
-1.86472
-1.91915
-1.88676
-1.95734
-1.97465
-2.01029
-2.0619
-2.14544
-2.0987
-2.07119
-1.99848
-1.91234
-1.81561
-1.67411
-1.5338
-1.38015
-1.21961
-1.05338
-0.923747
-0.781697
-0.705783
-0.67375
-0.660108
-0.668208
-0.601728
-0.61132
-0.67274
-0.755118
-0.865547
-0.988601
-1.16809
-1.299
-1.43969
-1.56264
-1.68588
-1.78449
-1.88278
-1.96476
-2.02248
-2.0658
-2.07052
-2.08827
-2.05704
-2.06447
-2.08465
-2.06748
-2.11202
-2.16922
-2.15594
-2.12931
-2.07048
-1.99641
-1.88595
-1.77192
-1.63877
-1.49242
-1.3377
-1.11718
-0.988284
-0.825698
-0.746534
-0.705073
-0.702437
-0.712857
-0.686863
-0.694071
-0.779944
-0.892473
-0.985889
-1.16153
-1.31617
-1.44205
-1.59489
-1.73138
-1.84377
-1.95767
-2.04601
-2.12529
-2.18814
-2.23119
-2.23632
-2.23911
-2.1994
-2.17877
-2.17114
-2.15801
-2.11928
-2.19799
-2.1932
-2.18601
-2.14268
-2.0586
-1.98652
-1.86732
-1.77214
-1.66309
-1.506
-1.34666
-1.13003
-0.952601
-0.831575
-0.798964
-0.776086
-0.792119
-0.740801
-0.751982
-0.848849
-0.959246
-1.17426
-1.2772
-1.4606
-1.59363
-1.74196
-1.89502
-2.00902
-2.10876
-2.20169
-2.25738
-2.33149
-2.36672
-2.3782
-2.36919
-2.32369
-2.28213
-2.24112
-2.19631
-2.10393
-2.21759
-2.21052
-2.22848
-2.17938
-2.14128
-2.04166
-1.98857
-1.90509
-1.7367
-1.57744
-1.36182
-1.2069
-1.01881
-0.876
-0.84457
-0.827392
-0.843525
-0.872008
-0.88522
-0.98701
-1.15039
-1.31876
-1.46107
-1.60548
-1.75741
-1.90303
-2.00904
-2.14764
-2.23519
-2.3092
-2.36575
-2.42468
-2.47158
-2.48416
-2.47466
-2.43358
-2.38671
-2.3183
-2.23497
-2.07531
-2.17874
-2.21486
-2.24412
-2.2385
-2.16181
-2.15574
-2.10534
-1.9653
-1.88097
-1.72822
-1.58736
-1.38744
-1.20019
-0.966366
-0.923148
-0.910372
-0.932798
-0.926723
-0.941553
-1.0698
-1.23202
-1.42111
-1.56332
-1.73404
-1.84279
-2.01095
-2.1246
-2.25276
-2.3192
-2.44403
-2.45955
-2.52613
-2.55838
-2.57663
-2.56021
-2.53433
-2.47277
-2.38521
-2.20747
-1.9393
-2.04223
-2.16957
-2.24928
-2.24315
-2.28274
-2.2589
-2.1651
-2.14102
-1.99761
-1.8377
-1.61848
-1.42693
-1.27477
-1.11052
-0.954418
-0.977825
-0.988327
-1.11636
-1.13357
-1.25737
-1.4149
-1.59342
-1.74545
-1.90233
-2.02528
-2.14799
-2.23919
-2.35685
-2.4402
-2.48263
-2.56723
-2.59525
-2.62969
-2.64995
-2.64488
-2.61594
-2.5536
-2.42376
-2.08263
-1.92657
-1.99664
-2.13376
-2.2525
-2.28784
-2.33184
-2.28316
-2.29954
-2.19517
-2.09121
-1.93237
-1.76566
-1.53074
-1.37256
-1.22706
-1.10117
-1.05375
-1.11553
-1.12509
-1.14156
-1.27013
-1.4298
-1.62097
-1.78339
-1.95844
-2.07334
-2.20855
-2.30771
-2.42458
-2.49804
-2.59899
-2.67544
-2.69649
-2.71106
-2.71733
-2.69261
-2.68167
-2.58624
-2.29469
-2.06715
-1.95435
-1.98744
-2.06872
-2.24114
-2.32309
-2.34282
-2.38262
-2.32785
-2.27598
-2.17579
-2.04554
-1.8659
-1.65216
-1.44618
-1.29154
-1.22418
-1.08432
-1.16001
-1.33399
-1.34816
-1.47281
-1.62249
-1.80633
-1.96385
-2.10862
-2.23423
-2.36367
-2.46393
-2.56619
-2.62173
-2.66695
-2.68432
-2.71427
-2.71135
-2.72652
-2.72133
-2.65285
-2.40966
-2.22101
-2.09468
-2.01412
-1.99536
-2.04328
-2.16256
-2.29035
-2.37252
-2.38721
-2.37715
-2.33116
-2.26608
-2.16163
-2.01855
-1.82195
-1.62994
-1.45043
-1.38506
-1.27153
-1.3237
-1.25297
-1.28157
-1.40477
-1.57618
-1.77036
-1.91468
-2.09038
-2.20169
-2.31316
-2.40194
-2.50293
-2.58818
-2.67171
-2.74154
-2.74986
-2.76454
-2.69409
-2.57035
-2.41404
-2.27196
-2.19214
-2.11743
-2.05751
-2.02374
-2.06252
-2.14066
-2.33858
-2.39811
-2.43462
-2.41826
-2.38597
-2.32265
-2.23523
-2.09792
-1.91816
-1.71751
-1.53088
-1.39464
-1.32995
-1.31084
-1.41297
-1.42331
-1.52392
-1.66754
-1.84235
-1.99462
-2.15334
-2.26927
-2.39617
-2.49402
-2.59031
-2.62843
-2.63785
-2.59651
-2.50975
-2.42185
-2.36498
-2.28398
-2.24474
-2.20087
-2.18325
-2.13185
-2.09298
-2.06209
-2.05765
-2.10785
-2.15477
-2.30604
-2.38429
-2.42057
-2.42796
-2.41244
-2.38863
-2.30898
-2.17652
-1.9984
-1.78526
-1.66299
-1.59723
-1.58342
-1.16064
-1.20265
-1.2881
-1.44845
-1.58965
-1.79087
-1.9481
-2.04637
-2.06977
-2.08601
-2.10071
-2.12589
-2.16983
-2.22818
-2.2571
-2.3039
-2.29575
-2.2461
-2.23799
-2.2041
-2.1855
-2.14569
-2.11449
-2.09366
-2.0764
-2.10823
-2.13624
-2.17218
-2.26606
-2.33358
-2.35409
-2.33722
-2.30802
-2.21184
-2.10429
-1.99249
-1.78247
-1.63331
-1.60961
-1.63289
-1.22281
-1.21463
-1.26255
-1.34592
-1.44714
-1.57238
-1.70824
-1.82645
-1.95717
-2.06297
-2.16107
-2.21253
-2.25321
-2.28749
-2.30375
-2.31207
-2.30367
-2.2705
-2.23584
-2.21221
-2.20584
-2.15638
-2.15672
-2.1152
-2.12187
-2.12784
-2.13514
-2.13093
-2.11672
-2.12249
-2.23734
-2.36207
-2.52219
-2.55755
-2.52082
-2.36333
-2.1232
-1.91863
-1.73431
-1.67136
-1.19067
-1.14587
-1.18213
-1.26504
-1.36996
-1.51418
-1.64086
-1.79091
-1.90066
-2.00761
-2.0988
-2.17853
-2.24913
-2.30256
-2.33971
-2.36732
-2.35063
-2.3306
-2.28942
-2.23553
-2.22411
-2.18672
-2.1791
-2.15401
-2.14786
-2.15622
-2.16622
-2.14567
-2.12503
-2.08477
-2.06062
-1.97644
-1.95578
-1.94998
-2.03801
-2.02073
-1.97957
-1.95845
-1.98285
-2.17864
-1.2563
-1.21441
-1.24661
-1.3045
-1.42428
-1.52706
-1.66576
-1.81633
-1.95577
-2.08352
-2.19103
-2.26832
-2.335
-2.38604
-2.42013
-2.41977
-2.40518
-2.36651
-2.33688
-2.29326
-2.26182
-2.20483
-2.22296
-2.18956
-2.20533
-2.18849
-2.20649
-2.18716
-2.18799
-2.1396
-2.14871
-2.09838
-2.09366
-1.96102
-1.80711
-1.60953
-1.44382
-1.28514
-1.1651
-1.14443
-1.2167
-1.20486
-1.24636
-1.31341
-1.43876
-1.55372
-1.69263
-1.85464
-1.98885
-2.11789
-2.22204
-2.31642
-2.39345
-2.44615
-2.47755
-2.47161
-2.45856
-2.40497
-2.39287
-2.3344
-2.31416
-2.27389
-2.25453
-2.23344
-2.23401
-2.22442
-2.22562
-2.20441
-2.20555
-2.15706
-2.14404
-2.03964
-2.00595
-1.8551
-1.7898
-1.63648
-1.5293
-1.39223
-1.30772
-1.50093
-1.26305
-1.25157
-1.29622
-1.35401
-1.47427
-1.59006
-1.7331
-1.88717
-2.03036
-2.15926
-2.27515
-2.37462
-2.45388
-2.50299
-2.5325
-2.51838
-2.51382
-2.45856
-2.4641
-2.41952
-2.40503
-2.32191
-2.342
-2.27541
-2.30171
-2.25601
-2.28506
-2.23418
-2.25004
-2.18578
-2.20257
-2.11631
-2.11748
-1.98636
-1.94709
-1.79066
-1.69748
-1.48978
-1.3554
-1.4301
-1.27179
-1.26565
-1.3173
-1.37671
-1.49504
-1.62426
-1.75965
-1.91376
-2.05495
-2.19252
-2.31766
-2.42233
-2.50522
-2.54992
-2.58441
-2.57104
-2.59523
-2.54384
-2.59724
-2.49879
-2.47165
-2.40657
-2.38727
-2.34815
-2.33677
-2.31199
-2.30088
-2.26997
-2.27051
-2.19341
-2.18882
-2.06906
-2.05717
-1.90596
-1.8932
-1.75177
-1.72246
-1.566
-1.50758
-1.65542
-1.28127
-1.26546
-1.32408
-1.38184
-1.49783
-1.61559
-1.75897
-1.90634
-2.05715
-2.1949
-2.32445
-2.43017
-2.51847
-2.56494
-2.6167
-2.62654
-2.68496
-2.66974
-2.70274
-2.55962
-2.51736
-2.43756
-2.45419
-2.38556
-2.41885
-2.33125
-2.38447
-2.2755
-2.31754
-2.20982
-2.24485
-2.13234
-2.18133
-2.03498
-2.05226
-1.87419
-1.8408
-1.65009
-1.54539
-1.48791
-1.31316
-1.29713
-1.34119
-1.4071
-1.51095
-1.6291
-1.76755
-1.92385
-2.0738
-2.21435
-2.34583
-2.44926
-2.54011
-2.58495
-2.66794
-2.69993
-2.8081
-2.76066
-2.79288
-2.58058
-2.56244
-2.47594
-2.49507
-2.45193
-2.47754
-2.41334
-2.4428
-2.40016
-2.49063
-2.46146
-2.59998
-2.54708
-2.66097
-2.55683
-2.65625
-2.52514
-2.5517
-2.39147
-2.26905
-2.24932
-1.28514
-1.27576
-1.30734
-1.37182
-1.47467
-1.57609
-1.718
-1.86026
-2.01175
-2.14766
-2.28382
-2.39023
-2.49779
-2.55499
-2.64173
-2.67108
-2.77092
-2.71858
-2.74014
-2.58512
-2.5762
-2.52712
-2.55866
-2.47078
-2.55434
-2.45858
-2.57868
-2.4445
-2.58879
-2.47753
-2.62858
-2.48032
-2.59379
-2.43206
-2.56361
-2.4028
-2.50574
-2.32987
-2.24704
-2.22193
-1.32053
-1.31375
-1.34121
-1.38662
-1.49669
-1.58561
-1.73016
-1.85279
-2.00183
-2.12281
-2.25584
-2.35957
-2.48479
-2.5502
-2.65629
-2.66806
-2.77749
-2.71517
-2.77873
-2.59046
-2.62806
-2.51332
-2.58142
-2.46427
-2.55478
-2.43606
-2.55578
-2.4635
-2.67722
-2.51543
-2.66834
-2.51315
-2.64354
-2.45125
-2.58352
-2.38846
-2.48009
-2.20941
-2.16872
-2.02823
-1.2603
-1.25013
-1.28024
-1.29867
-1.41492
-1.49093
-1.63619
-1.76384
-1.90402
-2.02566
-2.16068
-2.26221
-2.39561
-2.47512
-2.59147
-2.61238
-2.71801
-2.69209
-2.74827
-2.62245
-2.59046
-2.51872
-2.56906
-2.4385
-2.55449
-2.37074
-2.51905
-2.54873
-2.71727
-2.53661
-2.70832
-2.4383
-2.59447
-2.3695
-2.55794
-2.25697
-2.42591
-2.04511
-2.01793
-1.76734
-1.30801
-1.30433
-1.32432
-1.33862
-1.42567
-1.51503
-1.64037
-1.75451
-1.91031
-2.01232
-2.15348
-2.24848
-2.385
-2.45249
-2.58897
-2.60645
-2.71915
-2.69793
-2.75187
-2.62721
-2.57613
-2.49752
-2.55075
-2.39239
-2.53025
-2.27247
-2.57933
-2.59803
-2.76522
-2.55105
-2.72787
-2.503
-2.6585
-2.34131
-2.55418
-2.25592
-2.41359
-1.9922
-1.90756
-1.55269
-1.21134
-1.19403
-1.22774
-1.21447
-1.28779
-1.36886
-1.49821
-1.594
-1.75496
-1.87799
-2.02629
-2.13244
-2.28398
-2.3574
-2.50351
-2.5411
-2.65617
-2.64193
-2.70517
-2.59216
-2.47686
-2.4264
-2.47661
-2.30372
-2.47749
-2.17715
-2.58377
-2.62515
-2.79807
-2.55009
-2.75283
-2.46268
-2.68869
-2.35725
-2.56013
-2.10772
-2.41836
-1.8423
-1.8292
-1.27589
-1.28832
-1.28297
-1.29501
-1.29941
-1.32285
-1.39002
-1.5068
-1.58353
-1.72934
-1.84167
-2.01016
-2.114
-2.27914
-2.36634
-2.50824
-2.53969
-2.67163
-2.68381
-2.70305
-2.61564
-2.45046
-2.37959
-2.42247
-2.23478
-2.42859
-2.09393
-2.5544
-2.63598
-2.91622
-2.56884
-2.83702
-2.43972
-2.78515
-2.31757
-2.67031
-2.13318
-2.38501
-1.82366
-1.80556
-1.00134
-1.14674
-1.11894
-1.17272
-1.10045
-1.17703
-1.15864
-1.33223
-1.36917
-1.5412
-1.64048
-1.83545
-1.94641
-2.13456
-2.19223
-2.39366
-2.45297
-2.5872
-2.63682
-2.66537
-2.57465
-2.31983
-2.25627
-2.2882
-2.09746
-2.29872
-1.97486
-2.45727
-2.6431
-2.94448
-2.61771
-2.87725
-2.43589
-2.77057
-2.26664
-2.6343
-2.06838
-2.41119
-1.49685
-1.72557
-0.463712
-1.26782
-1.28294
-1.27989
-1.26132
-1.23933
-1.22171
-1.35256
-1.37973
-1.53116
-1.61759
-1.81024
-1.92633
-2.11595
-2.22818
-2.42003
-2.48056
-2.65065
-2.69741
-2.6842
-2.63053
-2.28696
-2.19052
-2.20851
-1.98879
-2.18561
-1.87647
-2.36831
-2.62721
-3.02688
-2.67602
-3.03275
-2.47857
-2.89578
-2.28162
-2.72838
-2.05031
-2.53826
-1.5873
-1.54341
0.112438
-1.10434
-1.05163
-1.12011
-0.999825
-1.09199
-0.936817
-1.13498
-1.13346
-1.31719
-1.40989
-1.6235
-1.73363
-1.98392
-2.09848
-2.333
-2.42355
-2.61265
-2.65945
-2.68162
-2.57245
-2.17705
-2.02693
-2.02989
-1.78225
-1.98902
-1.69327
-2.26547
-2.57319
-3.06261
-2.69689
-3.11279
-2.46311
-2.91855
-2.18046
-2.69437
-1.79421
-2.38228
-1.06544
-1.36576
1.66797
-1.24884
-1.35062
-1.26947
-1.26304
-1.19197
-1.10328
-1.16072
-1.17592
-1.31213
-1.39841
-1.5838
-1.72565
-1.95592
-2.08807
-2.32843
-2.44131
-2.64886
-2.74472
-2.74366
-2.61752
-2.16086
-1.96219
-1.92517
-1.63677
-1.80595
-1.54679
-2.20252
-2.50432
-3.13289
-2.7557
-3.23087
-2.59427
-3.05101
-2.28164
-2.8641
-1.8485
-2.52759
-0.777412
-1.16738
3.42918
-1.42078
-1.02978
-1.18266
-0.879385
-0.957892
-0.786012
-0.885267
-0.89701
-1.06823
-1.1573
-1.39903
-1.53041
-1.79993
-1.95589
-2.22486
-2.38911
-2.58248
-2.75426
-2.77324
-2.52177
-2.07159
-1.77593
-1.71321
-1.34564
-1.60405
-1.34811
-2.1555
-2.40587
-3.15945
-2.80368
-3.31758
-2.58343
-3.03171
-2.16427
-2.68873
-1.42138
-1.92838
0.366311
1.06474
8.56293
-1.09232
-1.54608
-1.43315
-1.42955
-1.15456
-0.940808
-0.941985
-0.914976
-1.03377
-1.11234
-1.32037
-1.47624
-1.73994
-1.89231
-2.185
-2.36043
-2.64122
-2.85058
-2.93128
-2.59357
-2.16534
-1.75348
-1.56746
-1.15554
-1.4359
-1.19065
-2.11293
-2.30749
-3.21297
-2.82641
-3.31709
-2.61886
-3.08156
-2.16423
-2.73814
-1.44923
-1.89651
1.42826
3.71266
15.1346
-3.66134
-0.944437
-1.24827
-0.849981
-0.812532
-0.638893
-0.700601
-0.697649
-0.866005
-0.966311
-1.19638
-1.32548
-1.60335
-1.79246
-2.10236
-2.34251
-2.66514
-2.90135
-2.96071
-2.43324
-2.02117
-1.50385
-1.26897
-0.881285
-1.26749
-1.18496
-2.22558
-2.43097
-3.35877
-2.92065
-3.35509
-2.54079
-2.89945
-1.95236
-2.30209
-0.535746
0.0856634
6.046
13.7093
31.9391
-0.237678
-0.274117
-0.311187
-0.345291
-0.389598
-0.425861
-0.470664
-0.508619
-0.541609
-0.587067
-0.618202
-0.665437
-0.682162
-0.73435