/*--------------------------------*- C++ -*----------------------------------*\
| =========                 |                                                 |
| \\      /  F ield         | OpenFOAM: The Open Source CFD Toolbox           |
|  \\    /   O peration     | Version:  v1806                                 |
|   \\  /    A nd           | Web:      www.OpenFOAM.com                      |
|    \\/     M anipulation  |                                                 |
\*---------------------------------------------------------------------------*/
FoamFile
{
    version     2.0;
    format      ascii;
    class       vectorField;
    location    "0.1355";
    object      currentcloudofpoints;
}
// * * * * * * * * * * * * * * * * * * * * * * * * * * * * * * * * * * * * * //


2409
(
(1.47871 1.73142 1.50512)
(0.71045 1.32543 1.48092)
(0.944612 1.20875 1.2113)
(1.65699 1.72846 0.838207)
(1.30659 1.76151 1.15852)
(1.39532 1.27075 1.00182)
(1.37246 1.19603 1.31934)
(0.922262 1.05899 0.7194)
(1.04679 1.21475 0.959101)
(0.942908 0.881625 0.951004)
(1.04402 1.12813 1.32809)
(1.31963 0.95683 1.3907)
(1.60756 1.44503 1.04698)
(1.43545 1.36253 1.05516)
(1.34735 0.961003 1.19968)
(0.934087 1.3522 1.39165)
(1.39851 0.966092 1.37508)
(1.44894 1.636 1.07282)
(1.80757 1.23434 1.0988)
(1.55563 1.48609 1.44665)
(0.35175 0.978586 1.13673)
(0.737685 1.65415 1.06117)
(1.53012 1.30038 1.42108)
(1.56478 1.48119 1.25247)
(0.533675 1.35431 1.2042)
(0.757001 1.07925 1.55283)
(0.641966 1.04149 1.29247)
(0.926106 1.55418 1.59785)
(1.45355 1.52032 1.35656)
(1.42343 1.52241 0.695946)
(0.646927 1.5403 0.860253)
(1.43448 1.50874 0.656114)
(1.19401 1.17463 0.731559)
(0.849932 1.33497 0.91572)
(1.31605 1.0896 0.659785)
(1.01825 1.23486 0.893241)
(1.47398 1.49708 0.656248)
(1.53082 1.28361 0.632823)
(1.12825 1.32964 0.433053)
(0.759867 1.02543 0.668429)
(0.916679 1.31704 0.8515)
(0.983925 1.01255 0.950688)
(0.77209 1.29884 0.716081)
(1.56766 1.17399 0.546715)
(0.756041 1.17313 0.806859)
(0.883507 1.48907 0.369952)
(0.993071 1.27967 0.352688)
(1.50615 1.49826 1.20754)
(1.29104 1.23875 1.65857)
(1.3742 1.55104 1.58936)
(0.659197 0.960636 1.0346)
(1.47576 1.57788 1.14214)
(1.61464 1.61978 1.50705)
(1.40261 1.36762 1.50437)
(1.70942 1.24113 1.1058)
(1.35937 1.57545 1.55874)
(1.09237 1.17141 1.29751)
(1.49728 1.61692 0.469403)
(1.1686 1.55839 0.8704)
(1.27064 1.4967 0.453422)
(1.48887 1.67841 1.11957)
(0.795239 1.38356 0.627483)
(1.40015 1.28144 0.596321)
(0.615021 1.69045 0.913923)
(1.41495 1.39532 0.642207)
(1.0374 1.31518 1.32385)
(1.55792 1.66924 1.34285)
(1.82761 1.40547 1.22208)
(1.51746 1.46415 0.968522)
(1.48434 1.52295 1.29705)
(0.420108 0.982433 1.1364)
(1.58825 1.61644 1.18682)
(0.934105 1.05287 1.34828)
(1.30158 1.72722 0.654668)
(1.2682 1.29792 0.536319)
(1.64347 1.20426 1.22235)
(1.67565 1.30744 1.26609)
(1.3167 1.18863 1.5074)
(0.573685 1.39016 1.06229)
(1.79668 1.22837 1.3854)
(1.63789 1.20679 1.26407)
(1.70509 0.998947 1.12233)
(1.1852 1.28913 1.38991)
(0.582676 0.890215 1.04664)
(0.591182 1.4708 1.29973)
(0.817992 0.983248 1.5539)
(1.29818 1.46011 1.4796)
(0.969236 1.04703 1.61181)
(0.959142 0.98491 1.63303)
(1.42614 1.26731 1.34361)
(0.849281 0.98902 1.1496)
(0.771614 1.03593 1.27079)
(0.51189 1.55989 1.27058)
(1.10539 1.35171 1.63617)
(0.899483 0.992941 1.56332)
(0.921884 1.07642 1.4473)
(1.17157 1.71032 1.16247)
(1.10482 1.13418 1.38504)
(0.987072 1.44733 1.65333)
(1.06657 1.09566 1.42397)
(0.973371 1.20533 1.49497)
(1.28988 0.946982 1.31354)
(0.820924 1.25437 1.26653)
(1.3002 1.44401 0.774793)
(1.09416 1.24197 0.955884)
(1.36159 0.9709 1.56957)
(0.949618 1.36039 1.64148)
(0.769899 1.24769 1.25704)
(0.952942 1.36531 1.4164)
(0.977062 1.12393 1.19093)
(1.47946 1.31028 1.49026)
(0.761708 1.30438 0.729537)
(1.18047 1.20961 0.93872)
(1.10285 0.897733 0.875383)
(0.711729 1.62546 1.05118)
(0.854937 1.02099 0.516281)
(0.736238 1.84035 0.825719)
(0.788078 1.37163 0.341423)
(1.11007 1.04937 0.441066)
(1.02883 1.08154 0.342455)
(1.02468 0.83335 1.19461)
(1.12829 1.20796 0.253119)
(0.844652 1.67914 0.993334)
(0.923331 1.48873 1.46756)
(1.06573 0.929981 0.468668)
(0.743742 1.2425 0.530771)
(1.14208 1.06266 0.558167)
(1.06815 1.37755 0.361325)
(0.943891 1.17634 0.921163)
(0.769446 1.10288 1.04152)
(0.604689 1.56123 0.82299)
(1.23744 1.29876 0.795066)
(1.33308 1.39399 0.406672)
(1.27809 1.32429 0.319999)
(1.06712 1.019 0.807362)
(0.974935 1.1742 0.91928)
(0.723456 1.30725 0.720765)
(0.98645 1.00666 0.965318)
(0.935642 1.07406 0.610382)
(1.32445 1.37869 0.31236)
(1.3273 1.2724 0.343578)
(1.28442 1.19497 0.398622)
(1.28764 0.993079 0.42344)
(1.64223 1.60841 1.22535)
(1.33795 1.80098 1.36876)
(1.63244 1.4934 1.47758)
(1.16469 1.67438 1.43551)
(0.886382 1.02249 1.27332)
(0.777014 0.865699 1.0439)
(0.984742 1.23837 0.903324)
(1.26932 1.76682 1.20215)
(1.40088 1.18012 0.684045)
(1.28685 1.43377 0.717887)
(1.69894 1.28826 1.4033)
(1.38384 1.74395 1.29277)
(1.19559 1.32953 1.68123)
(0.75507 0.800522 1.17483)
(1.50344 0.977018 1.22401)
(1.50381 1.80864 0.619644)
(1.36271 1.76444 0.700453)
(1.61652 1.83485 0.749089)
(1.29937 1.08601 0.792051)
(1.35157 1.67072 0.434956)
(0.827222 1.09524 0.673726)
(1.02341 1.46355 0.357902)
(1.3009 1.40444 1.10113)
(1.34188 1.67698 0.737574)
(1.42588 1.76076 0.639132)
(1.32442 1.73716 0.951622)
(1.29142 1.81551 0.512121)
(1.15463 1.57025 0.340856)
(1.28542 0.98534 0.441697)
(1.31166 1.01407 0.420475)
(1.03038 0.824399 0.920409)
(1.26881 1.30669 0.963317)
(1.12496 1.78305 1.31711)
(1.23114 1.63429 0.710969)
(1.51779 1.49135 1.47585)
(1.52698 1.2757 1.12881)
(0.795548 1.3631 1.4884)
(1.01561 1.65658 0.835411)
(0.882067 1.63122 1.02908)
(1.32637 1.7425 0.72267)
(0.910791 1.48052 0.290907)
(1.7819 1.39807 1.39642)
(1.51402 1.09184 1.34028)
(0.486889 1.24415 1.09087)
(0.89875 1.10789 1.44434)
(1.48139 1.42152 0.785752)
(1.44077 1.1492 1.21456)
(1.32966 1.11939 0.828728)
(1.47861 1.13052 1.12087)
(1.68863 1.22367 1.09344)
(1.42566 1.12672 1.32029)
(1.28 1.24681 1.09039)
(1.69581 1.42614 1.09657)
(1.15755 1.39851 1.59305)
(1.811 1.14497 1.18003)
(1.35741 1.13288 0.806868)
(1.57946 1.1736 1.29478)
(1.66955 1.23237 1.11173)
(1.33123 1.22025 1.34063)
(0.884538 1.35093 0.743406)
(1.2359 1.51289 0.559415)
(1.2498 1.06758 0.414306)
(0.633375 1.50773 0.87054)
(1.21818 1.58302 1.52017)
(1.5841 1.64969 1.2623)
(0.895986 1.32885 1.52839)
(0.612024 1.55993 0.640932)
(0.76591 1.31409 0.392973)
(0.61161 1.73523 0.801501)
(1.26275 1.80173 0.617692)
(1.26732 1.2656 0.525054)
(0.777186 1.5423 0.630557)
(1.31118 1.22579 1.15187)
(1.39193 1.29296 0.923635)
(1.55251 1.71347 1.15182)
(1.64238 1.12082 1.20896)
(1.24369 1.36635 1.56029)
(1.3792 1.03978 1.0663)
(1.44914 1.07635 1.07957)
(1.60374 0.978191 1.25112)
(1.10512 1.67194 1.26341)
(1.70049 1.15893 0.979685)
(1.82761 1.21174 1.02696)
(1.29913 1.40691 0.667645)
(1.59824 1.16039 1.08482)
(1.63516 1.0039 1.18718)
(0.634171 1.34515 0.783827)
(1.53767 1.17384 1.31968)
(1.61348 1.03034 1.20566)
(1.59269 1.06759 1.14601)
(1.1888 1.6302 1.28967)
(0.984937 1.37447 1.6296)
(1.52664 1.24973 1.53076)
(1.44709 1.26276 0.599383)
(1.30641 1.49107 0.88767)
(1.54699 1.61495 1.14972)
(1.0716 1.21362 0.812866)
(1.675 1.66585 1.09125)
(1.48539 0.993319 1.2964)
(1.64752 1.41342 1.02009)
(1.22914 1.59528 1.23855)
(0.887595 1.1122 1.38512)
(1.07358 1.27979 0.932584)
(1.56421 1.70468 1.18007)
(1.26 1.53298 0.49165)
(1.39287 1.08826 1.31712)
(1.65077 1.16793 0.936762)
(1.76686 1.01383 1.14686)
(0.93034 1.09571 1.48318)
(1.10448 1.31125 1.39114)
(0.947737 1.31838 1.55363)
(0.83368 0.821664 1.26299)
(0.932509 1.38427 1.68594)
(1.09274 1.29654 1.09627)
(0.981862 1.20602 0.944679)
(1.32907 0.987578 1.15713)
(1.01109 1.22222 0.962706)
(1.20181 1.13614 1.05937)
(1.68008 1.18824 1.27959)
(1.10893 1.24146 0.978311)
(1.11436 1.46518 0.796036)
(1.62515 1.12139 1.34435)
(1.33586 1.16879 1.1377)
(1.25904 1.22003 1.11887)
(1.1958 1.18169 1.01969)
(0.892218 1.32748 0.731337)
(1.09784 1.2574 0.894437)
(0.981324 1.19195 0.924504)
(1.06551 1.25404 0.91435)
(0.964477 1.25919 0.841284)
(1.44113 1.03678 1.15156)
(1.24619 1.42575 1.06464)
(1.38311 1.07242 1.13222)
(1.37341 1.35825 0.998074)
(1.20292 1.58361 1.27933)
(1.4167 1.34556 1.03102)
(1.56485 1.38436 1.14009)
(1.26636 1.82408 1.11688)
(1.28088 1.80157 1.08088)
(1.60028 1.50642 1.21538)
(1.83957 1.28043 1.01255)
(1.63779 1.19 0.927924)
(1.18967 1.81869 1.4147)
(1.62167 1.08369 1.16675)
(1.54737 1.18206 1.26566)
(1.81563 1.10491 1.25388)
(1.66183 1.30166 0.915276)
(1.42075 1.14927 1.30949)
(1.65302 1.19046 1.24306)
(1.36376 1.0682 1.06054)
(1.40722 1.09631 1.29844)
(1.6208 1.15085 1.31609)
(1.54527 1.05779 1.29083)
(1.2773 1.78844 1.13369)
(1.27188 1.73724 1.12608)
(1.26858 1.69904 1.17124)
(1.2368 1.32853 0.806054)
(1.58829 1.75212 1.12304)
(1.33839 1.76578 1.14317)
(1.26014 1.07904 0.777509)
(1.63405 1.22957 1.00034)
(1.67101 1.49248 1.02013)
(1.49119 1.35344 1.64301)
(1.66895 1.16808 1.27524)
(1.58907 1.22964 1.35961)
(0.918626 1.35839 1.36081)
(1.59334 1.02917 1.21511)
(1.59584 1.19249 1.20509)
(1.26048 1.30043 0.888257)
(1.32527 1.03375 1.4014)
(0.894504 1.009 1.32807)
(1.10272 1.41669 1.58894)
(0.878977 1.26097 1.30605)
(1.75974 1.45059 1.04832)
(1.70321 1.29008 1.27153)
(1.63673 1.03687 1.18494)
(1.51619 1.18526 1.00115)
(1.73595 1.27815 1.03575)
(1.57421 1.29156 1.25987)
(1.76659 1.07087 1.09274)
(1.63045 1.02167 1.21706)
(1.63347 1.02659 1.19159)
(1.63048 1.01101 1.21498)
(1.61202 1.0172 1.15205)
(1.79631 1.31001 1.03576)
(1.72193 1.59678 1.34817)
(1.17096 1.59476 0.931439)
(1.32024 1.86658 1.1378)
(1.2656 1.72613 1.23504)
(1.20865 1.52137 1.27463)
(1.16193 1.69311 1.27527)
(1.44998 1.43824 0.712053)
(1.09031 1.73386 1.46807)
(1.40161 1.76791 1.39769)
(1.33182 1.52805 0.52243)
(1.20621 1.54576 1.36258)
(1.34703 1.31886 0.453898)
(1.69585 1.2745 1.40827)
(0.696945 1.54615 0.901401)
(0.803767 1.29281 0.705918)
(1.63178 1.45464 1.44348)
(1.63887 1.48898 1.45257)
(1.32458 1.64673 0.67027)
(1.05414 1.74477 1.46897)
(1.41086 1.26791 0.962663)
(0.9801 1.06227 1.45313)
(1.09348 1.34117 0.788611)
(1.19459 1.20658 0.969018)
(0.967401 1.35395 1.60746)
(0.513649 1.32723 1.05152)
(1.34051 1.69338 1.23659)
(1.76766 1.32303 1.27971)
(1.33197 1.79989 1.12455)
(1.7713 1.50467 1.09562)
(1.42646 1.33684 1.42148)
(1.52987 1.26409 0.848083)
(1.5627 1.05302 1.26255)
(0.845476 1.16023 1.2656)
(0.811485 1.30143 1.52635)
(1.18458 1.49815 1.3035)
(0.841564 1.7393 1.11784)
(1.84376 1.45652 1.02863)
(1.55523 1.02032 1.11496)
(1.52049 0.994389 1.11833)
(1.28821 1.09281 1.01456)
(1.58144 1.10068 1.23282)
(1.57392 0.986949 1.18194)
(1.77138 1.27905 0.982424)
(1.51244 0.994298 1.25224)
(1.18416 1.81075 1.0168)
(1.71053 1.61344 1.28956)
(1.1912 1.36974 1.0433)
(1.76195 1.32205 1.05009)
(1.58498 1.17745 1.12598)
(1.65697 1.19786 0.881113)
(1.50784 1.38677 1.14887)
(1.56894 1.05804 1.1898)
(1.0857 1.21533 1.68018)
(0.635724 1.48244 1.31035)
(0.480831 1.28325 1.2098)
(0.755871 1.20328 1.44274)
(0.704443 1.52555 1.53207)
(1.18212 1.39253 1.65927)
(0.491399 0.934202 1.30417)
(1.55076 1.53061 1.02782)
(0.580239 1.27725 1.16525)
(1.31998 1.38241 1.64573)
(0.852399 0.983958 1.50743)
(1.41039 1.26328 0.852061)
(0.875227 1.17039 1.70888)
(0.757533 1.1781 1.3408)
(1.20349 1.51688 1.66181)
(0.722687 1.35394 1.08439)
(0.579991 1.44636 1.312)
(1.04161 1.14174 1.63151)
(0.273385 1.288 1.17618)
(0.796842 1.24474 1.61725)
(1.0954 1.24782 1.61932)
(1.14484 1.43905 1.29826)
(1.21913 1.41127 1.58755)
(0.848763 0.974787 1.52418)
(0.940768 1.28626 1.45328)
(1.40406 1.53535 0.991814)
(1.51338 1.24754 1.15124)
(0.569359 1.5366 1.29342)
(0.449848 1.31331 1.10285)
(0.76408 1.35628 1.12712)
(1.01007 1.13923 1.28908)
(0.730023 0.961053 1.60376)
(1.2436 1.13449 1.23613)
(1.16101 1.01894 1.42119)
(0.84027 1.56426 1.09009)
(1.37653 1.47514 1.04082)
(1.65933 1.55866 1.31003)
(0.348704 1.04863 1.14847)
(0.438627 1.18916 1.36738)
(0.572374 1.25082 1.12425)
(1.03962 1.60116 1.50355)
(0.237869 1.30604 0.899997)
(0.518786 1.4435 1.46171)
(0.683075 1.45307 1.27511)
(0.535318 0.968139 1.14198)
(0.280057 1.46133 1.09079)
(0.273657 1.26709 1.12432)
(0.678172 1.43452 1.3091)
(0.998463 1.00752 1.59495)
(1.30066 1.23542 1.15832)
(1.12217 1.14449 1.59659)
(0.858415 0.894809 1.2523)
(0.656044 1.52102 1.05297)
(1.51064 0.999164 1.19673)
(1.35481 1.07793 1.02997)
(1.31029 1.52102 1.51282)
(1.17429 1.47902 1.38784)
(0.932222 1.27535 1.05834)
(0.756333 1.53695 1.51274)
(1.27951 1.37053 1.13617)
(1.20829 1.62929 1.46919)
(0.509044 1.57299 1.42062)
(0.610884 1.55799 1.19)
(1.34357 1.82239 1.29567)
(0.78588 1.66838 1.49782)
(0.655917 1.25426 1.52419)
(1.49257 1.46256 1.23496)
(0.831347 0.979404 1.36811)
(0.355022 0.887996 1.16801)
(0.280878 1.37757 1.20664)
(0.73638 1.20426 1.41466)
(0.848193 1.35809 1.47435)
(1.41151 1.26004 0.980059)
(0.875157 0.775887 0.785551)
(0.665061 1.47427 1.34231)
(1.45087 1.55858 1.33683)
(1.28703 1.34994 1.27229)
(1.34834 1.79091 1.38776)
(1.60215 1.80775 0.737237)
(1.35742 1.22941 0.640702)
(1.06097 1.16006 1.69026)
(0.9362 1.13387 1.55559)
(1.56243 1.71554 1.18787)
(1.21431 1.41868 1.58216)
(1.3396 1.76653 1.47204)
(1.20572 1.4075 1.63278)
(1.16547 1.52432 1.69875)
(1.21215 1.18931 1.60348)
(1.12428 1.52876 1.71634)
(0.619944 1.20499 1.50483)
(1.02997 1.1415 1.59251)
(0.918844 1.38478 1.67052)
(0.967623 1.07776 1.64599)
(0.769636 1.35213 1.08866)
(1.00516 1.10639 1.65075)
(1.07839 1.20005 1.66321)
(1.02151 1.11518 1.64749)
(0.750383 0.900946 1.17921)
(1.10962 1.21931 1.65188)
(1.42414 1.78168 1.27327)
(1.2742 1.36461 1.01946)
(1.26206 1.39974 1.5504)
(1.25712 1.51142 1.52467)
(1.27184 1.42943 1.49323)
(1.20064 1.30482 1.66059)
(1.36029 1.28071 0.746294)
(1.35296 1.81118 1.26784)
(0.820657 0.771626 1.24009)
(0.386124 1.3003 1.02116)
(1.42791 1.58517 1.2566)
(0.778842 1.31097 1.11282)
(1.18089 1.13255 1.52629)
(0.936109 1.18768 1.60186)
(1.21185 1.06019 1.44392)
(0.857065 1.54621 1.3348)
(1.20602 1.38221 1.65455)
(1.25302 1.5804 1.07017)
(0.475655 1.4766 1.37741)
(0.986517 1.63813 1.4163)
(0.778529 1.46451 1.3868)
(0.768932 1.3776 1.44762)
(1.70216 1.4852 1.24686)
(0.377239 1.16756 0.993797)
(0.850063 0.979495 1.35891)
(1.55813 1.53267 1.00678)
(1.26052 1.59462 1.20214)
(1.65418 1.58909 1.23882)
(1.40048 1.31931 1.06689)
(1.44042 1.48756 1.26952)
(1.21848 1.1706 1.56616)
(0.82611 0.766737 1.19254)
(0.64176 1.36629 1.56334)
(0.949662 1.53814 1.54247)
(0.991767 1.47041 1.27011)
(1.15571 0.873586 0.740294)
(0.808873 1.38 1.08823)
(0.944672 1.45899 1.29124)
(1.30517 1.5653 1.3918)
(1.50428 1.5664 1.22575)
(1.65738 1.57686 1.05382)
(1.3712 1.50697 1.1034)
(0.782775 1.37237 1.51826)
(0.850977 1.6045 1.61021)
(0.92656 1.46724 1.61264)
(1.67958 1.29738 1.4631)
(1.31724 1.62261 1.49049)
(0.956355 1.13037 1.71452)
(0.947862 1.11637 1.69275)
(1.40466 1.44701 0.542776)
(0.879467 1.64732 1.52837)
(1.0044 1.41885 1.7529)
(0.864842 0.983406 1.51642)
(0.739387 1.36012 1.70563)
(0.898844 1.65839 1.40338)
(0.404079 1.25132 1.142)
(1.18906 1.20315 1.59715)
(0.637661 1.32868 1.53567)
(0.916159 1.51197 1.46609)
(1.05431 1.31492 1.69985)
(1.01768 1.85548 0.887729)
(1.0661 1.58041 1.15399)
(0.552734 1.61995 1.2661)
(0.657338 1.52696 1.43421)
(0.632996 1.52504 1.32645)
(1.46877 1.5844 1.2638)
(0.952331 1.58753 0.610837)
(0.691631 1.20863 1.59291)
(0.679934 1.23114 1.1672)
(0.744636 1.00899 1.4147)
(0.50354 1.68881 0.766269)
(1.12635 1.66915 0.744854)
(1.19372 1.21379 0.543641)
(0.484071 1.28395 0.67641)
(1.39416 1.65288 1.15143)
(1.31322 1.66877 0.681372)
(1.17638 1.59974 0.845889)
(1.0345 1.33828 0.395877)
(0.77919 1.21755 0.674739)
(1.61725 1.79728 0.77388)
(1.54164 1.80834 0.746746)
(1.29216 1.5863 0.45936)
(1.03964 1.84964 0.814687)
(0.475004 1.62739 0.758123)
(0.481329 1.29259 0.597434)
(1.49547 1.67306 0.55862)
(0.993001 1.44011 0.350742)
(0.543623 1.53088 0.612284)
(1.06105 0.885013 0.680254)
(1.05508 1.42827 0.494914)
(0.803643 1.84083 0.961778)
(0.588926 1.59329 0.535329)
(0.690904 1.36987 0.778628)
(0.606665 1.44039 0.614427)
(1.54734 1.4844 0.582411)
(0.733006 1.22662 0.385615)
(1.18395 1.05827 0.880087)
(1.1062 0.944417 1.25723)
(1.05535 1.65478 0.344508)
(1.06292 1.37762 0.844342)
(0.886737 1.41525 0.196546)
(1.35858 1.53558 0.560136)
(1.34473 1.81192 0.744977)
(0.985091 1.50923 0.393543)
(0.860509 1.69222 0.429423)
(1.43331 1.27676 0.352575)
(0.5304 1.68851 1.03118)
(0.430129 1.53887 0.726465)
(1.05247 0.771915 0.824403)
(0.818152 1.29302 0.616825)
(0.622481 1.45778 0.623391)
(0.936252 1.48864 1.36656)
(1.56261 1.43533 0.76578)
(0.586735 1.41129 0.604935)
(1.02309 0.962745 0.71848)
(0.863554 1.30393 0.224501)
(1.1675 1.47218 0.390923)
(0.92133 0.945037 0.650333)
(1.38792 1.64418 0.477699)
(0.902074 1.64671 1.10053)
(1.26155 1.41945 0.435814)
(1.03645 1.51911 0.331586)
(1.02881 1.45171 0.499375)
(0.865147 1.8401 0.959287)
(1.44092 1.59445 0.508803)
(1.42613 1.60568 0.580736)
(1.18005 1.50492 0.72984)
(0.908961 1.51796 0.451013)
(1.06571 1.2679 0.284751)
(1.17933 1.06424 0.526962)
(1.13967 1.30782 0.643019)
(1.30435 1.68182 0.785937)
(1.2641 1.72146 0.89518)
(1.19348 1.8134 0.72602)
(1.46645 1.67764 0.584091)
(1.51184 1.67934 0.554509)
(1.49431 1.41904 0.834859)
(1.3899 1.40049 0.816434)
(1.52767 1.6377 0.524186)
(1.39081 1.66136 0.682268)
(1.17691 1.57391 0.767973)
(1.34514 1.71743 0.973252)
(1.34213 1.71945 0.98387)
(1.05974 0.846545 0.497123)
(0.898997 1.02931 0.305606)
(1.14581 1.73668 0.411523)
(1.22346 1.79017 0.47434)
(1.05179 1.25376 0.300138)
(0.541004 1.44897 0.635392)
(0.988534 1.37128 0.413793)
(0.736176 1.07462 0.406246)
(0.91815 1.4784 1.44039)
(0.583675 1.04206 0.549489)
(0.760992 1.14008 0.917498)
(1.19721 1.33525 0.272749)
(0.995328 1.11554 0.33259)
(0.441615 1.69536 0.934367)
(1.18838 1.80419 0.712344)
(0.825563 1.83403 0.825141)
(0.84451 1.65958 0.94941)
(1.4798 1.65873 0.565609)
(0.795381 1.62609 0.753452)
(0.735864 1.74229 0.656171)
(1.2148 1.79543 0.672149)
(0.976882 1.39752 0.882084)
(0.796484 1.43904 0.322057)
(1.58632 1.42227 1.32324)
(0.62157 1.62566 1.06896)
(0.592554 1.7652 0.687631)
(0.920981 1.52307 0.251709)
(1.32996 1.62953 0.448164)
(1.03168 1.36629 0.360567)
(1.5499 1.25939 0.557734)
(0.888289 1.31783 0.99873)
(0.736576 1.0985 0.430358)
(1.00609 1.69912 0.820734)
(1.5386 1.47601 0.616704)
(1.23641 1.55665 0.472115)
(1.74106 1.57137 0.673221)
(1.29007 1.65502 0.91721)
(1.61658 1.78181 0.678617)
(1.13666 1.55306 0.350302)
(1.4002 1.73424 0.516289)
(0.750716 1.17151 0.459524)
(1.27268 1.52258 0.493092)
(1.22827 1.69071 0.418812)
(0.792696 1.70118 0.768223)
(1.27702 1.66845 0.825159)
(1.43253 1.44953 0.725313)
(1.08573 1.30238 0.416638)
(0.902141 1.66453 0.486934)
(0.983054 1.39695 0.881066)
(1.08101 1.29372 0.432931)
(1.32414 1.53866 0.447734)
(0.55984 1.48229 0.569122)
(0.48332 1.48904 0.774236)
(1.20959 0.967992 0.78493)
(0.546225 1.68309 0.710666)
(0.501938 1.63323 0.666232)
(0.736118 1.38224 0.750895)
(0.717711 1.34832 1.03601)
(0.80979 1.44533 0.449371)
(0.870002 1.35529 1.58412)
(1.42609 1.32407 1.00059)
(0.777255 1.44569 0.590141)
(0.677717 1.66312 1.07191)
(1.0838 1.30421 1.25681)
(0.419204 1.32748 0.724684)
(0.88707 1.23016 0.357022)
(1.68067 1.44927 0.779982)
(1.18426 1.61807 1.42367)
(0.872785 1.41936 0.950548)
(0.864456 0.800241 0.540265)
(1.14387 0.995012 0.812236)
(1.11648 0.755776 0.899497)
(0.707472 0.904915 0.500566)
(1.38331 1.45278 0.573506)
(1.43557 1.52029 0.65809)
(1.08206 1.35435 0.482936)
(1.76259 1.35393 1.34461)
(1.23263 1.41601 0.498283)
(0.888243 1.32383 0.897638)
(1.47435 1.46783 0.686419)
(1.5084 1.43217 0.756275)
(0.89844 1.19563 0.949903)
(1.33555 1.72023 0.666389)
(1.3905 1.61182 0.706988)
(1.15525 1.72565 0.445922)
(1.34915 1.67676 0.789073)
(0.712323 1.39782 0.803126)
(0.756095 0.822344 0.52573)
(1.07951 1.42893 0.50743)
(0.985907 1.39689 0.468557)
(0.920338 1.83895 0.9548)
(0.642705 1.72832 1.03665)
(1.70251 1.67191 0.718702)
(1.49293 1.678 0.896229)
(1.57867 0.979637 0.865634)
(0.964537 1.31237 1.03795)
(1.27626 1.54797 0.838945)
(1.04826 1.23577 0.902203)
(0.74122 1.62598 0.964919)
(1.51567 1.06642 0.721795)
(1.40726 1.73272 0.850717)
(1.46696 1.72346 0.776725)
(1.30566 1.65467 0.77243)
(1.50026 1.11993 0.909886)
(1.44015 1.18741 0.763601)
(1.46711 1.3637 0.660106)
(1.76192 1.26508 0.892221)
(1.0311 1.16467 0.709417)
(0.947571 1.19551 0.869306)
(0.659191 1.7863 0.902105)
(1.308 1.28053 0.893872)
(1.29863 1.28211 1.08826)
(1.32737 1.22794 0.964492)
(1.53729 1.00814 0.836724)
(1.34829 1.27358 0.896822)
(1.46707 1.77194 0.620095)
(1.57254 1.53689 0.847472)
(1.50673 1.13168 0.832474)
(1.42978 1.34543 0.925682)
(1.31337 1.39895 0.427673)
(1.41904 1.74566 1.0004)
(0.898937 1.32072 0.727644)
(0.688588 1.28861 0.969518)
(1.69416 1.23364 0.781276)
(1.2395 1.17141 0.740196)
(1.00773 1.33237 0.701135)
(1.28463 1.60612 0.803538)
(1.41476 1.52468 1.28451)
(0.817944 1.39949 0.764846)
(0.898254 1.26414 0.789935)
(1.00199 1.20967 0.927455)
(1.65405 1.78718 0.904526)
(1.57221 1.84772 0.854364)
(1.70117 1.80085 0.867587)
(1.53216 1.67244 0.817345)
(1.70954 1.63516 0.685222)
(1.75052 1.54392 0.616778)
(1.56393 1.67765 0.691145)
(1.56287 1.55471 0.799142)
(1.74979 1.45655 0.828919)
(1.59941 1.34646 0.735069)
(1.70059 1.25933 0.775131)
(1.72959 1.27166 0.832304)
(1.45389 1.06685 0.736065)
(0.6206 1.50502 0.73943)
(1.3758 1.70455 1.03324)
(1.00496 1.77239 0.473274)
(1.23876 1.60976 1.32343)
(1.64447 1.46192 0.950633)
(1.34743 1.17184 0.936997)
(1.43978 1.31941 1.01409)
(1.32288 1.19939 0.917594)
(1.52416 1.12004 0.862282)
(1.67602 1.15914 0.847559)
(0.764571 1.53985 0.84236)
(0.92938 1.19675 0.627411)
(1.67749 1.15124 0.829283)
(1.3132 1.39541 0.954337)
(1.40413 1.04897 1.12993)
(1.16088 1.39259 0.652394)
(1.3328 1.23322 1.34698)
(1.29411 1.45029 0.830132)
(1.25975 1.35883 1.13202)
(0.88271 1.34815 0.743686)
(0.906383 0.874624 0.45494)
(1.26517 1.18454 0.271379)
(0.810215 1.10478 0.467026)
(1.517 1.77442 0.619742)
(1.3663 1.72735 0.709525)
(1.21629 1.64985 1.37995)
(1.59434 1.57945 0.524284)
(1.44352 1.73542 0.648914)
(1.28408 1.6343 0.827305)
(1.36004 1.83313 1.0908)
(1.31714 1.87319 1.03922)
(1.43525 1.68066 1.01955)
(1.25009 1.59385 0.892425)
(1.27027 1.19532 0.913445)
(1.328 1.12694 0.944353)
(1.00059 1.19996 0.93079)
(0.722906 1.14015 0.958298)
(0.712792 1.29611 0.722988)
(0.975497 1.25472 0.831068)
(0.97595 1.23321 0.849269)
(1.07434 1.24468 0.863382)
(0.938018 1.22631 0.843443)
(1.35074 1.68016 0.717245)
(1.42542 1.8033 0.814328)
(1.63314 1.37559 0.725416)
(1.3355 1.69092 0.730538)
(1.27569 1.74566 0.496055)
(1.16997 1.80888 0.486311)
(1.56653 1.81475 0.865119)
(1.33556 1.5846 1.26806)
(1.28356 1.75603 0.502368)
(1.41048 1.7972 0.599719)
(1.24461 1.13285 0.583949)
(1.25654 1.03837 0.44432)
(0.777866 1.43061 0.626126)
(1.00253 1.26928 0.743201)
(0.822843 1.40076 0.666692)
(1.80454 1.46357 0.781985)
(1.44236 1.65155 1.03322)
(1.27633 1.44338 0.614915)
(1.41071 1.39734 0.650423)
(0.691376 1.52512 0.899354)
(0.440728 1.21759 1.17929)
(1.64427 1.79132 0.825053)
(1.25889 1.48635 0.621974)
(1.30629 1.60479 0.839614)
(1.4292 1.56381 0.915082)
(1.7783 1.55593 0.841109)
(1.24377 1.83452 0.837053)
(1.56043 1.86566 0.767337)
(0.959393 1.05402 0.995373)
(1.35868 1.67624 0.713858)
(0.681896 1.63911 0.898061)
(1.01898 1.14984 0.605534)
(1.2355 1.24723 0.361163)
(1.41039 1.14322 0.632197)
(0.691724 1.55671 0.862246)
(1.23946 1.21895 0.433423)
(1.27603 1.2505 0.364134)
(0.609606 1.48237 0.72756)
(0.904095 1.09425 1.03205)
(1.03901 1.07914 0.636811)
(0.798726 0.972368 0.552957)
(1.02252 1.29379 0.845992)
(1.47133 1.46976 0.825003)
(1.52645 1.65459 1.06533)
(1.40306 1.39076 0.664617)
(1.33583 1.65829 0.73446)
(1.60851 1.09251 0.909379)
(1.51386 1.16791 0.702546)
(1.58592 1.0204 0.771342)
(1.16696 1.37116 0.737894)
(1.54749 1.12288 0.688589)
(0.922206 1.14917 0.944409)
(1.44956 1.15522 0.860116)
(1.21739 1.41758 0.883532)
(1.04839 1.20094 0.832164)
(1.17725 1.21153 0.795698)
(0.728603 1.56933 0.914808)
(0.613074 1.4716 0.717817)
(1.55402 0.998574 0.790575)
(1.30027 1.11696 0.626434)
(1.37886 1.56614 0.635205)
(0.893136 1.78538 0.972045)
(0.734024 1.57367 0.872383)
(1.03032 1.26717 0.995757)
(1.46812 1.13687 1.0007)
(1.59902 1.03769 0.894999)
(1.58005 1.08474 0.93275)
(1.62668 1.00627 0.777783)
(1.29985 1.15891 0.793581)
(0.597018 1.48944 0.719609)
(1.12529 1.28658 0.633267)
(0.658744 1.68534 0.946389)
(1.20556 0.98771 0.681776)
(1.60128 1.43221 1.24547)
(1.50645 1.50842 1.25302)
(1.33537 1.67025 1.59263)
(1.54295 1.39169 1.47218)
(1.54919 1.54827 1.53776)
(1.61876 1.56671 1.48974)
(1.43239 1.71326 1.31831)
(1.28183 1.84186 1.13842)
(1.22081 1.10416 1.15428)
(1.37993 1.49245 1.04928)
(1.52975 1.37898 1.66548)
(1.21333 1.11699 1.19557)
(0.588915 1.41623 1.08782)
(0.792934 0.95904 1.00777)
(0.74026 1.73263 0.963919)
(1.23832 1.62899 1.5294)
(1.69954 1.23065 1.44951)
(1.29076 1.10209 1.65562)
(0.729993 1.72612 1.20533)
(0.625986 1.50757 1.25579)
(0.801632 1.10974 1.58298)
(1.233 1.31267 0.998027)
(0.439648 0.826659 1.18427)
(1.30674 1.12554 1.20405)
(1.49476 1.57268 1.46374)
(1.40624 1.2873 1.62627)
(1.12617 1.24724 1.13579)
(0.683013 1.68293 1.28104)
(0.986327 1.38053 1.57154)
(1.64091 1.44942 1.28267)
(1.09535 1.40613 1.49695)
(0.48378 1.5466 1.42509)
(1.71348 1.27981 1.36495)
(1.46427 1.57141 1.07638)
(1.49926 1.57871 1.24977)
(1.79167 1.38337 1.34231)
(1.06026 1.46434 1.3895)
(1.42122 1.57121 1.49476)
(1.51382 1.60134 1.44183)
(1.2822 1.19501 1.66788)
(0.935821 1.24484 1.447)
(1.63157 1.59344 1.45019)
(1.60565 1.2325 0.88119)
(0.884863 1.29057 1.71105)
(1.64228 1.47953 1.1669)
(1.36847 1.35755 1.487)
(1.10854 1.3301 1.19051)
(1.25248 1.64258 0.613924)
(1.71598 1.34261 1.2695)
(0.849884 1.30406 1.01036)
(1.13404 1.33195 1.56443)
(0.617314 1.48786 1.23063)
(1.50861 1.71489 1.31628)
(1.2674 1.54647 1.04187)
(1.21249 1.5689 1.14389)
(1.57792 1.48356 1.3175)
(1.53162 1.47525 1.60219)
(1.42352 1.31296 1.64011)
(1.61882 1.5843 1.29792)
(1.37007 1.25651 1.66068)
(1.0054 1.70375 1.45575)
(0.752975 1.48305 0.918878)
(1.43079 1.44811 1.04633)
(1.46816 1.55723 1.14498)
(1.41005 1.37833 1.59063)
(1.34012 1.37552 0.457515)
(0.933541 1.45272 1.34759)
(1.47813 1.30778 1.62592)
(1.33474 1.52593 1.15016)
(1.062 1.1819 1.499)
(1.33652 1.11246 0.835335)
(1.79308 1.54369 0.966163)
(1.81578 1.21028 1.31975)
(1.55956 1.14603 1.07882)
(1.5453 1.16491 1.26731)
(1.65907 1.41861 1.0866)
(1.55453 1.4184 1.00879)
(1.76219 1.04014 1.09919)
(1.5941 1.33419 1.22922)
(1.27957 0.975135 1.38874)
(1.67215 0.985006 1.05047)
(1.76231 1.37773 1.1157)
(1.1671 1.37648 0.942548)
(1.48437 1.36499 1.39574)
(1.56538 1.56853 1.58273)
(1.68404 1.37376 1.14181)
(1.65711 1.01671 1.10476)
(1.79235 1.10102 1.16555)
(1.69028 1.12342 1.04585)
(1.57816 1.16637 1.21231)
(0.702198 1.28811 0.717942)
(1.59352 1.10829 1.09274)
(1.28366 1.08388 0.901713)
(1.74775 1.16313 1.00675)
(1.50575 1.15365 0.541674)
(1.31351 1.40099 0.670662)
(1.57259 1.16715 1.23037)
(0.522408 1.38632 1.11324)
(1.08089 1.65675 1.50535)
(1.3434 1.40248 0.375079)
(1.41124 1.01357 0.66552)
(1.39832 1.43976 0.508627)
(1.7073 1.27935 1.02961)
(1.37345 0.992676 1.38551)
(1.6889 1.36137 1.16591)
(1.25205 0.971231 1.38809)
(1.35596 1.05035 1.53493)
(1.70888 1.32328 1.28726)
(1.52336 1.31113 1.18851)
(1.33678 1.82157 1.18893)
(1.28579 1.17539 0.442173)
(1.608 1.11318 1.04176)
(1.65225 1.29707 1.33364)
(1.67232 1.62794 1.34041)
(1.75569 1.57408 1.08085)
(1.45113 1.41393 1.55645)
(1.73592 1.40075 1.37868)
(1.32378 1.69157 1.29163)
(1.62513 1.28752 1.35092)
(1.34807 1.10329 1.34814)
(1.33225 0.981698 1.35461)
(1.74909 1.37062 1.38605)
(0.759548 1.58453 0.804759)
(1.61187 1.02776 1.04483)
(1.56113 1.10695 1.09999)
(1.04708 1.32092 1.02997)
(1.7708 1.35312 1.43021)
(1.69796 1.42059 1.121)
(1.37335 1.5081 1.59196)
(1.43354 1.1854 0.73908)
(1.18064 1.3956 0.958844)
(1.55674 1.31147 1.36374)
(1.48035 1.22829 1.29841)
(0.861005 1.24773 1.26792)
(1.6815 1.00205 1.12187)
(1.70178 0.996444 1.12368)
(0.806687 1.69086 0.998253)
(1.51807 1.09986 1.16248)
(1.6598 1.26003 1.28575)
(1.67707 1.03824 1.07327)
(1.81095 1.03104 1.12065)
(1.73093 1.00454 1.11897)
(0.986688 1.14788 0.650803)
(1.65303 0.993384 1.14073)
(0.889324 1.27582 0.753627)
(1.37679 1.08601 0.888691)
(1.5912 1.02823 0.81945)
(1.6401 1.2225 1.26911)
(0.871382 0.854332 0.851848)
(1.30661 1.04688 0.710215)
(1.34362 1.48045 0.453599)
(1.58678 1.4297 1.36861)
(1.741 1.29649 1.15957)
(1.38526 1.0917 0.867436)
(1.73765 1.25595 1.08756)
(1.35705 1.29072 0.385635)
(0.906365 1.06093 1.05374)
(0.639602 1.65019 0.9213)
(0.627573 1.60238 0.923263)
(0.640386 1.667 0.900426)
(1.28795 1.02352 0.761162)
(1.00374 0.961327 1.1188)
(0.983965 1.79532 0.575811)
(1.15466 1.11564 1.25662)
(1.16223 1.41619 0.219535)
(0.824817 0.847307 0.690431)
(1.71217 1.65045 0.806265)
(1.22249 1.21507 0.422658)
(1.45388 1.50547 0.651827)
(1.31395 1.02515 0.708358)
(1.57783 1.70641 0.831783)
(1.52088 1.69855 0.813954)
(0.629562 1.50663 0.85794)
(0.672236 1.51827 0.496796)
(1.71876 1.57309 0.887423)
(1.04032 1.74034 0.553278)
(0.890843 1.38617 0.776079)
(0.634573 1.7367 0.894556)
(1.55497 1.44101 0.787342)
(1.51552 1.10756 0.795075)
(0.586474 1.49043 0.705782)
(1.23087 1.12291 0.907717)
(1.62134 1.56431 0.818322)
(1.57656 1.19463 0.600984)
(0.967233 1.2188 0.848221)
(0.710709 1.32197 0.711349)
(1.57233 1.25017 1.19794)
(1.4207 1.23504 0.976656)
(1.45084 1.19964 0.866937)
(0.896128 1.27493 0.724084)
(1.75412 1.07755 0.880581)
(1.1616 1.30565 0.592388)
(1.69884 1.13512 0.867111)
(1.5312 1.48492 1.0038)
(1.23518 1.28986 0.987312)
(1.73494 1.02414 1.08345)
(1.62259 1.0618 1.14452)
(1.17478 1.27094 0.577967)
(1.35681 1.33747 0.83592)
(0.710951 1.43817 0.633066)
(1.56835 1.23789 1.2825)
(1.61746 1.22008 1.28306)
(1.30162 1.30419 0.348853)
(1.47481 1.10509 0.873118)
(1.01569 1.15296 1.21461)
(1.62666 1.08406 1.12664)
(1.7088 1.22726 1.23118)
(1.60833 1.25826 1.12377)
(1.16717 1.28621 0.550719)
(1.50282 1.13818 1.29648)
(1.09342 1.51466 0.515101)
(0.767315 1.32618 0.277999)
(1.49245 1.76239 0.661656)
(0.816304 1.47392 0.422529)
(1.64326 1.57314 0.829662)
(1.34921 1.27503 0.272842)
(0.91699 1.25212 0.635093)
(1.40511 1.65548 1.03037)
(0.613877 1.56868 0.507684)
(1.60804 1.5562 0.907032)