/*--------------------------------*- C++ -*----------------------------------*\
| =========                 |                                                 |
| \\      /  F ield         | OpenFOAM: The Open Source CFD Toolbox           |
|  \\    /   O peration     | Version:  v1806                                 |
|   \\  /    A nd           | Web:      www.OpenFOAM.com                      |
|    \\/     M anipulation  |                                                 |
\*---------------------------------------------------------------------------*/
FoamFile
{
    version     2.0;
    format      ascii;
    class       volScalarField;
    location    "0.1355";
    object      p;
}
// * * * * * * * * * * * * * * * * * * * * * * * * * * * * * * * * * * * * * //

dimensions      [0 2 -2 0 0 0 0];


internalField   nonuniform List<scalar> 
64000
(
0.000657788
0.0868525
0.185005
0.362965
0.554707
0.798009
1.17322
1.63175
2.25795
3.08495
3.91981
4.86418
5.86659
6.96269
8.16086
9.29007
10.7042
11.9665
13.4071
14.582
16.4718
17.3056
18.3473
19.1195
20.1167
20.9122
21.7771
22.4669
23.0108
23.5653
24.028
24.4719
24.824
25.1608
25.3918
25.6451
25.7813
25.921
25.989
26.0322
-0.198846
-0.091241
-0.00757252
0.152451
0.375105
0.653814
1.01015
1.38165
2.05202
2.94478
3.79117
4.77627
5.78065
6.87553
8.04886
9.05613
10.6324
11.992
13.3965
14.6818
16.3893
17.3472
18.4012
19.2223
20.2247
21.02
21.8778
22.549
23.1917
23.6434
24.0324
24.4685
24.8439
25.1697
25.4004
25.6093
25.7675
25.9075
25.974
26.004
-0.645858
-0.534661
-0.423172
-0.25508
-0.0275121
0.251261
0.579737
1.05814
1.78581
2.53306
3.36705
4.35489
5.19346
6.56944
7.81305
9.07127
10.499
11.8189
13.2261
14.4942
16.114
17.0397
18.0884
18.8656
19.847
20.6121
21.4497
22.1339
22.788
23.3343
23.7759
24.1746
24.6242
25.0026
25.2757
25.4975
25.6463
25.7804
25.8514
25.8869
-1.32329
-1.25143
-1.11798
-0.954148
-0.733066
-0.494637
-0.133724
0.438615
1.13044
1.80845
2.78086
3.87872
4.9481
6.14841
7.44584
8.73347
10.1258
11.4826
12.9132
14.1896
15.7545
16.6588
17.6918
18.4627
19.4298
20.1911
21.0307
21.7184
22.4072
22.9788
23.5205
23.9942
24.4264
24.8442
25.1316
25.3719
25.5329
25.628
25.6743
25.7067
-2.18549
-2.14257
-2.0401
-1.87338
-1.61911
-1.38957
-1.05793
-0.468992
0.281685
1.08743
2.06852
3.10632
4.2159
5.46039
6.80436
8.13455
9.57164
11.0155
12.485
13.8188
15.3963
16.2924
17.3338
18.0919
19.0533
19.8109
20.644
21.3434
22.0249
22.636
23.1953
23.7312
24.1531
24.5747
24.918
25.2163
25.3396
25.3974
25.4629
25.4827
-3.55568
-3.37642
-3.16932
-2.95917
-2.70251
-2.38831
-2.12208
-1.49308
-0.550866
0.141873
1.04725
2.09929
3.30907
4.58994
5.97913
7.34153
8.70821
10.4008
12.0858
13.5208
15.1264
16.0468
17.1015
17.8867
18.8484
19.6165
20.4245
21.0988
21.7622
22.3696
22.9479
23.5059
23.9917
24.4165
24.7453
25.0657
25.1269
25.1451
25.1705
25.1879
-5.00148
-4.90763
-4.72763
-4.3873
-4.05365
-3.8026
-3.3548
-2.79474
-2.10034
-1.32397
-0.293275
0.851847
2.14536
3.52924
5.02451
6.55707
8.1453
9.76097
11.3498
13.093
14.8119
15.8316
16.9377
17.747
18.7034
19.4817
20.2492
20.9154
21.5506
22.1399
22.6959
23.2258
23.7128
24.1535
24.5451
24.7855
24.8663
24.8037
24.8171
24.8308
-6.19655
-6.1214
-6.03963
-5.87107
-5.6871
-5.47843
-4.92098
-4.40007
-3.61001
-2.74528
-1.6761
-0.492219
0.866774
2.33653
3.94208
5.58601
7.31012
8.99824
10.6058
12.5614
14.4759
15.5922
16.8012
17.6459
18.6032
19.398
20.1397
20.7885
21.371
21.9531
22.4767
22.9563
23.4119
23.8171
24.1378
24.4146
24.4641
24.4055
24.3694
24.3855
-7.4325
-7.41279
-7.33433
-7.21649
-6.89008
-6.76443
-6.26704
-5.93693
-5.11474
-4.27034
-3.18499
-1.95084
-0.546462
0.978172
2.67298
4.43452
6.29169
8.0929
9.94114
11.9232
14.0754
15.4386
16.6655
17.6032
18.5222
19.3463
20.0529
20.6738
21.2499
21.7737
22.2337
22.6802
23.063
23.4328
23.7709
23.949
24.0336
23.9371
23.8266
23.8532
-8.70848
-8.67297
-8.60251
-8.53587
-8.35914
-8.25519
-7.7311
-7.53978
-6.77221
-5.83202
-4.74391
-3.46652
-2.02934
-0.444686
1.32745
3.21488
5.21273
7.16839
9.20734
11.2814
13.6605
15.2816
16.5462
17.5758
18.4752
19.3115
19.9878
20.6005
21.1395
21.5811
21.9828
22.3365
22.6765
22.999
23.2721
23.4598
23.4439
23.3623
23.2245
23.2397
-10.0913
-9.99808
-9.97897
-9.95084
-9.87763
-9.79311
-9.31612
-8.88483
-8.57123
-7.52597
-6.35788
-5.06741
-3.57777
-1.91907
-0.0681515
1.97425
4.14952
6.31966
8.53245
10.9558
13.4008
15.1552
16.4716
17.5813
18.458
19.3373
19.9585
20.5624
20.9835
21.3923
21.7208
22.0018
22.2681
22.4949
22.7354
22.8764
22.8222
22.6884
22.5084
22.5131
-11.4648
-11.3912
-11.4034
-11.4215
-11.4867
-11.3698
-10.9866
-10.5739
-10.0868
-9.32474
-8.08721
-6.7407
-5.21188
-3.47353
-1.53091
0.70784
3.07582
5.43389
8.12822
10.6437
13.1442
14.9911
16.4036
17.5731
18.4612
19.2886
19.9325
20.4676
20.8971
21.2028
21.4766
21.723
21.8854
22.0686
22.2432
22.3441
22.0984
21.8911
21.7188
21.678
-12.9286
-12.8643
-12.8976
-13.0281
-13.1027
-12.996
-12.6979
-12.2839
-11.6858
-11.0812
-9.96085
-8.51013
-6.94236
-5.07345
-3.18709
-0.605399
2.15863
4.86886
7.63128
10.227
12.8718
14.7977
16.3417
17.6469
18.6474
19.4369
19.9628
20.4301
20.703
20.9321
21.0385
21.1073
21.1887
21.2486
21.313
21.336
21.3702
21.0055
20.7623
20.6848
-14.3817
-14.3277
-14.4124
-14.6063
-14.7043
-14.604
-14.3382
-13.9803
-13.4171
-12.682
-11.9115
-10.3928
-8.89133
-6.69439
-4.30724
-1.72435
1.1166
4.02298
6.8966
9.65726
12.5041
14.7928
16.576
17.7668
18.6041
19.4092
19.9567
20.3379
20.5333
20.592
20.5423
20.4764
20.3892
20.3373
20.3216
20.3166
20.2758
19.9217
19.7047
19.6016
-15.9351
-15.9072
-16.0131
-16.212
-16.3421
-16.313
-16.0405
-15.7119
-15.1718
-14.3791
-13.746
-12.2496
-10.0544
-7.87801
-5.6085
-3.06729
-0.13011
2.96031
5.97769
9.07611
12.2705
14.9784
16.7858
18.0906
19.1058
19.7387
20.0807
20.3338
20.2944
20.1749
19.9666
19.7245
19.5034
19.3101
19.1807
19.1123
19.0002
19.0272
18.3858
18.2716
-17.3072
-17.321
-17.4517
-17.6476
-17.8014
-17.8409
-17.6968
-17.4068
-16.863
-15.9946
-15.288
-13.3101
-11.3086
-9.26082
-6.99591
-4.51478
-1.66783
1.28768
5.0764
8.36298
12.0879
15.1503
16.9243
18.2606
19.172
19.8501
20.1071
20.0218
19.9211
19.5811
19.1775
18.7833
18.419
18.1177
17.8916
17.7342
17.5721
17.3633
17.1459
16.899
-18.9761
-18.9887
-19.1016
-19.2981
-19.4848
-19.5918
-19.5238
-19.2533
-18.6453
-17.6636
-16.4961
-14.8071
-12.8376
-10.6175
-8.20152
-5.72233
-3.2519
0.605918
4.45462
7.97698
11.7417
14.8622
16.639
18.1563
19.3322
19.9235
19.9591
19.7842
19.2392
18.7459
18.1593
17.5783
17.0495
16.6341
16.3416
16.1436
15.9043
15.7532
15.8018
15.3092
-19.9177
-19.997
-20.1489
-20.3751
-20.6491
-20.9285
-21.0316
-20.8719
-20.272
-19.137
-17.8891
-16.3267
-14.3181
-11.9517
-9.36126
-6.94786
-3.8919
-0.284747
3.99748
7.49946
10.8195
13.9774
15.8052
17.7799
19.0406
19.6503
19.6106
19.1885
18.3348
17.6584
16.7072
16.0405
15.5124
14.987
14.6154
14.3749
14.1613
13.9624
13.8128
13.7666
-21.6135
-21.6363
-21.7174
-21.9437
-22.1892
-22.5553
-22.8598
-22.8217
-22.3312
-20.6314
-19.7115
-18.0155
-16.0161
-13.6584
-11.144
-8.04256
-4.70085
-0.993424
3.25355
6.67028
9.78373
12.4715
14.5055
16.3282
17.6883
18.345
18.2413
17.9504
17.1788
16.1455
15.1536
14.3342
13.4231
12.8288
12.4155
12.1481
11.9929
11.8347
11.7991
12.0443
-21.7211
-21.8889
-22.0518
-22.385
-22.8046
-23.6094
-24.5284
-24.7142
-24.2451
-22.7811
-21.879
-20.0892
-18.0034
-15.3908
-12.2029
-8.82742
-5.21041
-1.48005
2.61525
5.98586
8.92444
11.3123
12.6865
13.8807
14.8724
15.3387
15.2311
14.9413
14.309
13.5806
13.0545
12.3605
11.5956
10.8538
10.3039
9.99843
9.76945
9.63576
9.39862
9.43455
-24.0046
-23.6904
-23.8079
-24.0566
-24.5172
-25.5275
-26.6578
-26.945
-26.606
-25.2795
-24.3511
-22.2802
-19.9642
-16.9785
-13.3982
-9.58787
-5.70019
-1.81201
2.1616
5.59321
8.28562
10.1229
11.371
11.9206
12.3032
12.5272
12.1179
11.2843
10.2137
9.21848
8.45386
7.98527
8.41034
8.22566
7.87042
7.62241
7.41636
7.3441
7.26032
6.99634
-24.4712
-24.5049
-24.694
-25.111
-25.7166
-26.8126
-27.9826
-28.5151
-28.5276
-27.1308
-26.2665
-24.1856
-21.8231
-18.5918
-14.7319
-10.4345
-6.23468
-2.03838
1.90993
5.46987
7.90393
9.386
10.5402
10.8284
10.9503
10.89
10.6166
9.82556
8.6424
7.30743
5.86648
4.70425
3.43999
2.65033
3.56015
4.22528
4.46781
4.55525
4.79116
4.7566
-25.3688
-25.4182
-25.68
-26.1234
-26.8459
-27.9188
-28.9641
-29.6646
-29.7682
-28.9789
-27.9551
-25.9426
-23.5514
-20.1937
-16.2546
-11.5829
-7.02328
-2.52849
1.65369
5.37691
7.61813
8.91354
9.80943
9.76728
9.77615
9.75228
9.27987
8.5385
7.44414
6.11453
4.62964
3.08447
2.11606
0.472189
-0.631898
-0.15007
-0.0191825
0.090811
0.131913
-0.106911
-25.4874
-25.8248
-26.0537
-26.6766
-27.4752
-28.42
-29.2775
-29.9883
-30.3018
-29.9686
-28.8916
-27.1334
-24.8275
-21.5291
-17.6292
-13.0776
-8.27075
-3.5016
1.2847
5.25318
7.45418
8.93738
9.67669
9.45665
9.25326
9.14006
8.58751
7.65146
6.46028
5.00699
3.32485
1.64724
0.280596
-0.76543
-1.95691
-2.00051
-2.21805
-2.34004
-2.34266
-2.28276
-25.3691
-25.4217
-25.9718
-26.7181
-27.5622
-28.3305
-29.0043
-29.6547
-30.1346
-30.105
-29.0794
-27.5041
-25.2941
-22.0907
-18.3978
-14.4106
-9.85992
-4.7085
0.67827
5.33829
7.79173
9.5687
10.6995
10.5335
10.0908
9.49925
8.57717
7.34294
5.96866
4.40554
2.59658
0.774174
-0.861322
-2.05717
-2.99181
-3.41548
-3.82591
-3.97066
-3.97273
-3.86584
-24.6561
-24.8561
-25.2058
-26.1517
-26.8865
-27.4989
-27.9828
-28.4496
-28.8711
-28.7688
-28.2343
-26.5339
-24.2074
-21.0336
-17.5159
-14.1024
-10.0037
-5.11523
1.40096
7.16543
9.78226
11.3894
13.311
13.039
12.2233
10.9484
9.36185
7.64004
5.80047
3.95163
1.952
-0.0628896
-2.17977
-3.40656
-4.37501
-5.00928
-5.57541
-5.76931
-5.85944
-5.80663
-23.376
-23.8989
-23.8187
-24.8982
-25.663
-25.9921
-26.1824
-26.2135
-26.2567
-25.9932
-25.6608
-23.8995
-21.5923
-18.5532
-14.911
-11.1866
-6.86915
-1.42191
4.75042
10.3436
13.4182
14.9184
16.938
16.6106
15.1951
13.1041
10.7976
8.51763
6.19686
4.03692
1.83455
-0.29185
-2.87671
-4.14693
-5.10198
-5.89821
-6.59846
-6.87992
-7.08979
-6.94746
-22.0685
-22.4013
-22.2745
-22.8992
-23.581
-23.4953
-23.2463
-23.1279
-22.9245
-22.4376
-21.7367
-19.79
-17.4424
-14.3596
-9.89894
-5.53066
-1.33065
3.50415
8.62808
13.776
16.9429
18.9869
20.4595
19.7213
18.0476
15.3654
12.307
9.36435
6.43574
3.6762
0.869019
-1.69451
-4.80966
-6.2829
-7.36788
-8.23721
-9.03964
-9.39443
-9.6642
-9.46657
-20.5016
-20.3657
-20.4818
-20.288
-20.8744
-20.5286
-20.2064
-19.7047
-19.1046
-18.1763
-17.0821
-15.8166
-13.1163
-9.70565
-6.11753
-2.13292
2.37013
7.2904
12.0955
16.4393
19.5704
21.9953
23.5592
22.6821
20.3989
16.9384
13.3454
9.84879
6.26948
2.93399
-0.196361
-2.56062
-5.58297
-7.2116
-8.76526
-9.83663
-10.9763
-11.6293
-12.2525
-12.5214
-18.4101
-18.0231
-18.1445
-17.6537
-17.6589
-17.0232
-16.3199
-15.2595
-14.3643
-13.7805
-12.6182
-11.1466
-9.14596
-6.07192
-2.62488
1.00644
5.92926
11.2411
15.8392
19.589
22.4987
24.5761
25.7838
24.8931
22.1072
18.5398
14.2981
10.3659
6.24267
2.51636
-1.06631
-3.63011
-6.06308
-8.25072
-10.093
-11.3518
-12.689
-13.3499
-13.8861
-13.9638
-16.2376
-15.9836
-15.3862
-14.8936
-14.3408
-13.1372
-12.0461
-11.1058
-10.1551
-8.8651
-7.31369
-5.75733
-3.87818
-1.07562
2.09406
5.9975
10.1493
14.8457
19.3322
22.4244
24.7321
27.0877
27.6345
26.2658
23.2727
19.508
14.9362
10.4742
5.70842
2.00822
-1.79169
-4.49106
-6.90273
-8.90595
-11.2208
-12.7844
-14.3059
-14.9223
-15.4124
-15.3942
-13.6601
-13.3891
-12.932
-11.8882
-10.6737
-9.32488
-8.31596
-6.99624
-5.53552
-3.74434
-1.77906
0.139418
1.67227
4.67974
7.56895
11.1637
15.356
19.4419
23.0094
24.7366
26.7427
28.9637
29.0526
27.83
24.0936
19.9989
14.8923
10.2675
4.96004
0.671373
-2.749
-5.65219
-7.97849
-9.80432
-12.634
-14.333
-16.035
-16.5066
-16.9641
-16.6751
-11.2542
-10.9618
-10.3616
-9.29515
-7.60214
-6.14105
-4.69741
-3.00716
-1.15067
0.94271
3.22583
5.48072
7.35332
9.92563
13.4429
16.6355
19.8584
23.7476
26.9209
27.4495
28.8641
30.4443
30.1292
28.9547
24.8653
20.4817
15.0918
10.52
5.02601
-0.568846
-3.75577
-6.77939
-9.32236
-10.7948
-14.0764
-15.9449
-17.7714
-18.1236
-18.5424
-17.933
-8.76701
-8.34794
-7.67939
-6.4794
-4.82746
-2.69201
-0.830835
0.948882
3.09436
5.45301
8.0169
10.6848
13.2481
15.4442
18.4374
21.7248
24.6573
27.7455
29.9658
30.5853
31.2911
31.9334
31.1734
29.775
25.4986
20.8146
15.2284
10.4375
4.68796
-1.43066
-5.12576
-7.9712
-10.5074
-12.2491
-15.1675
-17.2473
-19.4939
-19.5411
-20.023
-18.8598
-6.2293
-5.92797
-5.25964
-4.15735
-2.43261
-0.387385
2.35988
4.64755
6.9641
9.3899
12.0131
14.8207
17.7049
20.5359
23.2042
25.6124
27.8752
30.6001
32.0613
32.5492
33.2938
33.3366
31.9067
30.0044
25.7023
20.8593
14.9854
10.3201
4.15571
-1.91546
-6.02585
-9.14698
-12.0719
-13.5272
-16.7075
-18.5136
-20.8258
-21.1256
-21.3948
-19.6009
-3.64767
-3.61091
-3.16179
-1.71223
-0.0212356
2.08953
5.08027
7.72194
10.4335
12.6443
15.1931
18.0184
20.8273
23.6812
26.415
28.797
30.8321
32.7058
34.0228
34.5935
34.3228
34.6108
32.5305
30.111
25.619
20.7833
14.8393
10.1711
3.69792
-2.47153
-6.60245
-10.2147
-13.2058
-14.3842
-18.3391
-18.6465
-22.4555
-21.7374
-22.55
-19.6361
-1.67332
-1.71819
-1.16155
-0.158953
1.81844
4.06981
6.94468
10.1848
12.8786
15.037
17.642
20.4358
23.1551
25.8872
28.3537
30.6794
32.7102
34.2977
35.3896
36.0933
35.319
35.404
32.7256
29.5586
25.0476
20.5759
14.8124
9.96319
3.18919
-3.09811
-7.56925
-10.9458
-14.557
-16.304
-19.2427
-19.7864
-22.1669
-23.1739
-23.0321
-19.1768
-1.16351
0.308558
0.872999
2.12795
3.51332
5.90027
9.39377
11.7799
14.5135
17.1399
19.7994
22.5097
25.0424
27.5969
29.9332
32.0993
33.8583
35.464
36.3701
37.0286
35.7698
35.4759
32.8535
29.5925
25.1739
20.6639
15.0049
9.98855
2.79259
-3.49549
-8.25329
-11.2036
-14.8973
-16.954
-19.961
-20.6213
-22.6022
-21.7532
-22.2355
-15.2201
0.180246
0.654934
1.94718
3.07364
4.25631
7.74278
10.1544
12.9669
15.8279
18.6034
21.2996
23.9612
26.3746
28.688
30.8228
32.9066
34.6792
36.143
37.0431
37.5906
36.1067
35.4036
32.9252
29.5951
25.3299
20.7955
15.1536
9.97558
2.50926
-3.81165
-8.92346
-12.0095
-15.5345
-17.5477
-20.706
-21.0953
-23.6184
-21.24
-20.2575
-10.6535
-1.47022
1.98012
2.93996
4.48087
5.85902
8.37048
11.0959
13.683
16.4622
19.3654
22.0998
24.739
27.0857
29.2895
31.2584
33.2277
34.9104
36.3588
37.2175
37.83
36.435
35.5087
33.1454
29.8456
25.698
21.0856
15.3054
9.81884
2.22184
-4.08713
-9.39912
-12.5467
-15.9707
-17.6006
-20.7594
-20.6411
-22.188
-17.383
-12.8554
2.02509
-0.0275508
0.0804406
0.121955
0.354587
0.59897
0.890998
1.2732
1.69749
2.24448
3.11768
3.97897
4.99
5.98537
7.05711
8.23347
9.34101
10.707
11.9831
13.33
14.7147
16.3609
17.3412
18.3047
19.1464
20.131
20.9257
21.7684
22.4361
23.0806
23.555
23.9835
24.4552
24.8553
25.1889
25.3752
25.6896
25.8618
25.9884
26.051
26.1001
-0.207242
-0.165664
-0.0524839
0.150601
0.383157
0.682778
1.05013
1.5196
2.12091
3.00027
3.66548
4.82544
5.80779
6.89056
8.0832
9.25602
10.6755
12.0221
13.4222
14.7335
16.3018
17.3154
18.3367
19.1633
20.1279
20.9036
21.7312
22.3914
23.0371
23.5534
24.0013
24.4167
24.8771
25.1484
25.4112
25.6548
25.8208
25.9552
26.0212
26.0664
-0.63754
-0.590899
-0.441609
-0.273548
-0.046264
0.22228
0.572537
0.989857
1.7949
2.58346
3.39931
4.41139
5.42498
6.60634
7.85122
9.10317
10.5097
11.8452
13.2368
14.5133
16.0035
16.9578
17.9617
18.7355
19.7004
20.4533
21.2739
21.9424
22.6092
23.1736
23.697
24.1817
24.6147
25.0032
25.3419
25.5267
25.6831
25.8243
25.8994
25.9643
-1.30484
-1.20021
-1.03197
-0.94563
-0.706273
-0.545987
-0.0402407
0.468872
1.17236
1.95316
2.86373
3.90846
5.00629
6.17941
7.46973
8.73845
10.1431
11.4961
12.9239
14.1828
15.625
16.5502
17.5439
18.3348
19.2903
20.0565
20.8959
21.598
22.3127
22.9185
23.4757
23.9813
24.4441
24.8752
25.2077
25.436
25.6242
25.6678
25.7428
25.8009
-2.14171
-2.02182
-1.96229
-1.79937
-1.56399
-1.37839
-0.955449
-0.425612
0.334172
1.16454
2.11548
3.1431
4.25957
5.49273
6.81469
8.12207
9.56222
10.9848
12.4345
13.7623
15.2638
16.1706
17.2013
17.9877
18.9643
19.7118
20.5899
21.3178
22.0484
22.6869
23.2752
23.7886
24.2008
24.6503
25.0116
25.2867
25.4128
25.4727
25.5197
25.5726
-3.36425
-3.19772
-3.07082
-2.78804
-2.70019
-2.43776
-2.0486
-1.44645
-0.619533
0.157353
1.0555
2.11174
3.32189
4.61275
5.99535
7.37442
8.85568
10.4354
12.059
13.4834
15.0089
15.9647
17.0043
17.825
18.7979
19.5914
20.4233
21.1401
21.8321
22.4626
23.0579
23.6453
24.0946
24.5085
24.8466
25.1233
25.2008
25.2266
25.24
25.2697
-4.88376
-4.75477
-4.53171
-4.18528
-4.03587
-3.80476
-3.33799
-2.83293
-2.1163
-1.30416
-0.275186
0.871856
2.16112
3.53764
5.03603
6.59008
8.21991
9.84964
11.5006
13.0895
14.7529
15.7883
16.8995
17.7531
18.7217
19.5109
20.3168
20.9963
21.6681
22.2546
22.8388
23.3527
23.8313
24.2788
24.6676
24.8665
24.9319
24.8971
24.8943
24.8813
-6.12103
-6.05603
-5.94534
-5.77365
-5.58793
-5.44409
-4.99485
-4.40511
-3.60855
-2.7313
-1.66383
-0.439525
0.893868
2.39032
4.00403
5.65088
7.39954
9.10475
10.8759
12.6125
14.4675
15.6091
16.8115
17.7044
18.6689
19.4578
20.2428
20.9204
21.5556
22.0949
22.6083
23.1173
23.4962
23.9663
24.2779
24.5155
24.5454
24.4889
24.4574
24.4321
-7.38114
-7.34418
-7.26235
-7.17975
-6.88734
-6.84738
-6.38871
-5.9192
-5.14005
-4.25496
-3.16708
-1.91038
-0.509169
1.0681
2.77768
4.55285
6.41693
8.25803
10.2102
12.069
14.1052
15.4745
16.7203
17.6895
18.6248
19.4157
20.1788
20.8495
21.4124
21.9402
22.3974
22.7825
23.2096
23.5687
23.9135
24.0624
24.112
24.0098
23.9325
23.8994
-8.67778
-8.66015
-8.60022
-8.55925
-8.35894
-8.36646
-7.94319
-7.46737
-6.75855
-5.85161
-4.72534
-3.44985
-1.99365
-0.342999
1.47706
3.38103
5.3832
7.38041
9.48357
11.5077
13.7139
15.3547
16.6346
17.6969
18.6103
19.4152
20.1528
20.7472
21.3583
21.7175
22.135
22.5235
22.8125
23.1273
23.4391
23.591
23.5617
23.4453
23.3326
23.2875
-10.0924
-10.0713
-10.0601
-9.99572
-9.87515
-9.94069
-9.54795
-9.0628
-8.41517
-7.479
-6.38412
-5.05507
-3.53969
-1.82079
0.12482
2.20406
4.37167
6.56027
8.8461
11.0919
13.4303
15.2449
16.5803
17.7334
18.621
19.479
20.133
20.7441
21.0824
21.5597
21.8891
22.0958
22.4121
22.5762
22.9135
23.0739
22.9309
22.7822
22.6193
22.558
-11.4757
-11.4493
-11.4643
-11.4495
-11.5256
-11.4884
-11.1947
-10.7792
-10.3979
-9.27324
-8.09391
-6.71621
-5.1412
-3.33322
-1.28272
1.0098
3.37886
5.78268
8.30313
10.7446
13.1881
15.0863
16.5495
17.7822
18.7186
19.5528
20.153
20.5844
21.0892
21.2531
21.5289
21.8017
21.9078
22.1013
22.1208
22.3321
22.3491
22.0126
21.8159
21.7369
-12.952
-12.9373
-12.9826
-13.1048
-13.1591
-12.9967
-13.0031
-12.5495
-11.9756
-11.3609
-9.88008
-8.41102
-6.75745
-4.85163
-2.70955
-0.206591
2.40204
5.05235
7.75744
10.3564
12.9238
14.8982
16.5177
17.8848
18.9045
19.7281
20.2625
20.6834
20.8644
21.2722
21.3444
21.3366
21.3502
21.3155
21.3942
21.4012
21.4037
21.2699
20.8559
20.7667
-14.4227
-14.4241
-14.5328
-14.7315
-14.801
-14.708
-14.451
-14.3738
-13.8013
-13.1903
-11.7566
-10.0864
-8.37813
-6.35547
-4.08812
-1.49085
1.30103
4.1653
7.02427
9.78725
12.5346
14.8245
16.6891
18.059
18.9479
19.7102
20.3119
20.7507
20.9836
20.9707
20.8751
20.8014
20.681
20.5859
20.446
20.4826
20.3335
20.2638
19.7698
19.6173
-15.9948
-16.0369
-16.1896
-16.3917
-16.4823
-16.4432
-16.194
-15.9103
-15.5634
-14.945
-13.6222
-11.7146
-9.84127
-7.78352
-5.51147
-2.89816
0.00975137
2.99142
5.9377
8.91543
12.1372
14.9255
17.0442
18.4548
19.5324
20.3243
20.7061
20.8802
20.7815
20.5898
20.3428
20.0475
19.793
19.5812
19.4151
19.2055
19.1029
18.7421
18.7391
18.3246
-17.4296
-17.4811
-17.6343
-17.8412
-17.9803
-18.0472
-17.9268
-17.5962
-17.088
-16.3474
-15.3439
-13.272
-11.3976
-9.32657
-6.9927
-4.44944
-1.6342
1.27402
4.64758
8.09918
11.93
15.2991
17.2422
18.7521
19.8049
20.4679
20.7106
20.6766
20.4232
20.0365
19.5598
19.114
18.707
18.3753
18.1237
17.8977
17.7299
17.4826
17.3046
17.0208
-19.1009
-19.1304
-19.2755
-19.4811
-19.5795
-19.7932
-19.7631
-19.5015
-18.8564
-17.8906
-16.7712
-14.9838
-13.0545
-10.798
-8.32007
-5.76581
-3.19434
-0.00788361
4.10967
8.19196
11.8636
14.9337
17.1281
18.7971
19.9126
20.515
20.6031
20.3672
19.8393
19.2251
18.5493
17.9079
17.3357
16.8841
16.5427
16.305
16.1332
15.896
15.7447
15.6948
-20.139
-20.2414
-20.4079
-20.6739
-20.8366
-21.2088
-21.3062
-21.1767
-20.6029
-19.5493
-18.1921
-16.4961
-14.6662
-12.2516
-9.63768
-7.04329
-4.26638
-0.721874
4.21491
7.79759
11.0394
14.13
16.4114
18.3437
19.6207
20.1869
20.1276
19.698
18.9443
18.1276
17.2305
16.4503
15.7666
15.2049
14.7893
14.5099
14.3271
14.1216
13.9047
13.6596
-21.7644
-21.7611
-21.9277
-22.0364
-22.3419
-22.8164
-23.1385
-23.153
-22.6334
-21.6195
-20.1274
-17.9915
-16.4171
-13.9352
-11.1913
-8.20753
-4.97989
-0.819511
3.75843
7.09407
10.2697
12.8796
15.054
16.873
18.1831
18.7642
18.6671
18.2196
17.3956
16.4139
15.4402
14.5689
13.7636
13.1404
12.6635
12.3646
12.1466
11.9489
11.749
11.5376
-22.0622
-22.1228
-22.3732
-22.5179
-23.1102
-23.9269
-24.779
-25.0836
-24.7177
-23.8276
-22.4415
-20.0451
-18.4089
-15.6552
-12.3954
-8.80799
-5.39122
-1.22938
3.17258
6.4502
9.19903
11.6103
13.5361
14.763
15.5744
15.7941
15.478
15.0379
14.2945
13.5709
12.8349
12.1343
11.4341
10.865
10.4029
10.1142
9.9202
9.70681
9.5448
9.3017
-23.8494
-23.7499
-23.9809
-24.0776
-24.7914
-25.7806
-26.9006
-27.3865
-27.1492
-26.3465
-25.1056
-22.4197
-20.5101
-17.3274
-13.5085
-9.43144
-5.40581
-1.34929
2.71721
5.96576
8.17697
10.4151
11.8876
12.2961
12.8276
13.0934
12.5807
11.4666
10.2211
9.39747
8.35939
7.8251
7.76351
7.67328
7.45607
7.37088
7.28823
7.19031
7.08006
6.82074
-24.71
-24.6607
-24.9479
-25.2592
-26.0064
-27.1316
-28.3239
-29.042
-29.0887
-28.3843
-27.394
-24.6405
-22.5551
-19.1077
-14.7955
-10.1603
-5.42888
-1.31836
2.54479
6.01447
7.95565
9.60279
10.8134
10.8327
10.752
10.8447
10.8017
9.9112
8.57041
7.15002
5.87409
4.44698
3.20591
2.56184
2.98326
3.65279
3.96469
4.14403
4.23346
4.59113
-25.7581
-25.6425
-25.9797
-26.4636
-27.207
-28.3416
-29.4415
-30.3107
-30.5622
-30.1833
-29.37
-26.7895
-24.5809
-21.0431
-16.5031
-11.4632
-6.32749
-1.83613
2.26629
6.20324
7.87687
9.1875
9.91872
9.3002
9.0903
9.28048
9.12125
8.40201
7.27349
5.80628
4.40486
2.87105
1.30164
-0.0447613
-0.856322
-0.409434
-0.142657
0.0598828
0.132105
0.0347015
-26.0196
-26.0054
-26.3744
-27.0217
-27.8317
-28.9525
-29.9123
-30.7747
-31.2634
-31.2039
-30.5008
-28.6473
-26.3862
-23.0124
-18.5104
-13.5391
-8.35574
-3.06954
1.78843
6.14094
7.91681
9.26937
9.6531
8.66588
8.21313
8.40011
8.09983
7.33603
6.17923
4.70876
2.98569
1.37155
-0.220522
-1.52484
-2.50401
-2.54124
-2.60818
-2.60758
-2.56048
-2.54943
-25.6997
-25.832
-26.3328
-27.1388
-28.097
-29.0619
-29.8599
-30.6594
-31.2811
-31.4603
-30.9393
-29.6198
-27.38
-24.231
-19.868
-15.7032
-11.1186
-6.13832
0.0278424
5.731
8.11054
9.99203
10.8476
10.1367
9.39469
8.81841
8.04936
6.9054
5.62909
4.07418
2.22742
0.193654
-1.1576
-2.47811
-3.472
-3.91216
-4.27758
-4.35131
-4.25922
-4.09639
-25.0784
-25.1928
-25.5648
-26.5074
-27.5285
-28.3561
-28.9836
-29.6049
-30.1773
-30.4206
-30.1259
-29.1052
-26.4277
-23.578
-19.4055
-16.0995
-12.219
-7.77465
-0.97473
6.48778
9.4171
11.7858
13.4302
13.0838
12.0619
10.5529
8.91249
7.2164
5.47915
3.73739
1.66985
-0.728325
-2.24589
-3.60734
-4.70532
-5.39307
-5.94584
-6.0593
-6.07694
-5.8612
-24.0614
-24.179
-24.526
-25.4221
-26.3717
-26.9234
-27.2684
-27.5788
-27.9006
-28.0166
-27.7166
-26.4775
-24.1714
-21.0843
-17.0618
-12.982
-8.60337
-3.64289
3.14133
10.2975
13.4705
15.7705
17.1622
16.9494
15.5016
13.1015
10.599
8.25485
6.00587
3.92759
1.61365
-1.00901
-2.99812
-4.11429
-5.44543
-6.26014
-6.95854
-7.22436
-7.38871
-7.17953
-22.5208
-22.7152
-22.9611
-23.6788
-24.4617
-24.5722
-24.5526
-24.4939
-24.4549
-24.264
-23.7214
-22.3454
-20.0766
-16.5821
-12.0626
-7.0253
-2.47836
2.58236
8.3822
14.2051
16.8439
19.3521
21.0217
20.2776
18.7144
15.8203
12.4623
9.32213
6.30628
3.63692
0.798121
-2.26259
-4.77969
-6.02227
-7.67391
-8.58858
-9.39115
-9.77548
-10.1223
-9.84614
-20.5629
-20.9136
-21.0103
-21.3713
-21.8728
-21.602
-21.2136
-20.708
-20.1919
-19.562
-18.6823
-17.1725
-14.5687
-11.2293
-7.35441
-2.95328
2.09174
6.95977
12.1631
17.0831
19.8803
22.3738
24.1745
23.5192
21.0521
17.573
13.7332
10.0288
6.35675
3.10854
-0.0678723
-2.69836
-5.79524
-7.2183
-9.14116
-10.2239
-11.3406
-12.0877
-12.4544
-12.6991
-18.5128
-18.7326
-18.5628
-18.5965
-18.593
-17.9133
-17.0759
-16.1518
-15.2177
-14.2322
-12.9828
-11.2763
-8.73772
-5.51909
-2.18334
0.995145
6.0984
11.515
15.9525
20.4159
23.2712
25.5502
26.7914
25.727
23.0941
19.0882
14.687
10.5546
6.34421
2.64799
-0.989679
-3.69323
-6.35557
-8.42751
-10.5463
-11.8522
-13.2022
-13.9325
-14.2344
-14.4248
-16.4744
-16.3932
-15.9601
-15.6765
-15.0403
-13.8101
-12.5727
-11.5113
-10.2707
-8.82438
-7.2095
-5.39727
-2.93242
0.313455
3.71999
7.15892
11.0343
15.641
19.9656
23.4407
26.1246
28.153
28.5459
27.176
24.1441
20.0531
15.2968
10.685
5.92195
2.08608
-1.82906
-4.5922
-7.25851
-9.27199
-11.6646
-13.3424
-14.8919
-15.5749
-15.8294
-15.9205
-13.9008
-13.5286
-13.1761
-12.4662
-11.2096
-9.58088
-8.19744
-6.92774
-5.42883
-3.58514
-1.55116
0.520208
2.87912
6.05301
9.12976
12.2839
16.026
20.1018
24.098
26.367
28.516
30.261
30.0759
28.4645
25.0292
20.6812
15.4685
10.6702
5.28233
0.795236
-2.87278
-5.76262
-8.61145
-10.1356
-13.2917
-14.7935
-16.7962
-17.3147
-17.665
-17.4858
-11.4406
-11.1606
-10.6154
-9.50566
-7.79303
-5.9219
-4.38688
-2.8657
-1.07107
1.06866
3.50684
6.00396
8.63231
11.0167
14.0726
17.2145
20.4715
23.9283
27.2843
28.68
30.3132
31.8944
31.5037
29.5465
25.7507
21.1952
15.7158
10.9418
5.11043
-0.372468
-4.04882
-7.02777
-9.99017
-12.0294
-14.1666
-16.5061
-18.5248
-19.1309
-19.6151
-19.0737
-9.01346
-8.52554
-7.77113
-6.67776
-4.86701
-2.69072
-0.878002
0.912986
3.10634
5.47519
8.51014
11.6802
14.5114
16.6505
19.1677
22.3121
25.3534
28.4827
30.861
31.9561
32.6437
33.7331
32.6957
30.3314
26.2187
21.5018
15.8195
10.9058
4.71086
-1.22828
-5.48693
-8.33854
-11.3873
-13.4892
-16.2056
-17.328
-20.3808
-20.6027
-21.6124
-20.4723
-6.47709
-6.00399
-5.28679
-4.1238
-2.5519
-0.259075
2.13446
4.23127
6.69115
9.85486
12.7822
15.7394
18.7638
21.6763
24.185
26.4177
29.0873
31.5605
33.3802
34.2294
34.3057
34.8384
33.2759
30.5814
26.2496
21.4869
15.6707
10.6769
4.22061
-1.84157
-6.52498
-9.65752
-12.8905
-14.8912
-17.8179
-19.4068
-21.3626
-22.4303
-23.2886
-21.6797
-4.25453
-3.70995
-3.04969
-1.58139
0.142125
2.29286
4.99671
7.38782
10.4221
13.1405
15.758
18.5897
21.3575
24.1994
27.2098
29.5642
31.6467
33.6443
35.1309
35.9472
35.5561
35.5349
33.5207
30.6302
26.2102
21.371
15.5465
10.4201
3.75335
-2.47493
-7.14718
-10.7796
-14.0394
-16.0188
-19.1523
-20.2109
-23.0892
-22.8597
-24.494
-21.9776
-1.48176
-1.59895
-0.996852
0.172254
2.1385
4.30455
7.6395
9.73296
12.8798
15.5443
18.2707
21.1002
23.7355
26.4968
29.1627
31.5282
33.2436
35.1371
36.4147
37.1646
36.2878
36.0415
33.4333
30.3874
25.7227
21.0949
15.3991
10.1857
3.11002
-3.06328
-8.00169
-11.5292
-15.2656
-17.1301
-20.3191
-21.3162
-23.9512
-23.8967
-25.5223
-20.9823
-0.703124
0.576453
1.1053
2.46986
4.17102
6.44963
9.82886
11.9846
14.7499
17.5635
20.361
23.1519
25.5407
28.2343
30.7215
33.0373
34.8689
36.3111
37.2903
37.9452
36.777
36.0853
33.5206
30.4063
25.7773
21.1104
15.3851
10.0527
2.5658
-3.74786
-8.88525
-11.9745
-15.6299
-17.7391
-20.8371
-21.5833
-23.9646
-22.9133
-23.565
-16.0663
0.701593
1.02679
2.25608
3.31182
5.28364
7.49755
10.6972
13.446
16.279
19.0039
21.7099
24.4892
26.9673
29.2623
31.5102
33.7941
35.6779
37.3137
38.1081
38.3854
36.8526
35.9886
33.5136
30.1545
25.8372
21.1918
15.4416
10.0092
2.36011
-4.02597
-9.58616
-12.8486
-16.5444
-18.449
-21.6264
-22.0583
-24.1213
-21.866
-20.1403
-9.0949
-1.02479
2.41686
3.37028
4.86484
6.38479
8.6094
11.4747
14.3086
17.1594
20.0576
22.7933
25.4025
27.7859
30.0639
32.1469
34.2519
35.8655
37.5235
38.3117
38.645
37.2828
36.2824
33.8021
30.359
26.0839
21.48
15.5954
9.88855
2.12352
-4.34477
-9.94366
-13.2824
-16.697
-18.6054
-21.534
-21.7027
-22.4313
-17.521
-10.6391
7.01684
0.0611926
0.089936
0.195028
0.425095
0.696656
0.989546
1.36639
1.73395
2.39685
3.24595
4.095
5.04017
6.06222
7.11052
8.31237
9.32601
10.8287
12.1749
13.5955
14.87
16.5286
17.3955
18.4894
19.2985
20.2875
21.0803
21.9364
22.6285
23.2756
23.795
24.1499
24.6589
24.9429
25.3056
25.5551
25.8165
25.9467
26.1194
26.1761
26.224
-0.170477
-0.134119
-0.00612539
0.202813
0.467617
0.751007
1.14855
1.62948
2.20665
3.14503
3.94039
4.89017
5.88564
6.97818
8.19355
9.40469
10.8376
12.1817
13.6142
14.8927
16.4247
17.3737
18.3739
19.1801
20.1497
20.9331
21.7715
22.4369
23.0944
23.5894
24.068
24.5069
24.8749
25.2672
25.5233
25.7835
25.9303
26.0777
26.145
26.2204
-0.586249
-0.538247
-0.378734
-0.225055
0.018332
0.189751
0.732397
1.21127
1.88513
2.69056
3.5534
4.51882
5.55668
6.69767
7.92726
9.20209
10.6192
11.9597
13.3902
14.6233
16.0669
16.9439
17.918
18.6911
19.6333
20.4005
21.221
21.9344
22.5845
23.2049
23.6941
24.2201
24.6617
25.1063
25.47
25.6489
25.8079
25.946
26.0118
26.0659
-1.18828
-1.16336
-0.999074
-0.927663
-0.629199
-0.379266
0.059191
0.580908
1.28963
2.09719
2.99365
4.01
5.10235
6.24708
7.49521
8.79278
10.2102
11.572
13.0127
14.2354
15.6128
16.4793
17.4393
18.2298
19.1922
19.9777
20.823
21.4888
22.2486
22.8775
23.5062
24.0368
24.4963
24.9802
25.3221
25.5807
25.7303
25.8034
25.8485
25.8932
-1.9738
-1.84825
-1.85653
-1.73205
-1.50035
-1.23916
-0.829228
-0.304192
0.456033
1.28956
2.2223
3.21074
4.31194
5.51629
6.80098
8.13594
9.61002
11.027
12.5253
13.7558
15.1427
15.9893
17.0243
17.843
18.8581
19.7186
20.5265
21.2763
22.0262
22.691
23.3034
23.8602
24.3411
24.8331
25.1825
25.4473
25.5505
25.6071
25.6401
25.6679
-3.06138
-2.97325
-2.91865
-2.76292
-2.59399
-2.31527
-1.91381
-1.34336
-0.553619
0.213808
1.09279
2.14095
3.35526
4.62713
5.98305
7.42013
8.9306
10.4614
12.0702
13.4446
14.971
15.8901
16.9291
17.7651
18.7448
19.5586
20.3689
21.1148
21.8249
22.4974
23.0451
23.7018
24.2085
24.6602
24.9854
25.2527
25.335
25.3689
25.3768
25.372
-4.55627
-4.4606
-4.29345
-4.10292
-3.89876
-3.65565
-3.22695
-2.78585
-2.09566
-1.27076
-0.245373
0.899545
2.19376
3.55368
5.01869
6.57739
8.24294
9.91435
11.5586
13.1029
14.7099
15.7181
16.8384
17.711
18.6756
19.4956
20.2582
21.0102
21.7424
22.2672
22.9284
23.4387
23.9341
24.4152
24.9669
25.0614
25.1073
25.0552
25.0394
25.0131
-5.86046
-5.83023
-5.77172
-5.6513
-5.49201
-5.29137
-4.95151
-4.38161
-3.59091
-2.71324
-1.65548
-0.446144
0.938518
2.47991
4.0848
5.73293