/*--------------------------------*- C++ -*----------------------------------*\
| =========                 |                                                 |
| \\      /  F ield         | OpenFOAM: The Open Source CFD Toolbox           |
|  \\    /   O peration     | Version:  v1806                                 |
|   \\  /    A nd           | Web:      www.OpenFOAM.com                      |
|    \\/     M anipulation  |                                                 |
\*---------------------------------------------------------------------------*/
FoamFile
{
    version     2.0;
    format      ascii;
    class       vectorField;
    location    "0.069";
    object      currentcloudofpoints;
}
// * * * * * * * * * * * * * * * * * * * * * * * * * * * * * * * * * * * * * //


2409
(
(0.911905 1.38897 0.9992)
(0.693317 1.01768 1.01166)
(1.3098 1.33241 0.999249)
(0.962167 1.17296 0.837485)
(0.95619 1.17009 1.15648)
(1.11074 1.10611 1.00028)
(0.858274 1.57356 1.00134)
(0.598978 0.823205 0.995631)
(1.48833 1.47421 0.999557)
(1.0788 1.11246 0.649709)
(1.05957 1.10373 1.33618)
(1.28635 1.32066 1.07581)
(1.22609 1.28709 1.12862)
(1.14658 1.22533 1.15268)
(1.06157 1.17272 1.1573)
(1.29991 1.32893 1.0397)
(1.2579 1.30331 1.10404)
(1.18346 1.25968 1.14313)
(1.10561 1.189 1.15386)
(1.0084 1.17875 1.15476)
(0.73085 1.04064 1.15408)
(0.786436 1.0694 1.20861)
(0.832276 1.09133 1.17577)
(0.87614 1.11281 1.14388)
(0.708313 1.02651 1.0917)
(0.756461 1.05992 1.1878)
(0.814417 1.08149 1.1954)
(0.848087 1.09724 1.14558)
(0.910858 1.13937 1.1464)
(1.28158 1.32203 0.920767)
(1.22086 1.28771 0.869074)
(1.1403 1.22938 0.850059)
(1.05894 1.16922 0.841624)
(1.29771 1.32794 0.957706)
(1.25224 1.30562 0.893329)
(1.17914 1.26034 0.857406)
(1.10004 1.19391 0.847827)
(1.00953 1.17078 0.839466)
(0.876233 1.11217 0.856438)
(0.831659 1.09013 0.833789)
(0.789991 1.07041 0.810116)
(0.724687 1.02496 0.869205)
(0.913139 1.14442 0.852266)
(0.847921 1.09425 0.856929)
(0.814574 1.08322 0.819249)
(0.755499 1.0507 0.836195)
(0.701489 1.02278 0.931549)
(0.92942 1.2517 1.15907)
(0.946253 1.34422 1.21158)
(0.914952 1.38667 1.15721)
(0.896719 1.39347 1.0947)
(0.93036 1.20629 1.13964)
(0.943886 1.2984 1.19676)
(0.93101 1.37233 1.18343)
(0.90454 1.39145 1.12576)
(0.906485 1.38802 1.04669)
(0.897743 1.39505 0.898762)
(0.908504 1.38973 0.826739)
(0.951161 1.35187 0.775279)
(0.928548 1.25151 0.839354)
(0.910022 1.38962 0.950798)
(0.899917 1.39362 0.861743)
(0.930024 1.37895 0.800823)
(0.949961 1.30212 0.791813)
(0.931685 1.20567 0.859088)
(0.681965 1.0763 1.02079)
(0.684836 1.12378 1.02158)
(0.716037 1.17712 1.0074)
(0.778852 1.27955 0.999082)
(0.688274 1.05425 1.02219)
(0.684399 1.10578 1.02044)
(0.702922 1.1518 1.01608)
(0.743216 1.22149 1.00038)
(0.842256 1.34166 1.00011)
(1.02824 1.43455 1.00759)
(1.1218 1.42933 1.00742)
(1.18817 1.39773 0.999503)
(1.25657 1.36706 0.999914)
(0.972386 1.41967 1.00119)
(1.08075 1.4324 1.01063)
(1.15486 1.4145 1.00165)
(1.21533 1.37451 1.00014)
(1.28987 1.3582 0.999325)
(0.594452 0.858077 1.19362)
(0.678341 0.894275 1.29536)
(0.76001 0.938035 1.3842)
(0.829302 0.959961 1.42267)
(0.873166 0.977977 1.39412)
(0.931904 1.01756 1.353)
(1.01914 1.05331 1.32275)
(0.591554 0.837747 1.11163)
(0.640395 0.860537 1.24448)
(0.717545 0.921737 1.34549)
(0.798868 0.950022 1.40748)
(0.854235 0.967347 1.41061)
(0.895911 0.995641 1.37244)
(0.983021 1.03556 1.32099)
(1.04684 1.07558 1.32335)
(1.1313 1.1755 1.37741)
(1.20913 1.20052 1.35523)
(1.26701 1.24426 1.31803)
(1.32643 1.29022 1.28707)
(1.39301 1.3369 1.23964)
(1.44741 1.40279 1.1749)
(1.48031 1.45665 1.09349)
(1.08347 1.14272 1.36211)
(1.17562 1.18725 1.36832)
(1.23742 1.22086 1.33307)
(1.29396 1.26798 1.30002)
(1.35741 1.31075 1.26437)
(1.42061 1.36713 1.20745)
(1.46534 1.42992 1.13604)
(1.48541 1.46677 1.04712)
(0.604456 0.851126 0.803153)
(0.677432 0.899383 0.694063)
(0.762412 0.925515 0.611205)
(0.824093 0.959491 0.579025)
(0.877923 0.983296 0.597861)
(0.932211 1.01773 0.644656)
(1.02255 1.0533 0.668185)
(0.600048 0.835155 0.894519)
(0.62287 0.890951 0.737434)
(0.728487 0.905742 0.647708)
(0.795738 0.944066 0.592704)
(0.854025 0.970297 0.586577)
(0.900118 0.999029 0.622361)
(0.982352 1.034 0.670199)
(1.05678 1.07977 0.663254)
(1.47919 1.45643 0.906825)
(1.44806 1.40423 0.824929)
(1.39423 1.33809 0.760742)
(1.32845 1.28902 0.712338)
(1.26736 1.24222 0.68101)
(1.20976 1.20101 0.647497)
(1.14362 1.16955 0.628584)
(1.48421 1.4663 0.952388)
(1.46511 1.4306 0.864385)
(1.42164 1.36902 0.792318)
(1.3593 1.31047 0.736197)
(1.2954 1.26608 0.698006)
(1.23679 1.21992 0.668217)
(1.17796 1.18609 0.636902)
(1.10831 1.14494 0.635962)
(0.861749 1.57877 1.18385)
(0.852457 1.55106 1.27642)
(0.866618 1.48368 1.33613)
(0.921384 1.37917 1.41073)
(0.956224 1.29071 1.42519)
(0.981361 1.2171 1.42171)
(1.01178 1.15586 1.36066)
(0.864139 1.58897 1.10981)
(0.85838 1.56475 1.23934)
(0.856568 1.51895 1.30814)
(0.89574 1.43483 1.37553)
(0.942946 1.32731 1.42634)
(0.965288 1.25664 1.41332)
(0.988823 1.18521 1.4038)
(1.0386 1.12868 1.33122)
(0.856152 1.5771 0.818539)
(0.848879 1.55064 0.726628)
(0.872417 1.48095 0.657541)
(0.923248 1.37782 0.591604)
(0.962477 1.29403 0.567549)
(0.975014 1.23237 0.582573)
(1.00672 1.16389 0.627332)
(0.856651 1.57352 0.891291)
(0.851632 1.56663 0.76664)
(0.858314 1.51663 0.68826)
(0.899515 1.43293 0.628078)
(0.947882 1.3279 0.567661)
(0.968121 1.26583 0.582198)
(0.977729 1.20172 0.594367)
(1.04295 1.13492 0.6463)
(0.575115 0.913473 0.999575)
(0.565965 0.992462 1.0069)
(0.568701 1.08572 0.996444)
(0.577372 1.18247 0.99578)
(0.605611 1.27599 1.00254)
(0.657438 1.35546 0.997696)
(0.736231 1.45373 0.999743)
(0.585028 0.872103 0.996193)
(0.569844 0.953069 1.00431)
(0.565562 1.03785 1.00445)
(0.573278 1.13218 0.990723)
(0.588553 1.23089 1.00289)
(0.629011 1.31646 0.998532)
(0.693721 1.39607 0.998489)
(0.791806 1.51828 1.00062)
(0.971938 1.61568 0.999879)
(1.05076 1.62547 1.00088)
(1.12446 1.63052 1.00332)
(1.21024 1.62045 1.00197)
(1.28797 1.60694 1.0001)
(1.35456 1.58133 0.999209)
(1.42288 1.53434 0.99995)
(0.920689 1.60333 1.00144)
(1.01432 1.61932 1.00006)
(1.08838 1.62776 1.00233)
(1.16902 1.62435 1.00293)
(1.25368 1.6113 1.00102)
(1.32327 1.59121 0.99931)
(1.3883 1.55528 0.999611)
(1.45802 1.50456 0.999759)
(1.031 1.10983 0.776404)
(1.07957 1.09744 0.696449)
(0.9961 1.15474 0.807933)
(1.02947 1.1123 1.21457)
(0.990816 1.15528 1.17881)
(1.06626 1.09455 1.29022)
(0.681856 0.84923 0.995167)
(0.691083 0.947458 0.992921)
(0.61264 0.841707 0.993756)
(1.39821 1.37932 0.999)
(1.35405 1.3565 0.999458)
(1.44844 1.41193 0.998936)
(1.07403 1.55581 1.29677)
(1.10592 1.62962 1.20285)
(1.11003 1.31189 1.37943)
(1.28863 1.57683 1.18583)
(1.00712 1.63849 1.13593)
(1.14426 1.24507 1.39203)
(1.41635 1.50784 1.14837)
(1.34453 1.51969 1.24254)
(1.01484 1.62537 1.22892)
(1.18373 1.58845 1.24958)
(1.19428 1.61453 1.1505)
(0.969742 1.52354 1.33425)
(1.23247 1.50613 1.29945)
(1.35216 1.56347 1.14668)
(1.13458 1.48644 1.33299)
(1.38086 1.55991 1.07129)
(1.20901 1.29484 1.39197)
(1.32203 1.58739 1.08547)
(0.937836 1.61527 1.20891)
(1.04628 1.22335 1.36801)
(1.02321 1.30728 1.39414)
(1.18085 1.4029 1.36317)
(1.38412 1.42246 1.25142)
(1.10339 1.63575 1.11401)
(0.925937 1.58269 1.28291)
(1.09494 1.3906 1.3715)
(1.3343 1.36307 1.30143)
(1.28894 1.43691 1.32425)
(0.942481 1.62705 1.12577)
(1.07182 1.18493 1.36992)
(1.44139 1.51603 1.06302)
(1.04741 1.45816 1.35668)
(0.988554 1.38751 1.40201)
(1.275 1.34073 1.34735)
(1.16226 1.6246 1.07036)
(1.26665 1.60187 1.09279)
(1.13148 1.21228 1.38868)
(1.17999 1.22873 1.38503)
(1.0549 1.14138 1.3534)
(1.09123 1.18355 1.3803)
(1.10763 1.21845 1.38027)
(1.21524 1.24783 1.37096)
(1.24472 1.26866 1.3481)
(1.18214 1.26935 1.39353)
(1.27272 1.29132 1.32412)
(1.30098 1.3145 1.30793)
(1.24222 1.3176 1.36815)
(1.32861 1.32543 1.28907)
(1.36102 1.34603 1.26335)
(1.3037 1.35261 1.32512)
(1.38866 1.37533 1.23926)
(1.41291 1.40926 1.20759)
(1.36028 1.3871 1.27618)
(1.43511 1.45354 1.16419)
(1.4483 1.48029 1.11927)
(1.40347 1.46504 1.20749)
(1.46352 1.48804 1.07856)
(1.46727 1.49529 1.03086)
(1.42802 1.51155 1.1055)
(1.43214 1.52499 1.03202)
(1.03792 1.62861 1.07174)
(0.996909 1.62976 1.08174)
(0.977214 1.63389 1.13412)
(0.962915 1.62444 1.06574)
(0.906619 1.61001 1.07566)
(1.12088 1.62698 1.06293)
(1.08347 1.62787 1.06805)
(1.05789 1.63505 1.12749)
(1.18918 1.61947 1.03814)
(1.14527 1.62659 1.03839)
(1.13498 1.62804 1.09341)
(1.27807 1.60188 1.04608)
(1.24369 1.60809 1.04989)
(1.22263 1.60759 1.08901)
(1.33799 1.58151 1.04237)
(1.30647 1.59321 1.04458)
(1.29597 1.59224 1.09026)
(1.40137 1.54501 1.03661)
(1.36731 1.56891 1.03547)
(1.35144 1.57193 1.07885)
(1.41031 1.53525 1.06923)
(1.0453 1.59186 1.26822)
(1.05984 1.62527 1.21889)
(1.08926 1.59956 1.2568)
(1.14233 1.6097 1.22948)
(1.12605 1.57479 1.27873)
(1.06098 1.63663 1.17297)
(1.10629 1.63529 1.15992)
(1.15113 1.62267 1.17673)
(1.19008 1.60451 1.20285)
(1.14879 1.62539 1.13156)
(1.13572 1.28037 1.38082)
(1.16522 1.31007 1.38915)
(1.09957 1.23858 1.36734)
(1.07884 1.26908 1.36836)
(1.14589 1.35887 1.37549)
(1.19293 1.34797 1.38153)
(1.05871 1.30652 1.37714)
(1.02756 1.26147 1.38089)
(1.0978 1.34772 1.37549)
(1.05683 1.34878 1.38045)
(1.13709 1.40031 1.36336)
(1.27993 1.58697 1.14422)
(1.309 1.5783 1.13982)
(1.2456 1.58908 1.17683)
(1.23689 1.60168 1.12912)
(1.28695 1.50752 1.27549)
(1.26909 1.54206 1.24904)
(1.31905 1.5478 1.21581)
(1.32281 1.56686 1.16881)
(1.35336 1.54268 1.19737)
(1.33708 1.5744 1.11654)
(1.24362 1.57226 1.22418)
(1.21316 1.54296 1.27918)
(0.978241 1.62072 1.22246)
(0.974216 1.63151 1.17484)
(1.0102 1.63435 1.18792)
(0.940462 1.62154 1.17427)
(0.90203 1.59781 1.20311)
(0.896856 1.58432 1.24882)
(0.902552 1.6073 1.15979)
(0.889694 1.56763 1.28177)
(0.892678 1.53611 1.31332)
(0.93187 1.59904 1.25005)
(0.91892 1.50631 1.33725)
(0.940813 1.45451 1.37006)
(0.948622 1.55608 1.31221)
(0.972467 1.3307 1.41739)
(0.956756 1.38402 1.40727)
(0.976935 1.45887 1.36796)
(0.988553 1.29955 1.40676)
(0.996658 1.26073 1.39834)
(1.00793 1.34461 1.40092)
(1.00476 1.21445 1.39538)
(1.02819 1.18886 1.36664)
(1.04548 1.16681 1.35192)
(1.06757 1.20476 1.3577)
(1.0258 1.53529 1.31498)
(1.05952 1.50491 1.32477)
(1.01068 1.4893 1.34542)
(1.08931 1.47058 1.34195)
(1.10518 1.51671 1.31452)
(0.996853 1.57369 1.29324)
(1.16082 1.53699 1.30054)
(1.39951 1.53387 1.11226)
(1.01797 1.42455 1.37842)
(1.03825 1.38007 1.38398)
(1.07222 1.42125 1.36531)
(1.11348 1.44163 1.35291)
(1.18204 1.61852 1.11331)
(1.38497 1.53477 1.15245)
(1.38399 1.50932 1.20177)
(1.36487 1.46999 1.25777)
(1.36664 1.55832 1.11067)
(1.31437 1.47343 1.28969)
(1.25613 1.47272 1.31322)
(1.34082 1.42503 1.29283)
(0.975299 1.60348 1.26062)
(1.1842 1.49678 1.31734)
(1.15555 1.44425 1.34789)
(1.2035 1.45377 1.33655)
(1.23334 1.42069 1.34649)
(1.23015 1.37387 1.36344)
(1.28211 1.38645 1.34164)
(1.31576 1.39852 1.31933)
(0.748983 1.20273 1.42365)
(0.616199 1.32721 1.26414)
(0.597381 1.12023 1.26475)
(0.621415 1.06058 1.27895)
(0.675811 1.35428 1.31864)
(0.852924 1.21524 1.44354)
(0.596932 0.959381 1.25231)
(0.77953 1.51295 1.24395)
(0.923563 1.10491 1.4284)
(0.657837 1.27888 1.3353)
(0.700112 1.1069 1.36043)
(0.676149 1.42111 1.2454)
(0.781757 1.28114 1.41719)
(0.866863 1.08299 1.43565)
(0.886337 1.2861 1.44155)
(0.800798 1.37053 1.38405)
(0.685111 1.01376 1.327)
(0.956159 1.16603 1.43394)
(0.571341 1.01373 1.18581)
(0.583762 1.29368 1.16404)
(0.896057 1.16376 1.42772)
(0.762103 1.44433 1.30796)
(0.923281 1.23425 1.41833)
(0.56499 1.20454 1.15562)
(0.7923 1.09221 1.4168)
(0.771672 1.02664 1.39983)
(0.64554 1.19628 1.33238)
(0.742296 1.14373 1.41304)
(0.833076 1.03151 1.43096)
(0.820783 1.15213 1.43521)
(0.572911 1.18761 1.23553)
(0.599253 1.2574 1.26196)
(0.575025 0.916136 1.15033)
(0.997251 1.10806 1.3361)
(0.558093 1.10655 1.13193)
(0.735396 1.47305 1.11926)
(0.640245 1.36131 1.10573)
(0.580472 1.00147 1.22874)
(0.589809 1.04373 1.24363)
(0.610179 1.01134 1.26604)
(0.575261 0.950016 1.21182)
(0.573126 0.967554 1.17158)
(0.651522 1.03695 1.2975)
(0.643387 0.982142 1.28401)
(0.590057 0.90892 1.22602)
(0.636106 0.918235 1.26708)
(0.577744 0.897345 1.17441)
(0.6762 0.956262 1.30998)
(0.929607 1.05394 1.38116)
(0.980508 1.06869 1.33519)
(0.872756 1.03118 1.4257)
(0.894937 1.04555 1.42317)
(0.894964 1.09378 1.43687)
(1.01504 1.07973 1.31518)
(1.0344 1.10288 1.31553)
(0.949717 1.1001 1.37668)
(0.642413 1.37266 1.25603)
(0.679811 1.38629 1.28953)
(0.649065 1.34201 1.29654)
(0.725281 1.43272 1.28523)
(0.721991 1.39434 1.31991)
(0.729184 1.31854 1.37106)
(0.740683 1.36044 1.35639)
(0.794313 1.32087 1.40401)
(0.667501 1.31407 1.32979)
(0.719789 1.2826 1.37948)
(0.776742 1.40885 1.3448)
(0.641405 1.30347 1.30545)
(0.612177 1.09168 1.27368)
(0.582465 1.06847 1.23048)
(0.56411 1.05274 1.15811)
(0.567098 1.11051 1.20687)
(0.56269 0.981464 1.10608)
(0.570081 0.942229 1.10695)
(0.576939 0.895565 1.07841)
(0.55431 1.03823 1.08087)
(0.729696 1.46587 1.25057)
(0.770981 1.47782 1.2811)
(0.703421 1.4587 1.19872)
(0.758303 1.50582 1.19512)
(0.617689 1.35323 1.20749)
(0.65056 1.40074 1.19098)
(0.682789 1.41348 1.11361)
(0.842368 1.27887 1.43524)
(0.851822 1.32148 1.42136)
(0.869423 1.2506 1.43677)
(0.824801 1.24033 1.44211)
(0.769243 1.23939 1.42385)
(0.8084 1.2052 1.4424)
(0.705152 1.24127 1.38312)
(0.858853 1.00444 1.42583)
(0.850383 1.05672 1.42938)
(0.878555 1.12496 1.42644)
(0.91081 1.13398 1.43151)
(0.845474 1.12228 1.4243)
(0.859639 1.16126 1.42775)
(0.833307 1.08895 1.42113)
(0.812549 1.06402 1.4178)
(0.805248 1.12353 1.42288)
(0.904329 1.32621 1.42897)
(0.8703 1.3726 1.40367)
(0.923411 1.29183 1.43108)
(0.936547 1.26453 1.41744)
(0.905267 1.26363 1.42422)
(0.887891 1.23001 1.42046)
(0.838667 1.4222 1.36565)
(0.818139 1.46079 1.32636)
(0.970714 1.15751 1.40106)
(0.969794 1.19055 1.42905)
(0.942456 1.19478 1.42358)
(0.952795 1.22464 1.42027)
(1.00262 1.13247 1.34665)
(0.954996 1.13663 1.39825)
(0.936233 1.13616 1.42633)
(0.925808 1.16185 1.42589)
(0.909529 1.19846 1.41564)
(0.647582 1.12147 1.31397)
(0.658234 1.09064 1.31519)
(0.624688 1.1641 1.30003)
(0.675071 1.1535 1.351)
(0.562085 1.14748 1.18821)
(0.581706 1.15227 1.24869)
(0.612739 1.19751 1.28793)
(0.696373 1.06453 1.34255)
(0.817939 1.53034 1.26451)
(0.819801 1.54577 1.21584)
(0.798227 1.53409 1.15886)
(0.790531 1.52155 1.06956)
(0.80726 1.49351 1.29521)
(0.836735 1.18495 1.43737)
(0.792648 1.17356 1.43697)
(0.695223 1.20291 1.38055)
(0.656783 1.23458 1.33931)
(0.746816 1.17278 1.41992)
(0.69301 1.17376 1.3766)
(0.784105 1.14606 1.42786)
(0.58633 0.856514 1.0785)
(0.554099 1.0926 1.07066)
(0.56031 1.14272 1.06669)
(0.59906 1.28336 1.08235)
(0.580421 1.23751 1.08872)
(0.568912 1.19135 1.08082)
(0.562045 1.15713 1.14337)
(0.571621 1.24868 1.16216)
(0.652438 1.35006 1.04552)
(0.624142 1.31251 1.04824)
(0.609562 1.33078 1.13961)
(0.734274 1.45196 1.05772)
(0.691968 1.39523 1.05138)
(0.721365 0.97677 1.35732)
(0.805719 0.993854 1.41686)
(0.768887 0.983894 1.39296)
(0.729837 1.02317 1.36671)
(0.834012 0.995459 1.42883)
(0.805257 1.02876 1.4159)
(0.874093 1.19479 1.42522)
(0.735746 1.06742 1.37826)
(0.609142 1.29177 1.26548)
(0.635463 1.26985 1.30565)
(0.626246 1.22596 1.30113)
(0.782314 1.06054 1.40582)
(0.748744 1.09672 1.39617)
(0.723546 1.12617 1.38873)
(0.770018 1.11783 1.41583)
(0.584263 1.27768 1.21817)
(0.596876 1.31436 1.22124)
(0.565089 1.19611 1.20033)
(0.57362 1.23397 1.21569)
(0.58721 1.22358 1.25012)
(0.694452 1.14624 0.63066)
(0.726108 1.29931 0.635686)
(0.64991 1.11529 0.670872)
(0.604752 1.07441 0.728826)
(0.642229 1.37612 0.754625)
(0.869027 1.18798 0.559488)
(0.729907 1.46154 0.751249)
(0.931886 1.18383 0.559568)
(0.640629 1.18384 0.675984)
(0.630214 1.31301 0.695517)
(0.81169 1.07724 0.580816)
(0.811613 1.36733 0.618443)
(0.810965 1.22234 0.556461)
(0.680445 1.22431 0.644825)
(0.817943 1.15851 0.568432)
(0.690511 1.38597 0.685583)
(0.908113 1.24344 0.553371)
(0.670337 1.00515 0.676833)
(0.918375 1.10281 0.577089)
(0.592259 0.977481 0.748963)
(0.561501 1.08 0.881122)
(0.588126 1.28817 0.8209)
(0.556005 1.17923 0.84605)
(0.572579 0.997964 0.838176)
(0.77674 1.44984 0.679922)
(0.58734 1.23316 0.725915)
(0.735519 1.05247 0.61425)
(0.567732 1.1316 0.766797)
(0.874455 1.28828 0.545965)
(0.66136 1.39906 0.882579)
(0.870788 1.09237 0.56086)
(0.583978 0.908565 0.861866)
(0.777281 1.52226 0.831238)
(0.75453 1.14584 0.582843)
(0.806903 1.28919 0.580237)
(0.986305 1.11118 0.642895)
(0.664095 1.20374 0.657775)
(0.692538 1.18585 0.633944)
(0.671059 1.16662 0.651107)
(0.675779 1.13086 0.649291)
(0.649725 1.15092 0.670623)
(0.725294 1.14473 0.605149)
(0.724643 1.18554 0.608075)
(0.695874 1.07871 0.640738)
(0.71753 1.09757 0.620262)
(0.746522 1.10144 0.599872)
(0.894838 1.14902 0.56846)
(0.901553 1.18678 0.569132)
(0.92065 1.14574 0.566244)
(0.885849 1.21783 0.559516)
(0.918638 1.21702 0.56975)
(0.895507 1.09677 0.56338)
(0.869243 1.14188 0.569131)
(0.844024 1.1738 0.564955)
(0.814751 1.19211 0.564556)
(0.842767 1.20609 0.556697)
(0.862827 1.23406 0.550175)
(0.846523 1.12966 0.572524)
(0.991821 1.13869 0.629636)
(1.03938 1.1075 0.660681)
(1.01599 1.08001 0.670956)
(0.709948 1.42073 0.709032)
(0.66653 1.3825 0.710468)
(0.684953 1.41762 0.748522)
(0.737528 1.41434 0.677959)
(0.753097 1.45606 0.708453)
(0.695427 1.44011 0.806237)
(0.654178 1.39281 0.816046)
(0.814675 1.49695 0.699049)
(0.794237 1.50191 0.730122)
(0.755014 1.4932 0.788071)
(0.817415 1.53691 0.76437)
(0.715542 1.46467 0.852082)
(0.942063 1.15101 0.577577)
(0.943733 1.10394 0.612609)
(0.940442 1.24268 0.57354)
(0.951146 1.21045 0.569393)
(0.95707 1.17519 0.578783)
(0.613504 1.20823 0.701509)
(0.638777 1.22982 0.68123)
(0.609495 1.13325 0.713558)
(0.602798 1.16623 0.716354)
(0.574158 1.18381 0.74724)
(0.929882 1.05225 0.624598)
(0.977207 1.06876 0.66009)
(0.898934 1.04923 0.578454)
(0.708284 1.25807 0.637163)
(0.659569 1.26294 0.669328)
(0.677138 1.30579 0.66546)
(0.614776 1.27062 0.704941)
(0.66038 1.34782 0.687571)
(0.632849 1.34547 0.716106)
(0.70627 1.34079 0.659566)
(0.602031 1.30894 0.738517)
(0.612221 1.33418 0.783494)
(0.572802 1.26286 0.762242)
(0.788549 1.15151 0.574989)
(0.813755 1.11922 0.580017)
(0.783378 1.11187 0.584277)
(0.844842 1.08614 0.573369)
(0.850871 1.03182 0.574572)
(0.822774 1.01877 0.582714)
(0.775705 1.06463 0.594702)
(0.788157 1.00643 0.596564)
(0.875826 1.0372 0.572758)
(0.774127 1.32986 0.621386)
(0.754214 1.37608 0.650109)
(0.793706 1.40889 0.647471)
(0.874276 1.37095 0.598859)
(0.846259 1.41958 0.633831)
(0.828383 1.46306 0.664871)
(0.847084 1.32246 0.579075)
(0.901763 1.32576 0.563477)
(0.810557 1.32531 0.598136)
(0.772481 1.29419 0.606005)
(0.842449 1.28719 0.559675)
(0.780009 1.25666 0.58802)
(0.757009 1.22176 0.594651)
(0.785558 1.18633 0.574443)
(0.896346 1.26404 0.545558)
(0.843514 1.25506 0.549925)
(0.811445 1.25265 0.563996)
(0.934017 1.26962 0.563478)
(0.923943 1.29238 0.553127)
(0.657816 1.06161 0.674644)
(0.630877 1.04854 0.701244)
(0.624396 1.09774 0.699505)
(0.600733 1.02959 0.73849)
(0.626124 1.00531 0.712608)
(0.674715 0.951794 0.686766)
(0.722558 0.956893 0.641503)
(0.622281 0.949793 0.721528)
(0.706129 1.02386 0.643922)
(0.754151 0.988733 0.614901)
(0.624402 1.34147 0.851887)
(0.590106 1.10311 0.748571)
(0.584589 0.986631 0.787054)
(0.58471 1.03824 0.775628)
(0.570123 1.06612 0.799105)
(0.81606 1.55067 0.821705)
(0.814953 1.54639 0.901325)
(0.56746 0.999713 0.915249)
(0.572008 0.959643 0.91213)
(0.577043 0.917635 0.928472)
(0.587027 0.870648 0.926504)
(0.579573 0.953774 0.846235)
(0.578568 1.078 0.929197)
(0.57004 1.03678 0.935525)
(0.562703 1.03547 0.861963)
(0.588451 1.16846 0.900886)
(0.583621 1.12391 0.896986)
(0.55776 1.12988 0.861327)
(0.587077 1.23322 0.902359)
(0.596892 1.27943 0.909972)
(0.568329 1.23459 0.830672)
(0.657794 1.37444 0.94382)
(0.627551 1.33007 0.944115)
(0.697508 1.42392 0.939964)
(0.756772 1.49732 0.910486)
(0.591853 0.880918 0.830852)
(0.592463 0.91656 0.770859)
(0.585844 0.935978 0.795638)
(0.553209 1.10071 0.819626)
(0.547778 1.14921 0.804545)
(0.55316 1.20703 0.781825)
(1.14139 1.61446 0.778996)
(1.06614 1.60243 0.725674)
(1.35996 1.5541 0.825612)
(1.08499 1.39881 0.618272)
(0.960222 1.62078 0.811309)
(1.42359 1.50104 0.855296)
(1.15221 1.25194 0.604465)
(1.15862 1.35399 0.616411)
(1.0536 1.62434 0.820936)
(1.11716 1.51735 0.68809)
(1.01706 1.49558 0.657912)
(1.14485 1.61833 0.889221)
(1.18466 1.46652 0.665839)
(1.08688 1.30245 0.617609)
(1.22473 1.55789 0.737748)
(1.04638 1.23507 0.632426)
(1.38678 1.45658 0.763009)
(1.02653 1.28983 0.605576)
(1.00342 1.61292 0.890971)
(1.38815 1.55662 0.926829)
(1.30786 1.59968 0.903561)
(1.29444 1.50508 0.718785)
(1.23493 1.29682 0.622511)
(0.956853 1.59147 0.716082)
(1.06867 1.61948 0.913666)
(1.29085 1.58213 0.806019)
(1.28965 1.33214 0.663357)
(1.2425 1.40162 0.64466)
(0.934837 1.60481 0.879919)
(1.44377 1.51237 0.937223)
(1.08209 1.18743 0.629706)
(1.22208 1.60797 0.835353)
(1.2392 1.61593 0.924442)
(1.33385 1.3813 0.697302)
(0.938753 1.49821 0.65358)
(1.00596 1.36514 0.597786)
(1.43375 1.52262 0.967979)
(1.46762 1.49353 0.968795)
(1.4635 1.48589 0.921752)
(1.09633 1.61842 0.793804)
(1.06159 1.62435 0.77253)
(1.10758 1.60988 0.749281)
(1.09282 1.55395 0.698098)
(1.13842 1.57081 0.718663)
(1.14534 1.61018 0.825248)
(1.10221 1.61004 0.84302)
(1.1719 1.53178 0.707268)
(1.18693 1.58825 0.754068)
(1.18297 1.60763 0.80195)
(1.18664 1.60923 0.856161)
(1.22727 1.59381 0.785876)
(0.984937 1.6105 0.938421)
(1.02536 1.61558 0.944843)
(0.895344 1.59009 0.930764)
(0.950039 1.60598 0.939096)
(0.971952 1.6097 0.884569)
(1.05828 1.62203 0.954254)
(1.09552 1.62665 0.958236)
(1.03781 1.61341 0.901213)
(1.13272 1.62602 0.94281)
(1.17885 1.62228 0.945148)
(1.10701 1.6175 0.897421)
(1.26722 1.61075 0.961775)
(1.22546 1.61825 0.960841)
(1.19523 1.61572 0.905113)
(1.30067 1.60145 0.949513)
(1.33487 1.58495 0.949338)
(1.27696 1.60579 0.912338)
(1.37232 1.56673 0.962933)
(1.4051 1.54208 0.962606)
(1.34987 1.57493 0.912304)
(1.41504 1.53135 0.930214)
(1.06822 1.14942 0.636637)
(1.04822 1.17197 0.639186)
(1.1071 1.18231 0.622652)
(0.901462 1.59729 0.765921)
(0.910543 1.60248 0.808891)
(0.950081 1.61164 0.838156)
(0.897966 1.59527 0.844771)
(0.904192 1.57275 0.717796)
(0.956689 1.61629 0.762853)
(1.03051 1.61503 0.847857)
(0.985859 1.61563 0.846476)
(1.01114 1.62329 0.814562)
(1.01271 1.62349 0.766044)
(1.39219 1.52487 0.834965)
(1.37624 1.50773 0.786316)
(1.40718 1.47834 0.806885)
(1.4163 1.42681 0.799123)
(1.43863 1.4516 0.838703)
(1.40662 1.52982 0.88817)
(1.43335 1.50677 0.896514)
(1.37501 1.55339 0.873937)
(1.45149 1.4771 0.883177)
(0.914481 1.53616 0.681175)
(0.9297 1.43881 0.62867)
(0.907341 1.49036 0.654713)
(0.946553 1.54475 0.679357)
(0.983677 1.3255 0.583673)
(0.967574 1.37123 0.593458)
(0.974931 1.43012 0.629528)
(0.99934 1.25939 0.602132)
(0.992421 1.2949 0.591987)
(1.01743 1.32555 0.597989)
(1.02398 1.19946 0.632577)
(1.00042 1.22961 0.610032)
(1.03212 1.26068 0.620147)
(1.07066 1.21072 0.639261)
(1.16961 1.41032 0.641802)
(1.13319 1.43693 0.648209)
(1.11677 1.37408 0.620636)
(1.08135 1.34393 0.612267)
(1.12298 1.3321 0.616823)
(1.05419 1.29395 0.616043)
(1.05462 1.33981 0.608002)
(1.04553 1.38257 0.612682)
(1.06459 1.50496 0.676509)
(1.05382 1.44498 0.645381)
(1.09795 1.46316 0.660846)
(1.15003 1.48808 0.680747)
(1.01038 1.43229 0.633871)
(1.01248 1.59728 0.719413)
(1.03748 1.54552 0.683696)
(0.988485 1.54387 0.677523)
(1.12431 1.2825 0.618651)
(1.16282 1.30282 0.610931)
(1.19736 1.27553 0.607818)
(1.19892 1.32851 0.613269)
(1.07062 1.26886 0.627512)
(1.10706 1.24765 0.628072)
(1.12 1.22208 0.62052)
(1.18631 1.23189 0.613482)
(1.22769 1.24697 0.640453)
(1.1431 1.21225 0.614269)
(1.20091 1.37852 0.631652)
(1.21157 1.43557 0.654421)
(1.23757 1.34725 0.630622)
(1.06377 1.6131 0.858018)
(1.2019 1.50507 0.69952)
(0.979762 1.49833 0.654809)
(1.23328 1.60817 0.877264)
(1.25786 1.52705 0.729244)
(1.23721 1.48394 0.688999)
(1.26582 1.45179 0.67497)
(1.29771 1.5415 0.758264)
(1.26083 1.56953 0.76874)
(1.25803 1.59639 0.820189)
(1.31436 1.44434 0.693793)
(1.36132 1.41323 0.727893)
(1.34247 1.47952 0.732205)
(1.36209 1.35548 0.738054)
(1.39223 1.39184 0.766858)
(1.33325 1.5271 0.766142)
(1.29067 1.39259 0.664917)
(1.31021 1.35618 0.680272)
(1.26838 1.36664 0.647774)
(1.33073 1.33296 0.711526)
(1.30849 1.30992 0.696038)
(1.33383 1.57834 0.864176)
(1.30059 1.59047 0.853163)
(1.27001 1.59938 0.866738)
(1.32736 1.56481 0.81255)
(1.26225 1.31417 0.644337)
(1.25548 1.26817 0.659728)
(1.28003 1.28623 0.678733)
(0.854728 1.19522 1.19754)
(0.737504 1.13425 1.17244)
(0.72901 1.19932 1.12368)
(0.89612 1.27565 1.22277)
(0.757449 1.26584 1.10473)
(0.832531 1.25678 1.23603)
(0.809243 1.15408 1.22219)
(0.776312 1.22083 1.1895)
(0.793442 1.28944 1.17897)
(0.876147 1.19565 1.14106)
(0.694969 1.11249 1.08395)
(0.863725 1.32579 1.2238)
(0.823848 1.33633 1.14779)
(0.700885 1.06977 1.09792)
(0.825604 1.3355 1.07714)
(0.868519 1.36156 1.03485)
(0.860934 1.36615 1.08563)
(0.857944 1.36603 1.11936)
(0.869025 1.36661 1.15015)
(0.821657 1.33541 1.11459)
(0.774492 1.14587 1.2069)
(0.795576 1.19242 1.21369)
(0.760182 1.17883 1.17901)
(0.74079 1.17791 1.14274)
(0.75719 1.21794 1.15579)
(0.717879 1.16237 1.10409)
(0.716376 1.1289 1.12572)
(0.718561 1.10519 1.13587)
(0.697298 1.09371 1.08809)
(0.798078 1.10948 1.2125)
(0.762323 1.10397 1.20136)
(0.734796 1.09054 1.16774)
(0.716666 1.05948 1.12918)
(0.768489 1.25093 1.14982)
(0.775779 1.27993 1.1423)
(0.743825 1.23248 1.11413)
(0.739204 1.22119 1.06115)
(0.723363 1.19039 1.07578)
(0.806526 1.31173 1.16251)
(0.789972 1.30217 1.12883)
(0.769893 1.26835 1.05467)
(0.788163 1.29865 1.09221)
(0.8043 1.30867 1.04034)
(0.853164 1.15191 1.15072)
(0.873027 1.15276 1.13753)
(0.863276 1.19797 1.16539)
(0.907086 1.17416 1.13425)
(0.885888 1.2387 1.17601)
(0.87383 1.23722 1.20699)
(0.895949 1.22083 1.13883)
(0.908421 1.26194 1.17726)
(0.824989 1.20611 1.22466)
(0.806094 1.24084 1.21534)
(0.789117 1.25913 1.18184)
(0.815948 1.28187 1.20853)
(0.687169 1.09232 1.055)
(0.690948 1.12129 1.05435)
(0.689161 1.07192 1.05915)
(0.711015 1.16173 1.07549)
(0.837569 1.13942 1.17726)
(0.834843 1.17447 1.21153)
(0.85385 1.23027 1.22695)
(0.823261 1.12337 1.20071)
(0.867825 1.27016 1.2363)
(0.919761 1.31107 1.22114)
(0.886758 1.35882 1.18555)
(0.907026 1.3405 1.22019)
(0.885681 1.30593 1.23553)
(0.845608 1.33651 1.17612)
(0.696351 1.04402 1.06653)
(0.829858 1.31254 1.19984)
(0.846528 1.29287 1.23243)
(1.00252 1.42228 1.12139)
(1.19449 1.34892 1.08493)
(1.19165 1.37763 1.05635)
(1.1333 1.35131 1.11758)
(1.11233 1.38961 1.1793)
(1.07592 1.30964 1.19155)
(1.15349 1.39853 1.12866)
(1.13629 1.42192 1.07473)
(1.02822 1.33312 1.22049)
(1.25949 1.35981 1.05086)
(1.09364 1.42728 1.14121)
(1.03447 1.39467 1.16492)
(1.05903 1.43844 1.07555)
(0.979263 1.42742 1.05885)
(1.00113 1.26065 1.19428)
(1.16546 1.39824 1.0635)
(1.16757 1.38725 1.08949)
(1.142 1.41356 1.1036)
(1.11099 1.42708 1.10943)
(1.12594 1.41832 1.13773)
(1.16482 1.36806 1.09718)
(1.15578 1.34483 1.09515)
(1.14934 1.37481 1.12407)
(1.19024 1.36375 1.0731)
(1.12826 1.37467 1.15093)
(1.13499 1.39549 1.15311)
(1.10719 1.41042 1.16115)
(0.940376 1.41234 1.07391)
(0.948748 1.41047 1.0288)
(0.962249 1.40588 1.13179)
(0.951944 1.41401 1.10367)
(0.989154 1.42621 1.09106)
(1.20447 1.3194 1.09503)
(1.24294 1.33832 1.07962)
(1.22408 1.35282 1.06885)
(1.27521 1.34664 1.06223)
(1.29336 1.35347 1.02622)
(1.04392 1.24773 1.16883)
(1.07373 1.26828 1.14872)
(1.10083 1.29873 1.11948)
(1.15051 1.30711 1.09979)
(1.10024 1.34394 1.15166)
(1.01661 1.22875 1.16813)
(0.968068 1.21727 1.15785)
(1.04159 1.28005 1.20319)
(0.982661 1.33589 1.20517)
(0.976373 1.29466 1.20085)
(1.01401 1.2961 1.21533)
(0.961914 1.2585 1.17348)
(1.02968 1.37027 1.18826)
(0.985034 1.37104 1.17857)
(1.05784 1.3239 1.21512)
(1.06889 1.36952 1.19553)
(1.07574 1.39532 1.17404)
(1.09484 1.35956 1.18525)
(1.00509 1.43146 1.03256)
(0.978898 1.39333 1.15269)
(1.02051 1.4076 1.13788)
(1.03115 1.4305 1.09895)
(1.0228 1.43396 1.0667)
(1.07241 1.4307 1.10755)
(1.05086 1.42167 1.12622)
(1.06887 1.41016 1.15122)
(1.2587 1.36307 1.02619)
(1.21691 1.36238 1.05025)
(1.21939 1.36703 1.02763)
(1.04715 1.43561 1.04132)
(1.09377 1.43393 1.04266)
(1.16368 1.40608 1.03437)
(1.13088 1.4241 1.04032)
(1.10009 1.43122 1.07635)
(1.19032 1.38557 1.02817)
(1.03157 1.33707 0.79207)
(1.2075 1.33825 0.90923)
(1.08353 1.42329 0.908482)
(1.06227 1.2923 0.82473)
(1.08624 1.40186 0.853035)
(1.1657 1.3727 0.885784)
(1.00952 1.3863 0.812602)
(1.11443 1.35931 0.847325)
(0.992079 1.43187 0.853683)
(1.13047 1.3209 0.886973)
(1.23244 1.36739 0.946392)
(0.994634 1.24967 0.817783)
(1.16358 1.40601 0.943316)
(1.00926 1.43378 0.942534)
(0.942249 1.42041 0.873398)
(0.953485 1.41494 0.839911)
(0.968745 1.41774 0.97113)
(0.958916 1.42322 0.917847)
(0.993816 1.43677 0.892866)
(1.0085 1.41178 0.83668)
(0.963897 1.39786 0.815036)
(0.978887 1.37179 0.793458)
(0.97918 1.29468 0.798384)
(1.0088 1.29167 0.793085)
(0.957714 1.25015 0.836036)
(1.02797 1.26744 0.81102)
(1.04921 1.31616 0.800284)
(1.10266 1.38105 0.849398)
(1.07161 1.35505 0.823317)
(1.05897 1.37535 0.838036)
(1.08697 1.33456 0.836682)
(0.993492 1.34346 0.789292)
(1.02105 1.36253 0.806734)
(1.04885 1.39386 0.842387)
(1.02277 1.43157 0.977725)
(1.04773 1.41849 0.85832)
(1.04294 1.42969 0.883836)
(1.08543 1.41399 0.878958)
(1.04475 1.43005 0.925238)
(0.971759 1.21163 0.840766)
(1.01494 1.21881 0.835741)
(1.0402 1.2363 0.841509)
(1.15003 1.34718 0.892545)
(1.12093 1.34116 0.871187)
(1.14032 1.36481 0.871478)
(1.09131 1.31403 0.861309)
(1.12774 1.38762 0.868044)
(1.16612 1.32478 0.901852)
(1.17549 1.35082 0.910432)
(1.20938 1.31425 0.894883)
(1.16282 1.29905 0.889086)
(1.11269 1.2829 0.877187)
(1.07497 1.26105 0.857086)
(1.18859 1.3664 0.923793)
(1.21658 1.35416 0.928746)
(1.25518 1.35083 0.937156)
(1.24562 1.33434 0.913922)
(1.07407 1.42758 0.981628)
(1.17831 1.40241 0.972086)
(1.14305 1.41549 0.974104)
(1.12371 1.41138 0.92919)
(1.10242 1.42046 0.960464)
(1.24735 1.36743 0.971622)
(1.21092 1.37831 0.973162)
(1.19669 1.3819 0.947347)
(1.16371 1.39043 0.910413)
(1.27817 1.35613 0.969902)