/*--------------------------------*- C++ -*----------------------------------*\
| =========                 |                                                 |
| \\      /  F ield         | OpenFOAM: The Open Source CFD Toolbox           |
|  \\    /   O peration     | Version:  v1806                                 |
|   \\  /    A nd           | Web:      www.OpenFOAM.com                      |
|    \\/     M anipulation  |                                                 |
\*---------------------------------------------------------------------------*/
FoamFile
{
    version     2.0;
    format      ascii;
    class       volVectorField;
    location    "0.069";
    object      U;
}
// * * * * * * * * * * * * * * * * * * * * * * * * * * * * * * * * * * * * * //

dimensions      [0 1 -1 0 0 0 0];


internalField   nonuniform List<vector> 
64000
(
(-0.00894116 -0.00996801 -0.00642451)
(0.0137064 -0.010314 -0.00386534)
(0.0200269 -0.00356183 0.000983872)
(0.0235555 -0.0035873 0.00141312)
(0.024135 -0.002629 0.00194178)
(0.0241113 -0.00284189 0.00275265)
(0.0234855 -0.00346859 0.00302689)
(0.0201134 -0.00396135 0.00316556)
(0.0186496 -0.0049679 0.00458264)
(0.0116133 -0.00439321 0.00393962)
(0.00612693 -0.00548165 0.00635362)
(-0.0073439 -0.00905583 0.00629655)
(-0.0275427 -0.0128278 0.00651553)
(-0.0511466 -0.0179363 0.00404486)
(-0.0819682 -0.0181746 0.00512053)
(-0.117139 -0.0157873 0.00273589)
(-0.148849 0.000868149 0.00209099)
(-0.192029 -0.00430241 -0.00233013)
(-0.195261 -0.00999798 0.00597793)
(-0.253343 -0.0288798 -0.0159298)
(-0.218595 -0.0238809 -0.0248651)
(-0.105399 -0.0249619 -0.0395089)
(-0.102458 -0.0104334 -0.0269663)
(-0.0980861 -0.00430077 -0.0372533)
(-0.112169 0.00241454 -0.0479758)
(-0.107444 0.0108583 -0.0570165)
(-0.0947529 0.0206984 -0.0618579)
(-0.0606281 0.0322283 -0.0571144)
(-0.02836 0.0380997 -0.053035)
(0.0149019 0.0531913 -0.0348373)
(0.0634471 0.0451221 -0.0320401)
(0.0964162 0.0374338 -0.0230998)
(0.112332 0.0263543 -0.0116042)
(0.107819 0.0128304 -0.00421591)
(0.0937161 0.00462434 0.00183511)
(0.0740703 -0.00356943 0.00439639)
(0.0532517 -0.00703267 0.00611285)
(0.0319277 -0.00610174 0.00696239)
(0.0170451 -0.00446941 0.00730315)
(0.00244443 -0.00288178 0.00517928)
(-0.00669182 -0.000216762 -0.00290333)
(0.00934174 -0.0169354 -0.00258172)
(0.0249471 -0.0118724 -0.00092919)
(0.0337966 -0.00859138 -0.000630992)
(0.0388838 -0.00368556 -0.000545096)
(0.0387212 -0.00105559 -0.00130646)
(0.0369733 0.00298497 -0.0028479)
(0.0294469 0.00476283 -0.00266407)
(0.0225366 0.0104553 -0.00701556)
(0.00483697 0.0161769 -0.00440498)
(-0.0196191 0.0247753 -0.00807938)
(-0.0565495 0.0313344 0.000268756)
(-0.104776 0.0425791 -0.00403468)
(-0.156519 0.0637214 -0.0068683)
(-0.216075 0.0764965 -0.0109767)
(-0.273869 0.0854327 -0.0182118)
(-0.357173 0.0929201 -0.0433084)
(-0.461403 0.0953254 -0.0582712)
(-0.513519 0.10099 -0.0757403)
(-0.595101 0.0982114 -0.0994396)
(-0.548198 0.125027 -0.100724)
(-0.409412 0.139987 -0.12716)
(-0.387567 0.185023 -0.138271)
(-0.370346 0.210937 -0.146964)
(-0.356826 0.236402 -0.158172)
(-0.319529 0.258377 -0.164115)
(-0.268226 0.278984 -0.165435)
(-0.198776 0.295191 -0.153792)
(-0.12147 0.300765 -0.133705)
(-0.0520392 0.308248 -0.109761)
(0.0145815 0.289569 -0.0751938)
(0.079195 0.259525 -0.0472882)
(0.114801 0.208898 -0.0387353)
(0.126922 0.159242 -0.0267412)
(0.121106 0.108175 -0.0128021)
(0.101504 0.0684441 -0.00523432)
(0.0812042 0.0399246 -0.000792095)
(0.0556278 0.0253975 0.000268848)
(0.0332412 0.0156109 0.00187341)
(0.00831062 0.00715412 0.00249608)
(-0.000565854 -0.00803883 0.00156254)
(0.0152142 -0.0234409 -0.00123667)
(0.0325737 -0.0187102 -0.00211326)
(0.0425541 -0.00630935 -0.00273768)
(0.0446615 0.00470245 -0.00475254)
(0.0418332 0.015976 -0.00634525)
(0.0340316 0.0316624 -0.0076342)
(0.0200286 0.0457 -0.00945525)
(0.00395965 0.0695532 -0.00202179)
(-0.0263191 0.0898727 -0.00470153)
(-0.0647132 0.117384 -0.00817013)
(-0.117884 0.150222 -0.0132826)
(-0.172637 0.183833 -0.0172078)
(-0.251264 0.21076 -0.0320572)
(-0.351464 0.229581 -0.0347698)
(-0.447323 0.243166 -0.0423284)
(-0.535547 0.247978 -0.0586635)
(-0.621881 0.269098 -0.0764856)
(-0.66833 0.298139 -0.0941994)
(-0.734209 0.331327 -0.116184)
(-0.673634 0.36972 -0.109669)
(-0.508781 0.398136 -0.123911)
(-0.463161 0.454745 -0.126864)
(-0.435352 0.487627 -0.123523)
(-0.412668 0.519627 -0.125603)
(-0.37148 0.542191 -0.123716)
(-0.319725 0.556084 -0.119231)
(-0.25557 0.560171 -0.104574)
(-0.187649 0.550121 -0.0830108)
(-0.123773 0.530829 -0.0593216)
(-0.0671961 0.501386 -0.0399121)
(-0.0253339 0.452874 -0.0277441)
(0.00936704 0.379932 -0.0154838)
(0.0322056 0.307406 -0.00806597)
(0.0431636 0.227793 -0.0109834)
(0.0489409 0.162658 -0.0108276)
(0.0483741 0.114348 -0.00701012)
(0.0390444 0.0768096 -0.0047371)
(0.0275891 0.0507431 -0.000928504)
(0.00821623 0.0238223 0.001999)
(0.000235611 -0.0127299 0.00239146)
(0.0173295 -0.0258833 -0.00118227)
(0.0390437 -0.0130137 -0.00243524)
(0.0471476 0.00547809 -0.00605894)
(0.0444783 0.029247 -0.00652669)
(0.0395014 0.0546125 -0.00861415)
(0.0261755 0.0898918 -0.0086303)
(0.00653741 0.122522 -0.00534921)
(-0.0205047 0.167696 -0.0104324)
(-0.0656697 0.20815 -0.0127458)
(-0.111609 0.251898 -0.0169704)
(-0.177215 0.285722 -0.0241294)
(-0.264491 0.313056 -0.0266189)
(-0.355914 0.328943 -0.0286678)
(-0.442483 0.350363 -0.0307836)
(-0.521115 0.375577 -0.0368508)
(-0.593567 0.405397 -0.0508799)
(-0.666523 0.434936 -0.0598918)
(-0.698498 0.474459 -0.0690052)
(-0.749422 0.517294 -0.0770378)
(-0.677214 0.551273 -0.0517861)
(-0.491975 0.57053 -0.0467407)
(-0.432239 0.613166 -0.0420906)
(-0.405063 0.622769 -0.0295841)
(-0.384063 0.635623 -0.0262961)
(-0.352257 0.637136 -0.0208659)
(-0.312343 0.629347 -0.0174135)
(-0.265159 0.611493 -0.0102395)
(-0.21485 0.586215 0.00150662)
(-0.170475 0.5545 0.00870463)
(-0.13829 0.51521 0.0141398)
(-0.114431 0.471381 0.0125814)
(-0.0917594 0.415964 0.00730118)
(-0.0695042 0.351097 -0.00100295)
(-0.0474865 0.271691 -0.00483207)
(-0.0191791 0.202433 -0.0100663)
(0.000600264 0.14673 -0.010197)
(0.00948 0.110141 -0.00760269)
(0.017467 0.0764997 -0.00313948)
(0.00656505 0.035619 0.00166047)
(0.000783399 -0.013494 0.000757786)
(0.0235627 -0.0160181 -0.00465258)
(0.0477213 0.00190927 -0.00662497)
(0.0556357 0.0369234 -0.00789984)
(0.0524691 0.076432 -0.00685503)
(0.046285 0.122652 -0.0147125)
(0.0266149 0.179219 -0.0118248)
(-0.000488707 0.237528 -0.00563745)
(-0.0333051 0.291564 -0.00755815)
(-0.0879382 0.334343 -0.00961905)
(-0.152445 0.367206 -0.0123903)
(-0.232474 0.386253 -0.0150115)
(-0.305046 0.4092 -0.0160155)
(-0.378967 0.436295 -0.0212228)
(-0.453186 0.467635 -0.0193544)
(-0.519882 0.500257 -0.0210898)
(-0.578757 0.528776 -0.0239154)
(-0.63182 0.565446 -0.0205577)
(-0.644638 0.607811 -0.017205)
(-0.682286 0.652262 -0.0259032)
(-0.610783 0.680617 0.000203591)
(-0.419054 0.686793 0.0141256)
(-0.355452 0.700146 0.0247737)
(-0.337263 0.678195 0.0364532)
(-0.327971 0.660121 0.0377377)
(-0.315563 0.63531 0.0439197)
(-0.296179 0.602859 0.0451279)
(-0.267192 0.567198 0.0491497)
(-0.237571 0.526577 0.0425675)
(-0.213383 0.487867 0.0349738)
(-0.19271 0.443947 0.0251355)
(-0.183231 0.410943 0.0177525)
(-0.176148 0.375277 0.00982496)
(-0.172126 0.34444 -0.00201086)
(-0.151105 0.279311 -0.0125443)
(-0.103346 0.208437 -0.013664)
(-0.0518713 0.160422 -0.0132094)
(-0.0164864 0.129601 -0.0113286)
(0.00310339 0.0948662 -0.00565798)
(0.00367663 0.0446683 0.0016154)
(0.00539459 -0.00970265 -0.000168829)
(0.0293305 -0.00110236 -0.00516765)
(0.0621117 0.0245506 -0.00531688)
(0.0759306 0.0761424 -0.00917582)
(0.0695389 0.133682 -0.0140247)
(0.0647625 0.198662 -0.0183444)
(0.0458444 0.273284 -0.0137015)
(0.0064297 0.321345 -0.00308635)
(-0.0496547 0.363741 -0.00518433)
(-0.121588 0.396577 -0.00694691)
(-0.187445 0.426467 -0.00898569)
(-0.249627 0.457029 -0.00919595)
(-0.309184 0.492204 -0.0072992)
(-0.366708 0.520206 -0.00438567)
(-0.41869 0.550758 0.00201189)
(-0.46924 0.57944 0.00688772)
(-0.504667 0.610258 0.00820937)
(-0.538771 0.642412 0.00888915)
(-0.546074 0.687488 0.0105488)
(-0.57203 0.720845 0.008714)
(-0.50236 0.745525 0.033761)
(-0.326778 0.697864 0.049123)
(-0.279562 0.680329 0.0591161)
(-0.282481 0.628021 0.0731766)
(-0.288876 0.585809 0.0765637)
(-0.294605 0.544543 0.0771028)
(-0.291677 0.501164 0.0744403)
(-0.282926 0.46067 0.0686304)
(-0.267536 0.413622 0.0662096)
(-0.257361 0.376147 0.0460658)
(-0.247704 0.333386 0.0353712)
(-0.237443 0.302883 0.021382)
(-0.224394 0.278248 0.00952748)
(-0.232874 0.265193 -0.00191567)
(-0.239127 0.241192 -0.0147881)
(-0.174302 0.192454 -0.0136215)
(-0.092256 0.161307 -0.0148452)
(-0.0401649 0.134629 -0.0116812)
(-0.00431823 0.10293 -0.00656553)
(0.00265719 0.0478084 0.00211791)
(0.00826555 -0.00463348 0.000774316)
(0.0387969 0.0105829 -0.0100203)
(0.0812273 0.0501785 -0.00949253)
(0.105622 0.10467 -0.0109612)
(0.101746 0.166254 -0.0139226)
(0.0982169 0.241877 -0.0170175)
(0.050832 0.298105 -0.00809761)
(-0.0144002 0.3318 0.00284322)
(-0.0607553 0.375363 -0.00199099)
(-0.117149 0.417843 -0.00277041)
(-0.166283 0.464658 -0.00295279)
(-0.217107 0.507016 -0.00123768)
(-0.263786 0.545418 0.0018542)
(-0.310244 0.579162 0.00731204)
(-0.350893 0.611499 0.0143655)
(-0.384995 0.63713 0.0200151)
(-0.410536 0.663434 0.0258096)
(-0.426742 0.67765 0.0293324)
(-0.422372 0.702337 0.0257177)
(-0.443735 0.717855 0.0169785)
(-0.432331 0.73622 0.0308552)
(-0.290738 0.632773 0.0522018)
(-0.229751 0.582688 0.0562082)
(-0.249475 0.523651 0.0696806)
(-0.265665 0.479964 0.0708474)
(-0.287576 0.442481 0.0709341)
(-0.300466 0.406638 0.0671459)
(-0.308023 0.372856 0.0605807)
(-0.306122 0.336337 0.0480883)
(-0.307478 0.302305 0.0331247)
(-0.304959 0.269853 0.0203213)
(-0.29679 0.242076 0.00857092)
(-0.284734 0.22319 -0.00117554)
(-0.282677 0.207416 -0.00772707)
(-0.286695 0.217428 -0.0172747)
(-0.226126 0.193131 -0.0203552)
(-0.127201 0.166323 -0.0216234)
(-0.0558458 0.14567 -0.0166522)
(-0.00966599 0.11146 -0.0104779)
(0.00253744 0.0522402 0.000397321)
(0.00745858 0.00320165 -0.00261593)
(0.0456234 0.029863 -0.0131516)
(0.0997197 0.0791119 -0.013588)
(0.124781 0.134273 -0.0107321)
(0.129439 0.19272 -0.0116827)
(0.111251 0.263127 -0.0115443)
(0.0498106 0.291418 -0.000272913)
(0.00330876 0.345418 0.00547402)
(-0.0320278 0.392217 0.00173485)
(-0.0816532 0.445562 0.00309712)
(-0.123926 0.489074 0.00428922)
(-0.166337 0.526032 0.0102303)
(-0.202157 0.558748 0.0164296)
(-0.232545 0.585669 0.0236574)
(-0.261228 0.610293 0.0281586)
(-0.288971 0.625853 0.0323271)
(-0.309368 0.636799 0.0348407)
(-0.327157 0.638608 0.0343013)
(-0.327511 0.63298 0.0308682)
(-0.344212 0.615626 0.0146666)
(-0.384214 0.617519 0.0150179)
(-0.294716 0.541525 0.0336205)
(-0.218991 0.456498 0.0363465)
(-0.238599 0.41833 0.0477273)
(-0.262109 0.380769 0.0520236)
(-0.293311 0.356802 0.0536202)
(-0.316555 0.330045 0.0545993)
(-0.334849 0.304696 0.0479612)
(-0.344116 0.27629 0.0393126)
(-0.352524 0.246365 0.0177374)
(-0.354303 0.214757 0.010054)
(-0.345196 0.190333 0.000940168)
(-0.331556 0.176932 -0.00720584)
(-0.316425 0.169279 -0.0108806)
(-0.324877 0.190713 -0.0203325)
(-0.276062 0.196119 -0.0205487)
(-0.161085 0.171727 -0.02235)
(-0.0742012 0.154775 -0.0176095)
(-0.0147834 0.118688 -0.0101937)
(0.00374862 0.0557621 0.00113037)
(0.00637776 0.0134663 -0.00557786)
(0.0533612 0.0602283 -0.0180834)
(0.119107 0.116524 -0.0193949)
(0.150431 0.171449 -0.0131134)
(0.15759 0.232907 -0.0141963)
(0.124581 0.279853 -0.0104514)
(0.0680935 0.319625 -0.00182442)
(0.0315795 0.375741 0.0055224)
(0.00318849 0.413838 0.0115379)
(-0.0318793 0.454377 0.0114626)
(-0.0714901 0.492612 0.0157099)
(-0.102713 0.519218 0.0212118)
(-0.128597 0.541636 0.0281639)
(-0.153517 0.553975 0.0341528)
(-0.177472 0.55794 0.0361875)
(-0.202367 0.55484 0.0368173)
(-0.225128 0.547601 0.0356021)
(-0.251438 0.533916 0.0311752)
(-0.272876 0.520061 0.0250273)
(-0.293408 0.491994 0.0100699)
(-0.345278 0.480204 -0.000116711)
(-0.31744 0.452989 0.00979814)
(-0.239945 0.353889 0.0180686)
(-0.237249 0.33745 0.0241314)
(-0.266611 0.311232 0.0319978)
(-0.301207 0.297006 0.0366434)
(-0.334123 0.278844 0.0417355)
(-0.359609 0.256538 0.0384472)
(-0.379106 0.232655 0.0240623)
(-0.396754 0.19944 0.00951518)
(-0.400072 0.174946 -0.000241807)
(-0.387725 0.151951 -0.00547858)
(-0.372872 0.138298 -0.0115106)
(-0.346535 0.140015 -0.0190149)
(-0.337141 0.15271 -0.0229812)
(-0.305043 0.190454 -0.0280905)
(-0.196787 0.173718 -0.0264275)
(-0.0896392 0.163772 -0.0244748)
(-0.0198336 0.128339 -0.013572)
(0.00459927 0.0614762 -0.00102493)
(0.00784137 0.0301688 -0.00853212)
(0.0624587 0.0994682 -0.0257799)
(0.137186 0.160045 -0.0250687)
(0.175511 0.213584 -0.0156344)
(0.175528 0.2651 -0.0143895)
(0.142818 0.297743 -0.0131334)
(0.102093 0.346408 -0.00241857)
(0.0694752 0.392735 0.00979099)
(0.0386336 0.429587 0.0163002)
(0.0146531 0.456339 0.0265903)
(-0.0124353 0.478052 0.0234802)
(-0.0433355 0.491245 0.0337021)
(-0.0662018 0.499199 0.0385827)
(-0.089016 0.489769 0.0439902)
(-0.112874 0.474421 0.0432987)
(-0.13936 0.451909 0.0401429)
(-0.166973 0.428262 0.0349607)
(-0.197143 0.403358 0.0278145)
(-0.227339 0.387698 0.0195667)
(-0.261911 0.370601 0.00458571)
(-0.31747 0.357 -0.00752662)
(-0.339925 0.357145 -0.0071558)
(-0.270664 0.293513 0.00695353)
(-0.234742 0.282622 0.00970435)
(-0.268046 0.265525 0.0200707)
(-0.302531 0.257231 0.0277094)
(-0.341968 0.23805 0.0365779)
(-0.374609 0.220699 0.0318911)
(-0.402647 0.19053 0.0246068)
(-0.418751 0.163975 0.00968238)
(-0.424256 0.135873 0.011172)
(-0.420552 0.114673 0.017588)
(-0.401124 0.0951837 0.0147578)
(-0.377685 0.0970437 0.00900443)
(-0.358063 0.110829 -0.0127247)
(-0.32764 0.159159 -0.0240411)
(-0.227102 0.171406 -0.0246606)
(-0.106823 0.163572 -0.0215133)
(-0.0256207 0.136169 -0.0125645)
(0.00575181 0.0656257 0.000161062)
(0.00878349 0.0511526 -0.0111827)
(0.0702347 0.141193 -0.0320635)
(0.154529 0.205783 -0.0311724)
(0.196197 0.253451 -0.0177293)
(0.193379 0.28989 -0.0119438)
(0.16908 0.324819 -0.0129147)
(0.140374 0.365537 -0.00246663)
(0.109638 0.402193 0.00534906)
(0.0843068 0.430381 0.0135754)
(0.0564093 0.450928 0.0289558)
(0.0281604 0.455602 0.0374173)
(0.0114939 0.456397 0.0471482)
(-0.0122702 0.443308 0.0469643)
(-0.0419866 0.4223 0.0501422)
(-0.068445 0.393845 0.0474167)
(-0.0995269 0.362694 0.040306)
(-0.132422 0.33266 0.0319345)
(-0.166149 0.306264 0.0235943)
(-0.200469 0.29186 0.0146725)
(-0.240925 0.276508 0.00249959)
(-0.293208 0.269977 -0.00694729)
(-0.330472 0.275648 -0.011087)
(-0.273788 0.263043 0.000464985)
(-0.228733 0.247421 0.000458961)
(-0.256529 0.235348 0.0127468)
(-0.29506 0.222955 0.0216514)
(-0.339411 0.207129 0.0306685)
(-0.377081 0.184203 0.0294368)
(-0.408864 0.157814 0.0190496)
(-0.432344 0.128058 0.0304436)
(-0.446684 0.0935784 0.0315892)
(-0.448822 0.0652346 0.0188811)
(-0.435973 0.0514284 0.0135075)
(-0.4027 0.0478925 0.00629385)
(-0.365606 0.0633895 -2.09e-05)
(-0.334968 0.108895 -0.0216834)
(-0.250798 0.15071 -0.0283452)
(-0.124516 0.159521 -0.02345)
(-0.0284437 0.139835 -0.0150083)
(0.00492434 0.0696474 -0.00143858)
(0.0093985 0.0709721 -0.0117569)
(0.076392 0.183008 -0.0358585)
(0.16671 0.249839 -0.0342134)
(0.209031 0.285817 -0.0175728)
(0.21323 0.314766 -0.00983002)
(0.198433 0.346577 -0.00660874)
(0.175405 0.377806 -0.00504419)
(0.148499 0.401959 0.00848579)
(0.121957 0.421378 0.0130858)
(0.0979431 0.429659 0.0255006)
(0.0751203 0.432024 0.036373)
(0.0470723 0.420531 0.0520554)
(0.0218943 0.393663 0.0553698)
(-0.00254111 0.359764 0.0549058)
(-0.0345679 0.328151 0.0477131)
(-0.0692962 0.295732 0.0369787)
(-0.106734 0.268744 0.0259693)
(-0.140051 0.247601 0.0173178)
(-0.178769 0.23877 0.00748485)
(-0.223068 0.227786 -0.000454527)
(-0.269131 0.22666 -0.00782307)
(-0.301775 0.23075 -0.0109225)
(-0.254758 0.248264 -0.00266449)
(-0.212797 0.22835 -0.00337277)
(-0.238023 0.209403 0.00786158)
(-0.27368 0.191854 0.0174065)
(-0.321146 0.172778 0.0243688)
(-0.362439 0.149448 0.0205685)
(-0.398785 0.121673 0.0375765)
(-0.431818 0.0867679 0.0450621)
(-0.453685 0.0536079 0.0405915)
(-0.455393 0.0279277 0.0515861)
(-0.448327 0.00441084 0.0402322)
(-0.432593 0.000726723 0.0339984)
(-0.396228 0.0105284 0.0250195)
(-0.351886 0.0570482 0.0038219)
(-0.263392 0.111359 -0.0248318)
(-0.138391 0.148057 -0.0248746)
(-0.0344449 0.138309 -0.0142215)
(0.00605762 0.073046 -0.00139428)
(0.00998662 0.0904539 -0.0113576)
(0.0796116 0.221802 -0.038738)
(0.170587 0.289377 -0.0374309)
(0.219341 0.318054 -0.0188474)
(0.234625 0.340365 -0.00598554)
(0.227207 0.363468 0.000336509)
(0.206284 0.384985 0.00477326)
(0.181628 0.398602 0.0058546)
(0.160365 0.407799 0.0163531)
(0.136966 0.409111 0.0264219)
(0.110168 0.399383 0.0356274)
(0.083565 0.380158 0.0425654)
(0.0507639 0.351688 0.055045)
(0.0205725 0.315116 0.0550511)
(-0.00787716 0.275624 0.0465187)
(-0.0450033 0.249488 0.0315611)
(-0.0838255 0.224551 0.0197583)
(-0.116597 0.209452 0.0114967)
(-0.155226 0.202248 0.00228427)
(-0.197493 0.197843 -0.00235959)
(-0.237241 0.197292 -0.00790439)
(-0.252118 0.209067 -0.00725549)
(-0.214266 0.240268 -0.00275001)
(-0.196069 0.214928 -0.00301737)
(-0.214112 0.18409 0.00431823)
(-0.247347 0.159658 0.0123959)
(-0.291621 0.133376 0.0171199)
(-0.334493 0.110655 0.0295446)
(-0.378572 0.077797 0.0424279)
(-0.416106 0.0466186 0.0463249)
(-0.438745 0.0136868 0.066021)
(-0.46481 -0.024079 0.0470201)
(-0.472465 -0.0655611 0.0355531)
(-0.45477 -0.0865158 0.0148587)
(-0.414855 -0.0739432 0.00443769)
(-0.370301 -0.0249401 0.00957735)
(-0.284663 0.0601763 -0.0024537)
(-0.152434 0.116374 -0.031078)
(-0.0393886 0.130599 -0.0144036)
(0.00648424 0.0739919 -0.00299282)
(0.00884677 0.0976992 -0.0103704)
(0.0781185 0.246469 -0.0408987)
(0.171348 0.31799 -0.0416832)
(0.225924 0.343844 -0.0220165)
(0.251785 0.357606 -0.00360911)
(0.251471 0.367654 0.00646018)
(0.232628 0.379123 0.0124524)
(0.209778 0.387235 0.0161042)
(0.189716 0.392366 0.0188982)
(0.166982 0.386518 0.0230103)
(0.143305 0.371554 0.0288212)
(0.111918 0.346653 0.0394669)
(0.0782177 0.313903 0.0415078)
(0.0419604 0.280097 0.0489068)
(0.0117857 0.242688 0.0436813)
(-0.0207067 0.21263 0.0243564)
(-0.0622405 0.194278 0.0139509)
(-0.0910581 0.182965 0.00676871)
(-0.126555 0.175574 -0.00129925)
(-0.165498 0.171879 -0.00393215)
(-0.191307 0.174795 -0.00513671)
(-0.185185 0.204275 -0.000154991)
(-0.167712 0.217019 -0.00136568)
(-0.177654 0.190412 -0.000705611)
(-0.193779 0.157444 0.00231026)
(-0.216734 0.12142 0.00870716)
(-0.254935 0.0966008 0.01273)
(-0.296526 0.0666087 0.030768)
(-0.340268 0.0393981 0.0388065)
(-0.378381 0.00911488 0.0601157)
(-0.426526 -0.0330716 0.0449929)
(-0.468323 -0.0867565 0.038187)
(-0.486261 -0.130478 0.0247072)
(-0.474488 -0.162805 0.0141283)
(-0.433955 -0.166175 -0.005055)
(-0.372702 -0.124317 -0.00680875)
(-0.290807 -0.0216824 -0.00032008)
(-0.171476 0.0762494 -0.016812)
(-0.0434646 0.117139 -0.0197567)
(0.00721726 0.0748008 -0.00197132)
(0.00751969 0.107129 -0.00919217)
(0.0759874 0.27062 -0.0409325)
(0.16992 0.346754 -0.0433848)
(0.230962 0.370189 -0.0232781)
(0.263194 0.376202 -0.00285916)
(0.268768 0.373823 0.0115735)
(0.258138 0.376426 0.0205254)
(0.240907 0.378476 0.0231722)
(0.221856 0.376216 0.0257193)
(0.19732 0.364074 0.0272262)
(0.169465 0.344201 0.0289087)
(0.137902 0.314162 0.026545)
(0.100907 0.282685 0.0286607)
(0.0628943 0.24642 0.0290035)
(0.0273729 0.22008 0.0312171)
(-0.00332554 0.187322 0.0176754)
(-0.034276 0.171545 0.00804207)
(-0.0642603 0.163876 0.00185429)
(-0.0967597 0.150447 -0.00354558)
(-0.124654 0.15372 -0.00295381)
(-0.12454 0.1706 0.0015391)
(-0.123035 0.188704 0.0026344)
(-0.13363 0.179349 0.00306824)
(-0.153295 0.156093 0.00218733)
(-0.172214 0.129128 0.00314195)
(-0.188228 0.0907393 0.00533208)
(-0.216837 0.0621365 0.0169303)
(-0.253256 0.031726 0.0261481)
(-0.290602 0.0033683 0.0453991)
(-0.343829 -0.0367375 0.0393182)
(-0.399525 -0.0900435 0.0376421)
(-0.44767 -0.142331 0.0281882)
(-0.477939 -0.195307 0.0180165)
(-0.48243 -0.236125 0.00325672)
(-0.44888 -0.255299 -0.0107373)
(-0.383427 -0.223706 -0.0199944)
(-0.292983 -0.134129 -0.0186241)
(-0.177958 0.0130858 0.000706614)
(-0.0535955 0.0928576 -0.0270033)
(0.00654663 0.0752147 -0.00332393)
(0.00533832 0.0885458 -0.00765277)
(0.0704982 0.266177 -0.0397083)
(0.164701 0.34823 -0.0418195)
(0.230504 0.371102 -0.0222394)
(0.269697 0.370999 0.000794708)
(0.28403 0.364031 0.0147751)
(0.280137 0.36256 0.0202405)
(0.262725 0.357233 0.023244)
(0.242091 0.350448 0.0250746)
(0.218142 0.337617 0.025459)
(0.191781 0.317505 0.0247057)
(0.159343 0.290809 0.0210275)
(0.122356 0.257212 0.017201)
(0.0863776 0.224438 0.010957)
(0.0500339 0.197065 0.015471)
(0.0169869 0.173469 0.00767134)
(-0.00772438 0.15798 0.00229943)
(-0.0372699 0.146903 -0.00384923)
(-0.0597928 0.143806 -0.00255325)
(-0.0633165 0.154481 0.000334957)
(-0.0685768 0.164608 0.00348046)
(-0.0836004 0.155361 0.00634844)
(-0.101836 0.141839 0.00648812)
(-0.124189 0.121419 0.00568276)
(-0.148193 0.101636 0.00526785)
(-0.163848 0.0679847 0.00694892)
(-0.183558 0.0332555 0.0159333)
(-0.213235 0.00359028 0.0296664)
(-0.255049 -0.0328487 0.0284751)
(-0.309116 -0.0777754 0.0320801)
(-0.364389 -0.125779 0.0290683)
(-0.416882 -0.182389 0.0253075)
(-0.454726 -0.241255 0.0160732)
(-0.470829 -0.296207 0.0030207)
(-0.449324 -0.328729 -0.0135601)
(-0.390948 -0.318513 -0.0272098)
(-0.287869 -0.238271 -0.0314785)
(-0.176512 -0.085443 -0.0201183)
(-0.0567888 0.049521 -0.0193466)
(0.00860233 0.063937 -0.00887634)
(0.00428096 0.102908 -0.00615863)
(0.0665972 0.286135 -0.0368486)
(0.159587 0.372125 -0.0417191)
(0.231501 0.393328 -0.020769)
(0.280085 0.388379 0.00369364)
(0.30507 0.373695 0.014108)
(0.306248 0.36207 0.0201995)
(0.291551 0.349636 0.0214972)
(0.273962 0.337439 0.0194882)
(0.248486 0.317061 0.016138)
(0.21953 0.290855 0.0129812)
(0.183455 0.260099 0.00820999)
(0.142265 0.230317 0.00466761)
(0.1051 0.201913 0.00143657)
(0.0695814 0.183356 0.00143627)
(0.0421547 0.171356 -0.00120218)
(0.0183403 0.164762 -0.00437918)
(0.000241991 0.159025 -0.00317775)
(-0.00792583 0.163094 -0.000939949)
(-0.0187233 0.159296 0.00191924)
(-0.034606 0.144098 0.00514153)
(-0.0537269 0.12703 0.00837381)
(-0.0729465 0.109543 0.00862237)
(-0.095247 0.0914509 0.00794461)
(-0.12242 0.0737505 0.00879748)
(-0.145522 0.0531278 0.00459975)
(-0.159638 0.0155859 0.00750964)
(-0.184658 -0.0182706 0.0106967)
(-0.222493 -0.0622969 0.0166166)
(-0.269163 -0.106465 0.0186258)
(-0.323063 -0.157932 0.0200539)
(-0.376183 -0.217642 0.0178118)
(-0.418798 -0.282607 0.0120907)
(-0.444558 -0.349351 0.000828337)
(-0.436244 -0.399008 -0.0150372)
(-0.387979 -0.409714 -0.0318802)
(-0.296544 -0.344333 -0.047617)
(-0.182349 -0.18943 -0.0351584)
(-0.0578485 0.00597931 -0.00901974)
(0.00618159 0.0666457 -0.0107229)
(-0.00567887 0.0766807 -0.0151873)
(0.0464543 0.269773 -0.0401951)
(0.141164 0.365708 -0.0463934)
(0.220339 0.388062 -0.0273145)
(0.278276 0.38376 -0.00742473)
(0.311754 0.361568 0.00494478)
(0.32115 0.342779 0.0110932)
(0.307715 0.32471 0.0119177)
(0.285465 0.316267 0.0112792)
(0.257151 0.309148 0.00821596)
(0.229969 0.300722 0.00626866)
(0.200271 0.285477 0.00338922)
(0.166293 0.267679 0.00162464)
(0.136618 0.246847 0.00025307)
(0.109345 0.227407 0.00309886)
(0.0820048 0.2152 -0.00256863)
(0.0602219 0.201601 -0.00872352)
(0.0415494 0.18619 -0.00618319)
(0.0230567 0.171647 -0.00490527)
(0.0025044 0.15024 -0.000703834)
(-0.0146699 0.127136 0.00449027)
(-0.0311204 0.104805 0.0075711)
(-0.0496894 0.0850605 0.0083705)
(-0.0703615 0.0665799 0.00879059)
(-0.093419 0.0486977 0.00460255)
(-0.122487 0.0319332 0.00171866)
(-0.145581 0.00663874 0.00204729)
(-0.168674 -0.0291081 -0.000218812)
(-0.203705 -0.0668468 0.00295358)
(-0.244905 -0.109871 0.0076871)
(-0.292634 -0.159726 0.0116715)
(-0.341205 -0.223773 0.0128579)
(-0.382985 -0.297353 0.00947228)
(-0.411497 -0.377369 0.00028045)
(-0.410457 -0.444969 -0.0136773)
(-0.369846 -0.476496 -0.0321212)
(-0.277492 -0.440229 -0.0549943)
(-0.16426 -0.307322 -0.0572105)
(-0.0440708 -0.0896433 -0.0216759)
(0.00998009 0.0332727 -0.00822837)
(-0.00691321 0.173089 -0.00871442)
(0.0418872 0.384934 -0.0239088)
(0.129589 0.48489 -0.0344479)
(0.210421 0.508371 -0.0145633)
(0.275406 0.497011 -0.00593218)
(0.317024 0.467099 0.0109248)
(0.336738 0.431909 0.0145059)
(0.339039 0.417132 0.0160259)
(0.337032 0.419659 0.010861)
(0.316835 0.417436 0.00505219)
(0.285902 0.406231 -0.000979586)
(0.245863 0.382257 -0.00521311)
(0.201 0.349685 -0.00818553)
(0.159003 0.314891 -0.00765047)
(0.126035 0.278264 -0.0061915)
(0.0998976 0.245043 -0.00244163)
(0.0706861 0.215828 -0.0080336)
(0.0509744 0.188176 -0.00850715)
(0.0377705 0.157739 -0.00626551)
(0.0185923 0.13243 -0.00348111)
(0.00121206 0.11162 0.00130883)
(-0.0151614 0.0870917 0.00598068)
(-0.0307199 0.0665498 0.00723955)
(-0.0503861 0.045614 0.0100724)
(-0.0732163 0.0268957 0.00253817)
(-0.098313 0.00878436 0.00591251)
(-0.122863 -0.00430248 0.00508762)
(-0.147742 -0.0284099 0.00118106)
(-0.175555 -0.0635146 -0.00443585)
(-0.212478 -0.113313 -0.00862788)
(-0.26019 -0.168433 -0.0090651)
(-0.310443 -0.232671 -0.00781785)
(-0.354625 -0.302518 -0.0063078)
(-0.386904 -0.387392 -0.0106211)
(-0.390906 -0.468302 -0.0230475)
(-0.366916 -0.532058 -0.052206)
(-0.301348 -0.523195 -0.0766576)
(-0.194217 -0.397952 -0.0733246)
(-0.0575677 -0.15291 -0.043735)
(0.0101297 0.0365251 -0.0065249)
(-0.0187749 0.256189 -0.0222132)
(0.0170733 0.497545 -0.0442977)
(0.106077 0.607967 -0.0530896)
(0.190154 0.649831 -0.0403705)
(0.260453 0.642813 -0.0294483)
(0.306453 0.616346 -0.0146876)
(0.344234 0.574315 -0.0040529)
(0.371029 0.546513 -0.00314701)
(0.364654 0.525027 -0.00746841)
(0.327447 0.494757 -0.009921)
(0.283379 0.456793 -0.0104133)
(0.236144 0.411822 -0.0107679)
(0.192851 0.362539 -0.00982278)
(0.157467 0.316131 -0.00854584)
(0.127662 0.272088 -0.006559)
(0.103146 0.233199 -0.00395426)
(0.0847439 0.198159 4.06012e-05)
(0.0637665 0.171411 -0.00509016)
(0.0462728 0.143836 -0.00554722)
(0.0342802 0.117604 -0.00380777)
(0.0163076 0.0936899 -0.0015511)
(-0.0012468 0.0741003 0.00329082)
(-0.0168458 0.0488692 0.00640355)
(-0.0353293 0.0302108 0.00728765)
(-0.0532755 0.0117218 0.00609412)
(-0.0722436 -0.00392266 0.00986968)
(-0.0939426 -0.0178963 0.00942234)
(-0.12766 -0.0337588 0.0053442)
(-0.171805 -0.0574314 0.00415258)
(-0.210116 -0.097696 0.00491683)
(-0.243721 -0.148146 0.0027243)
(-0.271614 -0.220633 -0.00296748)
(-0.301716 -0.313353 -0.0135787)
(-0.332078 -0.438716 -0.0235241)
(-0.35028 -0.557011 -0.0337112)
(-0.340386 -0.6645 -0.0548976)
(-0.272828 -0.697247 -0.0800333)
(-0.17535 -0.59073 -0.0890045)
(-0.0567104 -0.308241 -0.0666269)
(0.010799 -0.0163369 -0.0107289)
(-0.000248751 0.221733 0.00183373)
(0.0368094 0.463412 -0.0343265)
(0.108782 0.587749 -0.046052)
(0.190658 0.642593 -0.0415753)
(0.258986 0.645581 -0.0319243)
(0.307722 0.624506 -0.0217833)
(0.344742 0.588375 -0.0141134)
(0.369584 0.54839 -0.00656794)
(0.36572 0.507138 -0.00745314)
(0.330419 0.469432 -0.00667353)
(0.28697 0.430941 -0.00617667)
(0.238761 0.390413 -0.00502719)
(0.194383 0.346438 -0.00451279)
(0.157462 0.304408 -0.00320415)
(0.130083 0.261326 -0.00358642)
(0.110151 0.223106 -0.00161514)
(0.0901787 0.185367 -0.00169018)
(0.0758795 0.153833 0.000655964)
(0.0611403 0.130039 0.000461474)
(0.0431536 0.104247 -0.00324732)
(0.0302707 0.0833778 -0.00101868)
(0.0109379 0.0606427 0.000864216)
(-0.00453294 0.0423528 0.00864911)
(-0.0171622 0.0212911 0.00734433)
(-0.034971 0.00408048 0.00653945)
(-0.0519794 -0.0118529 0.00966573)
(-0.070293 -0.0286161 0.0110559)
(-0.095066 -0.045686 0.00993415)
(-0.132693 -0.0570151 0.00618627)
(-0.17495 -0.071294 0.00483786)
(-0.22557 -0.0985305 0.00461389)
(-0.283305 -0.150178 0.00635685)
(-0.341281 -0.228377 0.00879102)
(-0.366027 -0.34457 0.00653159)
(-0.3585 -0.473004 -0.00224238)
(-0.339859 -0.6137 -0.0157331)
(-0.274953 -0.70236 -0.0329998)
(-0.165003 -0.686298 -0.056648)
(-0.0313094 -0.430653 -0.0559766)
(0.0244644 -0.0667023 -0.000568062)
(-0.000145139 0.239288 0.000467941)
(0.0361918 0.456104 -0.028621)
(0.103415 0.57879 -0.0390451)
(0.179206 0.635044 -0.0367066)
(0.246257 0.640446 -0.0224479)
(0.296267 0.618368 -0.0160473)
(0.3376 0.57989 -0.00679493)
(0.364403 0.539848 -0.00128753)
(0.361449 0.493818 -0.00104507)
(0.328679 0.454765 -0.000428954)
(0.284002 0.413911 -0.000187585)
(0.234758 0.371939 3.59916e-05)
(0.192791 0.329969 -0.000144516)
(0.159312 0.290223 -0.000612754)
(0.132543 0.250759 -0.00082316)
(0.111634 0.211861 0.000131053)
(0.0974334 0.173511 0.00134578)
(0.0875083 0.140256 0.00270406)
(0.0726479 0.113236 0.00268125)
(0.0606341 0.0905583 0.00517165)
(0.0431566 0.0711683 0.00157948)
(0.0263264 0.0523279 0.00124358)
(0.0115571 0.0338091 0.00503532)
(-0.00558054 0.0173561 0.00613699)
(-0.0168462 -0.00394129 0.00727386)
(-0.0322543 -0.0196915 0.00849647)
(-0.049798 -0.0389541 0.0100816)
(-0.0697002 -0.0588522 0.0110129)
(-0.0980428 -0.0771132 0.0113068)
(-0.132619 -0.0950941 0.00981463)
(-0.174734 -0.114519 0.0100508)
(-0.215209 -0.146175 0.00987506)
(-0.268506 -0.184701 0.0100656)
(-0.312449 -0.251215 0.00978276)
(-0.343218 -0.349007 0.00621669)
(-0.358694 -0.491528 0.00106969)
(-0.328108 -0.601765 -0.0116205)
(-0.229234 -0.635582 -0.0341193)
(-0.0585783 -0.427778 -0.0481498)
(0.0270991 -0.0288217 -0.0220796)
(0.00645035 0.211426 0.00041519)
(0.0436998 0.408664 -0.0236628)
(0.103768 0.538511 -0.0325904)
(0.176809 0.599529 -0.0316948)
(0.241712 0.614824 -0.0191746)
(0.291482 0.596148 -0.0119108)
(0.334863 0.560313 -0.002538)
(0.35939 0.517161 0.00209352)
(0.357064 0.467575 0.00285012)
(0.327574 0.425358 0.0030871)
(0.282373 0.383809 0.00365442)
(0.23563 0.345378 0.00405552)
(0.196353 0.308674 0.00342658)
(0.163683 0.272494 0.00297801)
(0.137444 0.23566 0.00218017)
(0.117667 0.199465 0.00261244)
(0.101331 0.164984 0.00361533)
(0.0954428 0.130338 0.00603162)
(0.0877922 0.102718 0.00598878)
(0.0738629 0.0778631 0.00527987)
(0.0618784 0.0621104 0.00585675)
(0.0415329 0.0430324 0.00509305)
(0.0274977 0.0278831 0.00383301)
(0.0122733 0.0109934 0.0032968)
(-0.00357851 -0.00498923 0.00702427)