/*--------------------------------*- C++ -*----------------------------------*\
| =========                 |                                                 |
| \\      /  F ield         | OpenFOAM: The Open Source CFD Toolbox           |
|  \\    /   O peration     | Version:  v1806                                 |
|   \\  /    A nd           | Web:      www.OpenFOAM.com                      |
|    \\/     M anipulation  |                                                 |
\*---------------------------------------------------------------------------*/
FoamFile
{
    version     2.0;
    format      ascii;
    class       vectorField;
    location    "0.0445";
    object      currentcloudofpoints;
}
// * * * * * * * * * * * * * * * * * * * * * * * * * * * * * * * * * * * * * //


2409
(
(0.754229 1.30935 1.00072)
(0.807287 0.83869 0.99973)
(1.22351 1.35656 0.999578)
(0.991243 1.06214 0.741294)
(0.993968 1.06253 1.25954)
(1.08268 1.0931 1.00008)
(0.626111 1.42022 0.999613)
(0.694442 0.67767 1.001)
(1.32493 1.53392 0.999903)
(0.991557 1.06651 0.564727)
(0.984725 1.07113 1.42849)
(1.21332 1.34025 1.08647)
(1.18128 1.29887 1.16163)
(1.12821 1.23862 1.22065)
(1.06171 1.154 1.2628)
(1.21894 1.34979 1.04331)
(1.19862 1.31958 1.1245)
(1.15543 1.26932 1.19051)
(1.09439 1.19955 1.24282)
(1.02868 1.10523 1.26661)
(0.820139 0.847406 1.05143)
(0.852385 0.87714 1.10249)
(0.895273 0.926898 1.15873)
(0.943629 0.991076 1.20972)
(0.813651 0.843636 1.02512)
(0.837842 0.86242 1.07435)
(0.874875 0.901048 1.12949)
(0.921983 0.959183 1.18075)
(0.967127 1.0269 1.23334)
(1.21256 1.3403 0.912692)
(1.17993 1.2986 0.838221)
(1.12673 1.23727 0.780684)
(1.06119 1.15184 0.738495)
(1.21873 1.34956 0.955759)
(1.19742 1.31974 0.875059)
(1.15391 1.26871 0.809805)
(1.09381 1.19721 0.758939)
(1.02605 1.10423 0.734939)
(0.944288 0.990164 0.790241)
(0.895678 0.926052 0.841443)
(0.849352 0.877127 0.895965)
(0.820898 0.848365 0.948082)
(0.966975 1.02633 0.766894)
(0.922318 0.957949 0.818767)
(0.873551 0.900435 0.870213)
(0.836061 0.862884 0.92428)
(0.815469 0.844695 0.974533)
(0.936779 1.11849 1.20898)
(0.864691 1.18467 1.16373)
(0.804522 1.24251 1.10885)
(0.767299 1.28819 1.0715)
(0.967312 1.08835 1.22725)
(0.902656 1.14933 1.18697)
(0.833379 1.21566 1.13138)
(0.784449 1.26418 1.08806)
(0.758526 1.30051 1.03804)
(0.768196 1.28846 0.929826)
(0.803474 1.24381 0.88882)
(0.863459 1.18482 0.835694)
(0.934141 1.11807 0.793454)
(0.759251 1.29986 0.96377)
(0.78466 1.26578 0.91039)
(0.832069 1.21554 0.868319)
(0.900564 1.15014 0.812457)
(0.964736 1.08735 0.775127)
(0.738216 0.946871 0.999847)
(0.691559 1.04676 0.999567)
(0.675212 1.14089 0.999928)
(0.696593 1.23468 0.999691)
(0.777651 0.894771 1.00047)
(0.718528 0.998368 0.99906)
(0.684995 1.09279 0.999925)
(0.683715 1.18722 0.999764)
(0.724232 1.27196 1.00009)
(0.834017 1.36478 1.00195)
(0.928956 1.39678 1.00287)
(1.03237 1.40476 1.0003)
(1.1373 1.39499 0.999399)
(0.793022 1.3357 1.00108)
(0.881153 1.38073 1.00283)
(0.980382 1.39974 1.0015)
(1.08716 1.39873 0.999637)
(1.18147 1.38037 0.999384)
(0.708013 0.691642 1.10874)
(0.731766 0.715175 1.20857)
(0.764734 0.745664 1.28026)
(0.799804 0.788424 1.33231)
(0.844871 0.842105 1.36631)
(0.887515 0.910073 1.40209)
(0.940792 0.988463 1.4241)
(0.698108 0.685104 1.05547)
(0.720924 0.702427 1.16003)
(0.748305 0.732353 1.24662)
(0.783257 0.766057 1.30659)
(0.822661 0.815424 1.3489)
(0.86685 0.874171 1.3825)
(0.916072 0.949469 1.41163)
(0.965383 1.02975 1.42699)
(1.04318 1.14365 1.42936)
(1.11366 1.21456 1.40564)
(1.17703 1.28676 1.37049)
(1.22813 1.35818 1.3237)
(1.27575 1.4221 1.25651)
(1.30275 1.48146 1.17796)
(1.31945 1.52131 1.09189)
(1.01061 1.10862 1.42854)
(1.07881 1.17858 1.41768)
(1.14833 1.24889 1.38664)
(1.20211 1.32264 1.34712)
(1.25327 1.38862 1.29104)
(1.29028 1.45149 1.21684)
(1.31186 1.50204 1.13556)
(1.32274 1.52836 1.04621)
(0.707531 0.689792 0.889953)
(0.732307 0.714917 0.791883)
(0.763662 0.743306 0.717123)
(0.796221 0.787036 0.666048)
(0.840884 0.839863 0.629826)
(0.886178 0.909562 0.59821)
(0.939619 0.987648 0.576127)
(0.700073 0.681494 0.945331)
(0.719402 0.704641 0.839647)
(0.749499 0.728559 0.751798)
(0.78027 0.765807 0.691254)
(0.819456 0.81292 0.649173)
(0.863295 0.873136 0.614181)
(0.915027 0.948872 0.589983)
(0.967261 1.02685 0.56943)
(1.31924 1.5214 0.908124)
(1.30298 1.48198 0.821979)
(1.27577 1.42182 0.743652)
(1.22858 1.35758 0.676346)
(1.1775 1.28699 0.628268)
(1.11353 1.21536 0.594769)
(1.04753 1.14245 0.571322)
(1.3225 1.52834 0.953655)
(1.31187 1.50239 0.8645)
(1.29052 1.45178 0.783079)
(1.25343 1.38795 0.709313)
(1.2027 1.32238 0.652188)
(1.14846 1.24956 0.612529)
(1.07934 1.17878 0.584404)
(1.01881 1.10528 0.567221)
(0.631904 1.41338 1.10101)
(0.648941 1.39432 1.19693)
(0.683801 1.35807 1.28449)
(0.741766 1.30533 1.34774)
(0.801301 1.25203 1.37272)
(0.860807 1.19759 1.39569)
(0.923017 1.14107 1.40482)
(0.628745 1.41801 1.0519)
(0.642165 1.40423 1.1524)
(0.666193 1.37715 1.24403)
(0.71463 1.33107 1.32038)
(0.772467 1.27821 1.36238)
(0.832786 1.22503 1.37877)
(0.888978 1.1693 1.40086)
(0.957149 1.10895 1.41768)
(0.633569 1.41238 0.898137)
(0.645974 1.3959 0.805933)
(0.688126 1.35678 0.715209)
(0.738968 1.30668 0.649861)
(0.80313 1.25172 0.629754)
(0.861092 1.19837 0.610059)
(0.930878 1.13815 0.588551)
(0.632043 1.41618 0.946815)
(0.639726 1.40521 0.849127)
(0.667727 1.37705 0.756729)
(0.714656 1.33159 0.679229)
(0.77243 1.27828 0.637055)
(0.834502 1.22525 0.624478)
(0.890511 1.1683 0.602107)
(0.966659 1.10482 0.570797)
(0.621106 0.754175 1.0008)
(0.572029 0.830843 0.999913)
(0.537229 0.917128 0.999739)
(0.517552 1.01346 1.00003)
(0.515234 1.11453 0.999988)
(0.526136 1.21614 0.999778)
(0.563183 1.31897 0.999622)
(0.65524 0.718656 1.00094)
(0.595287 0.792533 1.00042)
(0.555249 0.873156 0.999566)
(0.525979 0.964274 0.999878)
(0.51597 1.06312 0.999985)
(0.520323 1.16484 0.999862)
(0.542597 1.26711 0.99973)
(0.593824 1.36972 0.99961)
(0.702625 1.50463 0.999344)
(0.784091 1.56566 0.999741)
(0.876846 1.60546 1.00032)
(0.977133 1.62047 1.0007)
(1.06766 1.61531 1.00025)
(1.14781 1.59839 0.999788)
(1.23223 1.57195 0.999938)
(0.66586 1.46451 0.999585)
(0.745499 1.53685 0.999472)
(0.831954 1.58693 0.999967)
(0.929531 1.61372 1.00057)
(1.02472 1.61735 1.00056)
(1.10766 1.60388 0.999891)
(1.18831 1.58425 0.999848)
(1.27825 1.5517 0.999916)
(0.978682 1.07006 0.661201)
(0.991527 1.0682 0.605789)
(0.982215 1.06404 0.702836)
(0.983621 1.06712 1.34014)
(0.988255 1.06215 1.29997)
(0.986677 1.07015 1.38916)
(0.736178 0.769588 0.998466)
(0.76946 0.805472 0.998614)
(0.708289 0.715981 1.00026)
(1.27913 1.43318 0.99971)
(1.24888 1.39347 0.999718)
(1.30778 1.48031 0.999729)
(0.864529 1.50761 1.25764)
(0.875167 1.56773 1.17139)
(0.985191 1.32265 1.39689)
(1.06407 1.58406 1.15734)
(0.735186 1.52373 1.0822)
(1.02425 1.24211 1.42203)
(1.22392 1.54934 1.13619)
(1.14146 1.54309 1.21669)
(0.772405 1.51901 1.17637)
(0.967752 1.56201 1.21459)
(0.954868 1.60106 1.1137)
(0.769 1.42609 1.29458)
(1.04923 1.51466 1.27503)
(1.13903 1.57998 1.13021)
(0.960979 1.47823 1.31359)
(1.18041 1.58456 1.06501)
(1.07502 1.31302 1.40435)
(1.10685 1.59935 1.07312)
(0.690013 1.47171 1.1329)
(0.935799 1.22926 1.40026)
(0.887049 1.31448 1.38383)
(1.0355 1.414 1.35915)
(1.21352 1.48694 1.23944)
(0.843463 1.58293 1.0829)
(0.704559 1.4449 1.21624)
(0.950219 1.39132 1.36798)
(1.1912 1.42418 1.30706)
(1.12667 1.46843 1.30456)
(0.675177 1.47578 1.06278)
(0.983023 1.17173 1.42174)
(1.25631 1.55803 1.05938)
(0.873204 1.42117 1.33926)
(0.813396 1.34459 1.36021)
(1.13559 1.38118 1.35626)
(0.913105 1.60865 1.0497)
(1.0364 1.60921 1.07005)
(1.0289 1.19495 1.42775)
(1.06206 1.22819 1.41961)
(0.981248 1.12266 1.42521)
(1.00833 1.15928 1.43034)
(1.00359 1.20744 1.4214)
(1.09262 1.26351 1.40565)
(1.12479 1.2974 1.38553)
(1.05132 1.27734 1.41415)
(1.15596 1.33343 1.36163)
(1.18131 1.36853 1.33747)
(1.10543 1.3457 1.3801)
(1.2094 1.39028 1.31394)
(1.23404 1.42055 1.27949)
(1.16282 1.40295 1.33232)
(1.24582 1.45238 1.24586)
(1.25623 1.48189 1.20671)
(1.20574 1.45356 1.27336)
(1.26306 1.51476 1.15805)
(1.27047 1.53344 1.11383)
(1.2182 1.51967 1.1902)
(1.28796 1.53986 1.07569)
(1.2914 1.54542 1.02981)
(1.23951 1.55355 1.09782)
(1.24437 1.56485 1.02975)
(0.763167 1.5456 1.04085)
(0.719984 1.51543 1.04237)
(0.705879 1.50085 1.07354)
(0.68966 1.49111 1.03111)
(0.651592 1.44943 1.03362)
(0.862812 1.59417 1.04177)
(0.81678 1.57467 1.04271)
(0.792358 1.55451 1.08446)
(0.946904 1.61427 1.02575)
(0.895896 1.60734 1.02525)
(0.879517 1.59652 1.06633)
(1.05211 1.61126 1.03533)
(1.00851 1.61387 1.03537)
(0.979471 1.60815 1.06105)
(1.12677 1.59743 1.03692)
(1.08728 1.60504 1.03649)
(1.07236 1.60261 1.07208)
(1.20573 1.5776 1.03323)
(1.16376 1.59082 1.03208)
(1.14253 1.59026 1.06953)
(1.21674 1.57023 1.06316)
(0.81909 1.51468 1.21958)
(0.824951 1.544 1.17603)
(0.86966 1.53914 1.21525)
(0.922689 1.5657 1.19402)
(0.916749 1.53631 1.23719)
(0.811204 1.55312 1.13037)
(0.860894 1.57642 1.12703)
(0.916828 1.5864 1.14236)
(0.962833 1.58311 1.16437)
(0.900971 1.59384 1.09864)
(1.00984 1.2838 1.40445)
(1.0329 1.31997 1.40043)
(0.985384 1.23803 1.40626)
(0.961765 1.27711 1.39654)
(1.01171 1.36667 1.38031)
(1.0562 1.36343 1.38236)
(0.935893 1.31964 1.38896)
(0.911034 1.27256 1.39165)
(0.967947 1.3557 1.38287)
(0.919205 1.3527 1.37689)
(0.993832 1.4028 1.36289)
(1.05027 1.59524 1.11391)
(1.08527 1.58989 1.11596)
(1.01291 1.59051 1.13789)
(0.998217 1.6034 1.09343)
(1.09538 1.52543 1.24815)
(1.05754 1.55157 1.21828)
(1.10175 1.56308 1.18772)
(1.10142 1.58004 1.14477)
(1.14064 1.56263 1.17388)
(1.12229 1.58895 1.10138)
(1.01958 1.57169 1.18803)
(1.00999 1.53871 1.24636)
(0.732294 1.49638 1.157)
(0.713305 1.49887 1.1077)
(0.755814 1.52204 1.13105)
(0.683543 1.47398 1.09909)
(0.66191 1.44338 1.11942)
(0.670361 1.43376 1.16727)
(0.653722 1.44554 1.08269)
(0.677088 1.4199 1.20835)
(0.694046 1.40177 1.2539)
(0.698157 1.45907 1.17638)
(0.727087 1.39224 1.29181)
(0.756604 1.36397 1.32651)
(0.736414 1.43691 1.25805)
(0.807571 1.2975 1.36763)
(0.777774 1.32528 1.35401)
(0.793366 1.38392 1.333)
(0.844116 1.28384 1.37554)
(0.873125 1.25714 1.38512)
(0.851222 1.32885 1.37085)
(0.895682 1.21374 1.39846)
(0.928004 1.18585 1.40052)
(0.954542 1.15796 1.41018)
(0.962754 1.202 1.40569)
(0.818552 1.46652 1.27916)
(0.870188 1.46437 1.30234)
(0.82305 1.42345 1.31896)
(0.918453 1.44931 1.32766)
(0.915195 1.49269 1.28785)
(0.772022 1.47427 1.24015)
(0.963902 1.52138 1.2662)
(1.20131 1.56698 1.10124)
(0.843646 1.38258 1.351)
(0.881505 1.36514 1.36467)
(0.913303 1.40606 1.35409)
(0.956349 1.43387 1.34429)
(0.935409 1.60437 1.08154)
(1.18008 1.56398 1.13555)
(1.18215 1.54471 1.17887)
(1.17654 1.51482 1.23248)
(1.15884 1.58073 1.09827)
(1.13453 1.50424 1.26327)
(1.08709 1.49023 1.29106)
(1.17196 1.47548 1.27458)
(0.739731 1.48276 1.19831)
(1.006 1.49724 1.29434)
(0.999982 1.44536 1.33824)
(1.04364 1.46348 1.32115)
(1.08074 1.44057 1.33278)
(1.08604 1.39724 1.35925)
(1.13228 1.4243 1.33271)
(1.15939 1.44577 1.30812)
(0.642483 1.04754 1.32801)
(0.552777 1.13444 1.19407)
(0.590829 0.899363 1.18485)
(0.625623 0.838545 1.19432)
(0.582971 1.17983 1.25446)
(0.706142 1.10665 1.35763)
(0.664018 0.761133 1.1628)
(0.597501 1.33757 1.15518)
(0.849646 1.01152 1.39565)
(0.584959 1.09564 1.26459)
(0.646314 0.887572 1.27677)
(0.556705 1.23468 1.16189)
(0.646601 1.15651 1.328)
(0.784076 0.940101 1.36953)
(0.720222 1.21329 1.35684)
(0.64872 1.2459 1.3115)
(0.684812 0.802115 1.24669)
(0.847269 1.10826 1.39678)
(0.598157 0.818719 1.10498)
(0.526257 1.10999 1.10705)
(0.772536 1.05219 1.37381)
(0.605808 1.28866 1.23543)
(0.784692 1.1632 1.37276)
(0.529752 1.01346 1.09871)
(0.709556 0.914959 1.33373)
(0.724873 0.832385 1.30996)
(0.593011 0.987371 1.25332)
(0.652928 0.961524 1.31954)
(0.768022 0.863349 1.34756)
(0.704516 1.00254 1.35127)
(0.557058 0.979873 1.16004)
(0.554967 1.05425 1.18597)
(0.648944 0.738879 1.07823)
(0.913667 1.06624 1.41025)
(0.549077 0.920809 1.08141)
(0.565236 1.31008 1.07333)
(0.52816 1.1961 1.0706)
(0.628653 0.792618 1.13448)
(0.611655 0.82956 1.15197)
(0.643667 0.801123 1.17892)
(0.656068 0.751398 1.12143)
(0.621258 0.780281 1.09223)
(0.65496 0.820813 1.22106)
(0.675085 0.781777 1.20686)
(0.685385 0.727621 1.13679)
(0.698388 0.738858 1.18611)
(0.677648 0.717049 1.09374)
(0.708526 0.760442 1.22877)
(0.874267 0.961365 1.39954)
(0.903481 1.00141 1.40894)
(0.816437 0.892495 1.3686)
(0.83955 0.923638 1.38387)
(0.81641 0.973662 1.3811)
(0.930344 1.02796 1.4188)
(0.952668 1.07049 1.42163)
(0.883603 1.0385 1.40282)
(0.554713 1.18405 1.18084)
(0.572767 1.20751 1.21395)
(0.569648 1.15712 1.22702)
(0.583471 1.26178 1.2034)
(0.595685 1.23333 1.24912)
(0.615469 1.16857 1.29558)
(0.615704 1.21334 1.28606)
(0.649292 1.20039 1.32083)
(0.585199 1.13729 1.26105)
(0.61485 1.12621 1.29945)
(0.62661 1.26808 1.27763)
(0.572049 1.11505 1.2327)
(0.608418 0.868704 1.19005)
(0.59411 0.859606 1.1466)
(0.572717 0.870751 1.09319)
(0.569394 0.910686 1.13565)
(0.583533 0.825121 1.05275)
(0.606962 0.7862 1.05385)
(0.632975 0.746384 1.03986)
(0.560292 0.876044 1.04059)
(0.577138 1.2855 1.16247)
(0.602831 1.31346 1.19911)
(0.560873 1.27246 1.12081)
(0.582622 1.32415 1.11678)
(0.540067 1.16574 1.13754)
(0.542482 1.21604 1.11907)
(0.544835 1.25278 1.07411)
(0.684403 1.18494 1.34318)
(0.686663 1.229 1.33746)
(0.714206 1.16023 1.35474)
(0.6783 1.13168 1.34453)
(0.645771 1.10224 1.32747)
(0.675374 1.07715 1.34389)
(0.613566 1.07165 1.30048)
(0.8078 0.853059 1.35759)
(0.777141 0.902324 1.35802)
(0.776482 0.995032 1.36951)
(0.809711 1.03128 1.38168)
(0.743767 0.972171 1.35727)
(0.738331 1.02708 1.36214)
(0.747006 0.928477 1.35059)
(0.738105 0.89042 1.3388)
(0.706886 0.958622 1.34104)
(0.731635 1.25853 1.35288)
(0.697198 1.27552 1.33055)
(0.761182 1.23301 1.36365)
(0.793164 1.2076 1.37068)
(0.753463 1.18826 1.36296)
(0.745675 1.13482 1.36316)
(0.668296 1.30021 1.30205)
(0.645623 1.32319 1.26402)
(0.883969 1.12425 1.40143)
(0.854505 1.15327 1.39652)
(0.818539 1.1358 1.3827)
(0.824513 1.18014 1.38175)
(0.917259 1.10401 1.40601)
(0.877139 1.08711 1.40093)
(0.845824 1.06001 1.39369)
(0.81145 1.07947 1.38204)
(0.778986 1.1084 1.37129)
(0.620677 0.894754 1.23308)
(0.637963 0.864517 1.23668)
(0.594361 0.944028 1.22018)
(0.619147 0.937207 1.26661)
(0.551964 0.949785 1.12177)
(0.573895 0.93969 1.17284)
(0.578218 0.985091 1.20896)
(0.666102 0.846359 1.26116)
(0.624398 1.36593 1.17936)
(0.615314 1.3751 1.13017)
(0.599292 1.36166 1.09124)
(0.59389 1.36529 1.03742)
(0.628447 1.34039 1.22114)
(0.704477 1.05461 1.3537)
(0.674702 1.02551 1.34039)
(0.615275 1.01706 1.29569)
(0.590224 1.04126 1.2606)
(0.647656 1.00448 1.32367)
(0.620427 0.97475 1.29105)
(0.679699 0.982431 1.33527)
(0.669033 0.709386 1.03985)
(0.54283 0.918625 1.04045)
(0.530718 0.964965 1.04091)
(0.519774 1.1112 1.05315)
(0.520763 1.06002 1.05351)
(0.522712 1.0122 1.04873)
(0.538776 0.966267 1.09066)
(0.527734 1.06096 1.10408)
(0.526725 1.20574 1.03513)
(0.520927 1.15457 1.03518)
(0.527114 1.15272 1.09004)
(0.563802 1.31455 1.03699)
(0.543769 1.26293 1.03768)
(0.724624 0.77702 1.26458)
(0.76341 0.810781 1.32201)
(0.746072 0.790255 1.29592)
(0.705254 0.818789 1.28009)
(0.784731 0.826237 1.34078)
(0.746866 0.847827 1.3288)
(0.739763 1.08004 1.3642)
(0.684246 0.862201 1.29307)
(0.554651 1.0941 1.19157)
(0.573425 1.07533 1.22852)
(0.577298 1.02106 1.22169)
(0.716958 0.874393 1.32131)
(0.676753 0.90106 1.30801)
(0.648792 0.924038 1.29962)
(0.681537 0.938492 1.32596)
(0.539465 1.08205 1.14978)
(0.539563 1.12272 1.15327)
(0.542911 0.996511 1.13085)
(0.542165 1.03402 1.14477)
(0.556577 1.01682 1.1738)
(0.628422 0.946323 0.710284)
(0.614934 1.15076 0.699591)
(0.625468 0.893783 0.753763)
(0.621244 0.842652 0.814361)
(0.549379 1.191 0.832033)
(0.752119 1.06536 0.632249)
(0.574515 1.28642 0.833424)
(0.837538 1.10373 0.609051)
(0.597991 0.972861 0.750597)
(0.569399 1.12578 0.767832)
(0.735511 0.911879 0.660683)
(0.65276 1.2458 0.685944)
(0.678191 1.09902 0.652937)
(0.604026 1.04365 0.710726)
(0.711482 1.01241 0.650183)
(0.583907 1.21661 0.759399)
(0.76731 1.15664 0.630121)
(0.673839 0.803224 0.760586)
(0.849023 1.01083 0.603701)
(0.658768 0.763141 0.847663)
(0.551427 0.887458 0.932062)
(0.529443 1.09889 0.879174)
(0.533664 0.979841 0.900991)
(0.595853 0.810978 0.908021)
(0.620288 1.30067 0.752329)
(0.564756 1.0263 0.799271)
(0.685524 0.866121 0.696281)
(0.578215 0.916882 0.832579)
(0.709656 1.20614 0.642296)
(0.535446 1.22752 0.92348)
(0.784035 0.955547 0.628623)
(0.648029 0.735867 0.927688)
(0.587612 1.34594 0.902852)
(0.66077 0.978708 0.670742)
(0.658787 1.17582 0.664311)
(0.913822 1.06373 0.586184)
(0.601272 1.00803 0.729186)
(0.61675 0.994874 0.709434)
(0.613884 0.959659 0.729384)
(0.627829 0.920182 0.7312)
(0.612776 0.93319 0.751727)
(0.642577 0.962122 0.688498)
(0.631132 1.01171 0.688327)
(0.654229 0.88006 0.721708)
(0.656431 0.906267 0.702266)
(0.673054 0.922365 0.68394)
(0.800385 1.0379 0.622072)
(0.79667 1.08364 0.623781)
(0.840871 1.0574 0.607732)
(0.75899 1.11108 0.632261)
(0.804711 1.1306 0.623772)
(0.81593 0.981228 0.615823)
(0.76823 1.01052 0.633306)
(0.732083 1.03872 0.64161)
(0.694774 1.05611 0.65321)
(0.716098 1.08256 0.643903)
(0.722396 1.12777 0.64163)
(0.748834 0.984976 0.64335)
(0.922225 1.10095 0.587147)
(0.957683 1.06663 0.570361)
(0.929417 1.02637 0.579807)
(0.580571 1.25184 0.792399)
(0.567691 1.2043 0.792224)
(0.5625 1.23802 0.829596)
(0.60305 1.25809 0.753237)
(0.598295 1.29464 0.789349)
(0.556524 1.2573 0.873737)
(0.543367 1.20954 0.875418)
(0.634023 1.34777 0.774986)
(0.61176 1.34094 0.812706)
(0.580712 1.31631 0.86567)
(0.618797 1.37224 0.847684)
(0.560101 1.28624 0.909379)
(0.871376 1.08333 0.600158)
(0.881462 1.03731 0.597031)
(0.816115 1.17711 0.624739)
(0.848866 1.15125 0.610903)
(0.880216 1.12061 0.600355)
(0.581959 1.00009 0.773979)
(0.586368 1.03584 0.751738)
(0.604321 0.906023 0.791652)
(0.590642 0.945886 0.78964)
(0.572505 0.971638 0.814529)
(0.872748 0.960367 0.601089)
(0.901605 1.00092 0.592086)
(0.836449 0.930547 0.613581)
(0.611062 1.09689 0.704299)
(0.589295 1.08486 0.736735)
(0.59225 1.13851 0.731058)
(0.568796 1.07543 0.781243)
(0.577238 1.17053 0.761251)
(0.560296 1.15865 0.79602)
(0.601292 1.18339 0.725901)
(0.551416 1.11397 0.81749)
(0.540314 1.14492 0.852652)
(0.547042 1.06292 0.834913)
(0.687111 0.996024 0.661417)
(0.723709 0.962127 0.657538)
(0.699156 0.945902 0.667288)
(0.761018 0.934008 0.646766)
(0.788178 0.87791 0.647895)
(0.766589 0.852259 0.665854)
(0.711296 0.889735 0.677501)
(0.742792 0.831151 0.685276)
(0.812993 0.899268 0.629996)
(0.635035 1.19778 0.691302)
(0.620084 1.23152 0.718965)
(0.639004 1.27274 0.715285)
(0.696304 1.27667 0.6666)
(0.672946 1.2994 0.69692)
(0.655826 1.32829 0.730952)
(0.680966 1.22619 0.660363)
(0.725157 1.25564 0.645239)
(0.656148 1.21045 0.673731)
(0.637816 1.16321 0.680829)
(0.68407 1.1911 0.652199)
(0.647678 1.12554 0.673289)
(0.64099 1.07203 0.678856)
(0.671227 1.03943 0.664413)
(0.740386 1.18135 0.637275)
(0.693917 1.15257 0.648792)
(0.669378 1.13738 0.658247)
(0.785694 1.20429 0.632242)
(0.757242 1.22918 0.637164)
(0.648609 0.849392 0.757278)
(0.646945 0.824094 0.786713)
(0.62401 0.868684 0.783431)
(0.638729 0.804136 0.83099)
(0.666841 0.784968 0.802716)
(0.703339 0.760523 0.775305)
(0.71899 0.774937 0.736763)
(0.694983 0.741635 0.819162)
(0.679955 0.834796 0.726006)
(0.724626 0.80867 0.707635)
(0.532821 1.16239 0.898651)
(0.599944 0.879662 0.823643)
(0.625974 0.789043 0.877989)
(0.608866 0.828494 0.860066)
(0.585594 0.86466 0.870129)
(0.610687 1.37939 0.898773)
(0.607658 1.38276 0.950199)
(0.580692 0.818169 0.953445)
(0.606255 0.7809 0.953352)
(0.632854 0.744394 0.964237)
(0.669452 0.706943 0.964127)
(0.620139 0.774761 0.917512)
(0.542976 0.900702 0.965585)
(0.560645 0.856747 0.965153)
(0.572207 0.848683 0.919788)
(0.523165 0.994112 0.950802)
(0.531968 0.945457 0.950501)
(0.541758 0.932973 0.91643)
(0.521185 1.05411 0.940106)
(0.520847 1.10495 0.939892)
(0.531168 1.03895 0.888566)
(0.530098 1.22152 0.961564)
(0.523999 1.17002 0.961611)
(0.547147 1.27259 0.960311)
(0.575778 1.33241 0.949475)
(0.677284 0.713892 0.908524)
(0.682078 0.727903 0.867985)
(0.652898 0.749462 0.886617)
(0.56401 0.902502 0.88128)
(0.556596 0.947612 0.864754)
(0.550368 1.00458 0.847162)
(0.912946 1.57073 0.82026)
(0.841353 1.52084 0.769712)
(1.14823 1.57023 0.844475)
(0.928778 1.39266 0.631136)
(0.706982 1.48813 0.876285)
(1.23386 1.54552 0.865798)
(1.02289 1.25231 0.575906)
(1.026 1.36403 0.61607)
(0.80298 1.55221 0.866706)
(0.927609 1.4991 0.714895)
(0.825244 1.43414 0.684404)
(0.91141 1.60245 0.920547)
(1.02442 1.47705 0.680864)
(0.959507 1.3122 0.603626)
(1.01208 1.55289 0.773262)
(0.936537 1.2318 0.597555)
(1.20578 1.51024 0.78229)
(0.891667 1.29151 0.61453)
(0.741716 1.52994 0.935844)
(1.18522 1.58291 0.933743)
(1.0899 1.60377 0.915798)
(1.10706 1.52461 0.747464)
(1.09981 1.32226 0.606495)
(0.741042 1.46311 0.768272)
(0.81706 1.57805 0.944385)
(1.07354 1.57915 0.828907)
(1.15232 1.37753 0.649647)
(1.09483 1.42597 0.657033)
(0.681787 1.47496 0.937547)
(1.2592 1.5567 0.940691)
(0.989073 1.17118 0.572488)
(0.998337 1.59738 0.864144)
(1.01189 1.61592 0.939869)
(1.18292 1.43787 0.69912)
(0.744703 1.39528 0.697)
(0.836274 1.33666 0.632667)
(1.24583 1.56406 0.970221)
(1.29275 1.54485 0.970131)
(1.28926 1.53925 0.924369)
(0.859143 1.56204 0.840962)
(0.822174 1.5387 0.817227)
(0.878321 1.54687 0.793908)
(0.886474 1.50963 0.740208)
(0.921996 1.53687 0.765376)
(0.913718 1.58577 0.870475)
(0.86156 1.57781 0.891888)
(0.97121 1.52553 0.742528)
(0.965257 1.56277 0.795055)
(0.957531 1.58401 0.841226)
(0.956686 1.59854 0.891476)
(1.0062 1.57759 0.818419)
(0.724422 1.51777 0.966176)
(0.7649 1.54901 0.967838)
(0.655618 1.44855 0.966365)
(0.693695 1.49044 0.968577)
(0.713121 1.50342 0.935908)
(0.801766 1.57254 0.971609)
(0.848543 1.59263 0.972112)
(0.780553 1.55537 0.939733)
(0.895951 1.60488 0.960143)
(0.94613 1.61241 0.960139)
(0.866162 1.59146 0.93157)
(1.04102 1.61562 0.969782)
(0.995273 1.61836 0.970126)
(0.963979 1.6091 0.929351)
(1.07907 1.60847 0.958079)
(1.11849 1.59798 0.956758)
(1.05239 1.60865 0.927587)
(1.16629 1.58968 0.967203)
(1.20821 1.57651 0.966227)
(1.13611 1.5899 0.923325)
(1.22061 1.56866 0.936315)
(0.989673 1.11967 0.565243)
(0.963718 1.1556 0.581382)
(1.01372 1.15828 0.565671)
(0.676597 1.44335 0.838154)
(0.67188 1.4512 0.884007)
(0.695965 1.48154 0.905171)
(0.658779 1.44402 0.916768)
(0.695128 1.4299 0.783211)
(0.723107 1.47798 0.820545)
(0.774179 1.54185 0.899879)
(0.726377 1.50949 0.905637)
(0.756501 1.52208 0.869387)
(0.773431 1.51056 0.815132)
(1.18956 1.55658 0.852528)
(1.17566 1.54158 0.810708)
(1.21933 1.52825 0.823455)
(1.25264 1.49356 0.8037)
(1.26853 1.51344 0.843431)
(1.20863 1.5647 0.898736)
(1.24621 1.55127 0.903218)
(1.16606 1.57579 0.888217)
(1.27589 1.53203 0.887387)
(0.715 1.41019 0.737737)
(0.74264 1.34992 0.670279)
(0.716999 1.37602 0.705109)
(0.74337 1.42958 0.729774)
(0.820138 1.29369 0.631947)
(0.78834 1.32184 0.64113)
(0.7916 1.36545 0.657409)
(0.87669 1.24574 0.614283)
(0.848333 1.27198 0.626293)
(0.865642 1.31345 0.62605)
(0.933106 1.18527 0.596275)
(0.896577 1.21524 0.604177)
(0.912803 1.26201 0.606054)
(0.967355 1.20289 0.58976)
(1.02391 1.41689 0.646619)
(0.977144 1.43455 0.654149)
(0.978175 1.37827 0.624846)
(0.94518 1.3505 0.61688)
(0.994111 1.33864 0.609846)
(0.925298 1.30235 0.609217)
(0.911124 1.34062 0.621206)
(0.883301 1.36519 0.632885)
(0.877974 1.4664 0.697978)
(0.879351 1.41239 0.655756)
(0.928658 1.44594 0.667483)
(0.977429 1.48779 0.696777)
(0.830917 1.38417 0.652408)
(0.791976 1.49246 0.766347)
(0.834493 1.47715 0.723597)
(0.784395 1.44944 0.721925)
(0.995332 1.28428 0.594812)
(1.02975 1.30858 0.598445)
(1.06304 1.28685 0.589203)
(1.06388 1.344 0.610267)
(0.948427 1.27295 0.600776)
(0.985023 1.24431 0.590227)
(1.0056 1.21273 0.576409)
(1.0615 1.2343 0.579033)
(1.10795 1.26876 0.600387)
(1.03031 1.19961 0.570994)
(1.05957 1.39333 0.636578)
(1.06032 1.45102 0.668339)
(1.09631 1.37281 0.63063)
(0.81311 1.56501 0.905203)
(1.01848 1.51373 0.724713)
(0.785082 1.41522 0.689641)
(1.00543 1.60512 0.901957)
(1.0591 1.53624 0.759602)
(1.06742 1.50038 0.712985)
(1.1053 1.47634 0.697506)
(1.08881 1.55081 0.787796)
(1.04339 1.56564 0.800451)
(1.03734 1.58853 0.846034)
(1.14694 1.48207 0.717282)
(1.19779 1.47275 0.739565)
(1.15639 1.5158 0.761091)
(1.22933 1.42664 0.724044)
(1.24252 1.4637 0.764397)
(1.12697 1.54612 0.794888)
(1.13881 1.43158 0.675811)
(1.16738 1.4071 0.674013)
(1.12295 1.40089 0.651647)
(1.20546 1.39591 0.68954)
(1.1906 1.36669 0.665351)
(1.11808 1.58646 0.880294)
(1.08172 1.59164 0.872217)
(1.04603 1.59889 0.888751)
(1.11044 1.57267 0.835604)
(1.12581 1.34946 0.627943)
(1.13864 1.30356 0.619353)
(1.16562 1.33242 0.640296)
(0.865019 1.01655 1.16886)
(0.765793 0.957594 1.07199)
(0.705422 1.08396 1.05285)
(0.859606 1.09554 1.17367)
(0.696978 1.18773 1.05579)
(0.80262 1.07167 1.13645)
(0.82504 0.968288 1.12924)
(0.756676 1.05076 1.0908)
(0.742434 1.14958 1.09351)
(0.918914 1.05386 1.19709)
(0.722535 0.990828 1.03038)
(0.80455 1.15186 1.13461)
(0.744296 1.21752 1.08754)
(0.762808 0.91531 1.03209)
(0.723011 1.25628 1.05111)
(0.736553 1.2838 1.02638)
(0.744045 1.27177 1.0603)
(0.754147 1.25239 1.07854)
(0.773411 1.22888 1.09557)
(0.732275 1.23659 1.07025)
(0.799364 0.960335 1.09803)
(0.7931 1.00785 1.10991)
(0.765071 1.00328 1.08051)
(0.742223 1.0209 1.05794)
(0.733635 1.06716 1.06797)
(0.71924 1.03746 1.03913)
(0.745237 0.974322 1.05009)
(0.765157 0.937054 1.05151)
(0.74339 0.953806 1.03088)
(0.841033 0.923148 1.11538)
(0.813897 0.914378 1.0868)
(0.795979 0.904164 1.06163)
(0.793362 0.881289 1.0416)
(0.726689 1.11545 1.06855)
(0.719538 1.16799 1.07247)
(0.700248 1.13416 1.05103)
(0.684102 1.16573 1.02635)
(0.689941 1.11314 1.02757)
(0.742012 1.18291 1.0887)
(0.720328 1.20264 1.071)
(0.694471 1.21231 1.02951)
(0.70862 1.22175 1.05304)
(0.70832 1.24679 1.02559)
(0.90743 1.00255 1.18104)
(0.93138 1.02222 1.19984)
(0.892764 1.03506 1.18158)
(0.957011 1.05686 1.22133)
(0.891323 1.07419 1.18501)
(0.862798 1.05617 1.17071)
(0.928148 1.08651 1.20165)
(0.899504 1.10676 1.18933)
(0.81591 1.01949 1.13353)
(0.781133 1.06021 1.1122)
(0.751035 1.09989 1.08875)
(0.774497 1.11045 1.11015)
(0.731721 0.969279 1.01485)
(0.710552 1.01974 1.01445)
(0.751761 0.931658 1.01569)
(0.701842 1.06641 1.02489)
(0.882403 0.972089 1.16165)
(0.84588 0.991991 1.14907)
(0.835399 1.04285 1.15418)
(0.862346 0.94572 1.1423)
(0.831653 1.08303 1.15544)
(0.862666 1.13903 1.16923)
(0.802978 1.19716 1.11816)
(0.834728 1.16805 1.14906)
(0.833241 1.12359 1.15526)
(0.772953 1.18352 1.10157)
(0.787909 0.878514 1.01609)
(0.774023 1.14972 1.11004)
(0.803752 1.11178 1.13519)
(0.846443 1.31824 1.09626)
(1.11907 1.36046 1.11171)
(1.07567 1.39201 1.05951)
(1.06142 1.32077 1.151)
(0.978869 1.30237 1.15645)
(1.02366 1.22655 1.20575)
(1.02242 1.36021 1.11947)
(0.980782 1.38908 1.06768)
(0.948996 1.20815 1.19085)
(1.15935 1.38203 1.05443)
(0.937355 1.34636 1.11531)
(0.901025 1.28183 1.1415)
(0.881857 1.37086 1.06327)
(0.810278 1.33911 1.05234)
(0.993503 1.14694 1.23599)
(1.02828 1.39062 1.06257)
(1.04934 1.37721 1.08993)
(1.00237 1.37507 1.09323)
(0.958993 1.36803 1.09271)
(0.980392 1.35373 1.11721)
(1.07123 1.35931 1.11354)
(1.09094 1.34084 1.13194)
(1.04345 1.34068 1.13433)
(1.09855 1.37651 1.08553)
(1.02002 1.311 1.15211)
(1.00156 1.33258 1.13802)
(0.960164 1.32609 1.13521)
(0.788062 1.31331 1.06156)
(0.780776 1.32462 1.02618)
(0.824904 1.28072 1.09952)
(0.805726 1.3019 1.08086)
(0.827305 1.32836 1.07501)
(1.15023 1.33225 1.13453)
(1.16744 1.35443 1.09979)
(1.14004 1.37194 1.08393)
(1.18711 1.36411 1.07008)
(1.19296 1.37321 1.02719)
(1.03893 1.18855 1.23768)
(1.06934 1.23391 1.21694)
(1.08996 1.27904 1.18083)
(1.11948 1.31247 1.1558)
(1.04161 1.27561 1.17329)
(1.02319 1.14717 1.2522)
(0.993979 1.10341 1.24789)
(1.00807 1.18555 1.2225)
(0.90823 1.19574 1.17827)
(0.943381 1.16087 1.2026)
(0.973181 1.17507 1.21052)
(0.966608 1.13135 1.22185)
(0.925043 1.24764 1.1639)
(0.881513 1.23485 1.15032)
(0.987601 1.21404 1.19605)
(0.963156 1.25731 1.16934)
(0.940702 1.29278 1.14914)
(1.00232 1.26341 1.17276)
(0.821296 1.35315 1.02779)
(0.852608 1.26228 1.12164)
(0.87425 1.29986 1.11371)
(0.863684 1.34437 1.08073)
(0.845682 1.35456 1.05673)
(0.908951 1.35716 1.08806)
(0.892319 1.33209 1.1026)
(0.920613 1.31514 1.12673)
(1.14892 1.38916 1.02694)
(1.11894 1.38602 1.05661)
(1.10793 1.39371 1.02979)
(0.857286 1.36929 1.033)
(0.90502 1.38569 1.03397)
(1.00671 1.39814 1.03421)
(0.954724 1.39395 1.03561)
(0.931144 1.37939 1.0648)
(1.05464 1.39911 1.02963)
(0.949928 1.22596 0.814724)
(1.13796 1.35164 0.877417)
(0.921976 1.36501 0.915718)
(1.03433 1.22953 0.789057)
(0.935122 1.31821 0.869223)
(1.0423 1.35964 0.878824)
(0.88266 1.24796 0.85259)
(1.00957 1.29939 0.837429)
(0.844829 1.30792 0.896089)
(1.08314 1.30906 0.832266)
(1.12356 1.38793 0.938576)
(0.993588 1.14972 0.767836)
(1.00783 1.39564 0.943982)
(0.834421 1.35173 0.949814)
(0.805165 1.29761 0.915215)
(0.823615 1.27646 0.8945)
(0.79278 1.33061 0.976413)
(0.800302 1.31974 0.94056)
(0.838819 1.3297 0.920998)
(0.86376 1.27908 0.880349)
(0.842467 1.24601 0.873872)
(0.872278 1.21672 0.844453)
(0.941689 1.16978 0.80126)
(0.9737 1.18628 0.794402)
(0.964865 1.13246 0.782083)
(1.01379 1.18828 0.776853)
(0.993962 1.22489 0.804846)
(0.97347 1.30908 0.855337)
(0.979844 1.26344 0.829017)
(0.943927 1.27555 0.849004)
(1.02279 1.26505 0.817723)
(0.907395 1.20409 0.823945)
(0.917219 1.23674 0.834001)
(0.90977 1.28423 0.864184)
(0.833651 1.35911 0.975631)
(0.890668 1.31251 0.886207)
(0.884249 1.33639 0.906334)
(0.929519 1.34189 0.892675)
(0.87768 1.35771 0.93391)
(0.991829 1.10411 0.754852)
(1.02282 1.14754 0.750817)
(1.04448 1.18834 0.761931)
(1.06567 1.33507 0.858795)
(1.04632 1.30413 0.836037)
(1.02744 1.33104 0.858701)
(1.05788 1.27149 0.81247)
(0.989494 1.33938 0.874218)
(1.11173 1.33103 0.854514)
(1.09107 1.35531 0.880251)
(1.15919 1.32694 0.858444)
(1.13044 1.30648 0.833734)
(1.10096 1.27357 0.807346)
(1.07548 1.23434 0.781627)
(1.08306 1.37508 0.908584)
(1.13078 1.37064 0.908415)