/*--------------------------------*- C++ -*----------------------------------*\
| =========                 |                                                 |
| \\      /  F ield         | OpenFOAM: The Open Source CFD Toolbox           |
|  \\    /   O peration     | Version:  v1806                                 |
|   \\  /    A nd           | Web:      www.OpenFOAM.com                      |
|    \\/     M anipulation  |                                                 |
\*---------------------------------------------------------------------------*/
FoamFile
{
    version     2.0;
    format      ascii;
    class       volVectorField;
    location    "0.13";
    object      U_0;
}
// * * * * * * * * * * * * * * * * * * * * * * * * * * * * * * * * * * * * * //

dimensions      [0 1 -1 0 0 0 0];


internalField   nonuniform List<vector> 
64000
(
(-0.0135233 -0.00981345 -0.0119357)
(0.011435 -0.00938001 -0.0100777)
(0.0137853 -0.000133834 -0.00109786)
(0.0166617 0.000555392 0.000395109)
(0.0155361 0.000210572 0.000754666)
(0.0152029 -0.00106503 0.001174)
(0.0150286 -0.00257245 0.000910657)
(0.0126412 -0.003629 0.00186214)
(0.0120025 -0.0047221 0.00234224)
(0.00694644 -0.00494074 0.00328344)
(0.00330127 -0.00602725 0.00348534)
(-0.00603978 -0.00878326 0.00661298)
(-0.016734 -0.01379 0.00498846)
(-0.0351829 -0.0191081 0.00411519)
(-0.0520854 -0.0208559 0.00371216)
(-0.0806496 -0.021808 0.00240988)
(-0.0926683 -0.00751053 -5.05848e-05)
(-0.128171 -0.0105993 -0.00376196)
(-0.113061 -0.015672 0.00279223)
(-0.160216 -0.0334321 -0.0153889)
(-0.108341 -0.0213565 -0.0137939)
(-0.0383797 -0.0230833 -0.0323232)
(-0.0755183 -0.00360254 -0.0161325)
(-0.0716567 -0.00304862 -0.0327067)
(-0.0975222 0.00371794 -0.0429945)
(-0.0884212 0.0116821 -0.0538238)
(-0.0793851 0.0228342 -0.0584663)
(-0.0439777 0.0348547 -0.0551347)
(-0.0135763 0.0435372 -0.0501317)
(0.0361063 0.0584399 -0.0327332)
(0.086381 0.0450005 -0.0351662)
(0.123012 0.0384667 -0.0243475)
(0.136198 0.0282046 -0.0109274)
(0.133005 0.0133721 -0.00415245)
(0.114905 0.00521207 0.00295421)
(0.0908622 -0.00299758 0.0051042)
(0.0676195 -0.00616158 0.00908736)
(0.0440074 -0.00563834 0.00937612)
(0.0242581 -0.00361032 0.00829516)
(0.0051319 -0.0023394 0.00634991)
(-0.0104667 0.0165164 -0.00861326)
(0.00144464 -0.00552306 -0.00897183)
(0.0126344 0.000251242 -0.00449483)
(0.0210498 0.00194233 -0.00265132)
(0.0249364 0.00424352 -0.00283419)
(0.0258918 0.004741 -0.00253599)
(0.0254184 0.0069203 -0.00404434)
(0.0195979 0.0077868 -0.00340296)
(0.013259 0.0123786 -0.00719296)
(-0.00291866 0.0148318 -0.00480294)
(-0.0240914 0.0192343 -0.00964203)
(-0.058239 0.0256202 -0.000272206)
(-0.0978776 0.0337085 -0.00578223)
(-0.14486 0.0498072 -0.00830795)
(-0.192728 0.0623949 -0.0130623)
(-0.243528 0.0706775 -0.0189399)
(-0.301096 0.0774517 -0.0450331)
(-0.393547 0.0771049 -0.0611671)
(-0.426938 0.0832432 -0.0784226)
(-0.494866 0.085338 -0.0912928)
(-0.414613 0.117122 -0.0823587)
(-0.316869 0.139483 -0.120651)
(-0.340724 0.189181 -0.123157)
(-0.325503 0.20785 -0.138198)
(-0.324004 0.232009 -0.150732)
(-0.281901 0.252901 -0.158996)
(-0.237084 0.274631 -0.16158)
(-0.166044 0.291698 -0.151353)
(-0.0950897 0.301 -0.131068)
(-0.0297084 0.307903 -0.108038)
(0.0382588 0.289436 -0.066275)
(0.112198 0.253514 -0.0465501)
(0.14222 0.203094 -0.0354619)
(0.154892 0.153854 -0.0248644)
(0.146149 0.105568 -0.00973666)
(0.121805 0.0654915 -0.00246167)
(0.0980239 0.0386385 0.00231632)
(0.0693164 0.0243739 0.0031107)
(0.0412799 0.0156241 0.00374052)
(0.0105677 0.00849468 0.00478716)
(-0.00198373 0.0178454 -0.000185903)
(0.00795142 -0.0026495 -0.00486941)
(0.0183608 0.0009066 -0.00539179)
(0.0264732 0.00704435 -0.00573979)
(0.0280806 0.0144237 -0.00738888)
(0.0265015 0.0230272 -0.00823704)
(0.0205045 0.0345596 -0.00985076)
(0.00792014 0.0482435 -0.00936545)
(-0.010039 0.0668909 -0.00379474)
(-0.042231 0.083792 -0.0061027)
(-0.0757529 0.107776 -0.00910185)
(-0.123412 0.135445 -0.01332)
(-0.172731 0.166262 -0.0188483)
(-0.243187 0.193217 -0.0325668)
(-0.32416 0.212664 -0.0379354)
(-0.412704 0.22529 -0.0453651)
(-0.48102 0.230365 -0.0636298)
(-0.557802 0.244977 -0.0827734)
(-0.583022 0.278924 -0.100522)
(-0.637873 0.316927 -0.111577)
(-0.537636 0.351548 -0.0931563)
(-0.411424 0.396844 -0.121922)
(-0.417018 0.452055 -0.114678)
(-0.390451 0.480505 -0.117842)
(-0.38041 0.511652 -0.122872)
(-0.333061 0.531065 -0.123371)
(-0.287415 0.545047 -0.119378)
(-0.220634 0.546702 -0.104885)
(-0.160101 0.538209 -0.0822828)
(-0.0958631 0.516605 -0.0587935)
(-0.0446884 0.4935 -0.0376008)
(0.000456431 0.438119 -0.0243993)
(0.0382103 0.366496 -0.00959058)
(0.0651703 0.293782 -0.00727747)
(0.0712308 0.219655 -0.00727471)
(0.0711098 0.157241 -0.00820934)
(0.0680328 0.11009 -0.00363637)
(0.0545186 0.0767849 -0.00163119)
(0.0377317 0.0508923 0.00150412)
(0.0117341 0.0270262 0.00447921)
(-0.00064756 0.0185582 0.000413334)
(0.00906461 0.00156639 -0.00455594)
(0.0193258 0.00878116 -0.00619926)
(0.0237542 0.0231656 -0.00863673)
(0.0233561 0.0433966 -0.00917219)
(0.0188033 0.0652143 -0.0105658)
(0.00873163 0.0937503 -0.00656105)
(-0.0107399 0.126367 -0.00705359)
(-0.0407606 0.161754 -0.0111097)
(-0.0826536 0.198648 -0.013725)
(-0.126493 0.239236 -0.0195644)
(-0.187861 0.275025 -0.0261452)
(-0.260999 0.303397 -0.0294479)
(-0.343685 0.315507 -0.0304807)
(-0.417374 0.333437 -0.0338758)
(-0.487706 0.35279 -0.0401457)
(-0.54065 0.382339 -0.0569921)
(-0.602692 0.410854 -0.0674419)
(-0.614961 0.458848 -0.0780887)
(-0.661457 0.50759 -0.0747144)
(-0.543398 0.534116 -0.0314191)
(-0.39451 0.572054 -0.0434984)
(-0.391256 0.608074 -0.0290373)
(-0.36388 0.612746 -0.0248217)
(-0.355312 0.625267 -0.0243372)
(-0.317003 0.622687 -0.0210926)
(-0.282831 0.613993 -0.0178155)
(-0.232344 0.591807 -0.0103101)
(-0.188441 0.564559 0.00150679)
(-0.14321 0.529605 0.00876041)
(-0.114779 0.488958 0.0134607)
(-0.0863254 0.44586 0.0118985)
(-0.0624661 0.389481 0.00585122)
(-0.0350849 0.324923 -0.00152646)
(-0.0131097 0.259108 -0.003891)
(0.0061142 0.198359 -0.00487426)
(0.0236043 0.14625 -0.00500199)
(0.0278544 0.112005 -0.00516293)
(0.0274817 0.0763876 -0.000257497)
(0.0105399 0.0395056 0.00384345)
(-0.00102175 0.0206225 -0.000923432)
(0.00994493 0.0134896 -0.00606369)
(0.0243313 0.0303028 -0.0106807)
(0.0316038 0.060807 -0.0104709)
(0.0282116 0.094154 -0.0111652)
(0.0195757 0.136658 -0.0144393)
(0.00483125 0.18425 -0.0108958)
(-0.0240377 0.235372 -0.00814933)
(-0.0619276 0.287897 -0.00920575)
(-0.110677 0.333041 -0.011817)
(-0.164123 0.368326 -0.015388)
(-0.234501 0.387165 -0.018217)
(-0.306377 0.405405 -0.0194664)
(-0.374537 0.423655 -0.0220213)
(-0.430962 0.44958 -0.0235331)
(-0.49045 0.477735 -0.0267984)
(-0.530095 0.507367 -0.0320677)
(-0.573863 0.537975 -0.0306924)
(-0.564956 0.597999 -0.0246896)
(-0.59768 0.646314 -0.0264559)
(-0.477404 0.669742 0.0209115)
(-0.321058 0.68437 0.0200645)
(-0.31788 0.688665 0.0389301)
(-0.299793 0.65633 0.0399829)
(-0.305128 0.640978 0.0392923)
(-0.286078 0.612369 0.0426976)
(-0.271884 0.581047 0.0458382)
(-0.239771 0.541334 0.0511507)
(-0.215995 0.499777 0.044349)
(-0.189468 0.458198 0.0351364)
(-0.169961 0.413112 0.0245054)
(-0.156664 0.37961 0.0151827)
(-0.147855 0.343597 0.00887931)
(-0.125485 0.312546 -0.00189642)
(-0.100863 0.271085 -0.00925206)
(-0.0692847 0.206873 -0.0110964)
(-0.0263674 0.15927 -0.00968249)
(-0.000943682 0.129417 -0.00924398)
(0.0124732 0.0947103 -0.00181407)
(0.00875884 0.0467115 0.00362787)
(0.000835906 0.0279987 -0.00217451)
(0.016398 0.0340867 -0.00942756)
(0.0371753 0.0662331 -0.0113822)
(0.041465 0.115768 -0.0122567)
(0.0377797 0.167391 -0.0182766)
(0.0303704 0.226231 -0.017401)
(0.0114288 0.292781 -0.0116454)
(-0.0194587 0.347592 -0.00545725)
(-0.0684279 0.391527 -0.00726188)
(-0.132853 0.420343 -0.00989966)
(-0.199716 0.442822 -0.0126068)
(-0.263292 0.460379 -0.0127445)
(-0.315827 0.483575 -0.0113223)
(-0.367311 0.507927 -0.00826423)
(-0.405017 0.53229 -0.00318277)
(-0.446487 0.556054 0.000448363)
(-0.464583 0.584548 0.00285007)
(-0.478199 0.614933 0.0058869)
(-0.460954 0.668886 0.00360524)
(-0.482725 0.708299 0.0120029)
(-0.366102 0.716059 0.0558526)
(-0.232059 0.684367 0.0587538)
(-0.247848 0.656844 0.078382)
(-0.249836 0.591959 0.0834027)
(-0.267609 0.556281 0.0832952)
(-0.267894 0.513005 0.0806677)
(-0.269091 0.474184 0.0773678)
(-0.257063 0.432015 0.0689197)
(-0.245057 0.387411 0.06353)
(-0.232449 0.348097 0.0439694)
(-0.223663 0.306791 0.0308503)
(-0.207893 0.273977 0.017641)
(-0.194022 0.250773 0.00392084)
(-0.176217 0.239576 -0.00360253)
(-0.175406 0.225026 -0.0154591)
(-0.143023 0.184958 -0.0124259)
(-0.0687313 0.150939 -0.0106416)
(-0.0218206 0.127751 -0.00940294)
(0.00396638 0.0985584 -0.00361366)
(0.00553144 0.0464628 0.00502863)
(0.00349482 0.0360378 -0.00327311)
(0.0290749 0.0535049 -0.0120151)
(0.0625745 0.0941936 -0.0146498)
(0.0735861 0.153444 -0.0172182)
(0.0654393 0.217747 -0.0245508)
(0.0574697 0.287387 -0.0208312)
(0.027725 0.352786 -0.0123928)
(-0.0295073 0.385495 -0.00263649)
(-0.091928 0.417632 -0.00700877)
(-0.15043 0.44411 -0.00791921)
(-0.196288 0.474402 -0.00806945)
(-0.242175 0.505987 -0.00600501)
(-0.280933 0.536427 -0.00222886)
(-0.318355 0.562154 0.00202526)
(-0.34487 0.587588 0.00750688)
(-0.368389 0.606226 0.012463)
(-0.368843 0.630544 0.0212667)
(-0.374413 0.640304 0.0244006)
(-0.341194 0.657698 0.0260154)
(-0.354845 0.673256 0.0197336)
(-0.291856 0.669173 0.0544643)
(-0.180392 0.571974 0.0615637)
(-0.196799 0.537946 0.0767073)
(-0.213004 0.469223 0.0829365)
(-0.241557 0.437687 0.08158)
(-0.258926 0.400578 0.079757)
(-0.275592 0.372433 0.075769)
(-0.280698 0.340545 0.0656435)
(-0.282876 0.30816 0.0496356)
(-0.282333 0.27482 0.0318032)
(-0.280219 0.243579 0.0156684)
(-0.268439 0.216534 0.00192814)
(-0.251224 0.1962 -0.00620676)
(-0.224901 0.184072 -0.0105561)
(-0.218149 0.185569 -0.0158026)
(-0.187033 0.178539 -0.0178264)
(-0.102918 0.154536 -0.0163218)
(-0.0358109 0.133418 -0.0134183)
(-0.00015875 0.104281 -0.00675711)
(0.00609751 0.0496269 0.00355889)
(0.00508257 0.0470195 -0.00531908)
(0.0366646 0.0743024 -0.0160324)
(0.0810443 0.120238 -0.0165974)
(0.0970596 0.177932 -0.0141292)
(0.0948774 0.238489 -0.017105)
(0.0786854 0.312989 -0.0115625)
(0.0238888 0.345676 -0.0017166)
(-0.0320183 0.378342 -0.000297646)
(-0.0751293 0.421697 -0.00249237)
(-0.122366 0.461365 -0.00161941)
(-0.162572 0.496959 -0.00105265)
(-0.200496 0.525262 0.00377508)
(-0.229061 0.547934 0.00939034)
(-0.252578 0.564682 0.0162882)
(-0.265906 0.579271 0.020495)
(-0.279907 0.583272 0.0261349)
(-0.278432 0.587063 0.0302075)
(-0.280742 0.570539 0.0306613)
(-0.255915 0.566487 0.0280851)
(-0.262103 0.529865 0.0138591)
(-0.248803 0.536725 0.0315729)
(-0.165037 0.417615 0.0439727)
(-0.164813 0.395933 0.052072)
(-0.194827 0.346107 0.0633845)
(-0.228476 0.327671 0.0647583)
(-0.259924 0.303781 0.0665511)
(-0.285873 0.287351 0.0662803)
(-0.304034 0.265353 0.0555806)
(-0.318557 0.243984 0.0416793)
(-0.326854 0.217149 0.0168212)
(-0.328178 0.190667 0.00683774)
(-0.314689 0.169372 -0.00469721)
(-0.297738 0.156152 -0.014022)
(-0.264899 0.149323 -0.0156331)
(-0.253818 0.154386 -0.0202013)
(-0.225801 0.175329 -0.0180816)
(-0.137975 0.155335 -0.0173744)
(-0.0533646 0.138313 -0.0120944)
(-0.00333819 0.107257 -0.00680983)
(0.00603248 0.0498921 0.0045503)
(0.00399062 0.0649524 -0.00732893)
(0.0437528 0.105487 -0.018903)
(0.100673 0.160478 -0.0196666)
(0.123606 0.215929 -0.0139302)
(0.129147 0.278337 -0.0160561)
(0.0923337 0.333822 -0.0110834)
(0.0321312 0.360772 -0.00108444)
(-0.00404464 0.40206 0.00395789)
(-0.0447896 0.43985 0.00321243)
(-0.0871912 0.478236 0.00583127)
(-0.121057 0.502152 0.00919336)
(-0.151035 0.517625 0.0133062)
(-0.16997 0.527836 0.0216462)
(-0.185738 0.527443 0.0261372)
(-0.19676 0.519106 0.0288247)
(-0.206618 0.498883 0.0299772)
(-0.208552 0.478835 0.0295254)
(-0.212614 0.443376 0.0256782)
(-0.210453 0.422098 0.0189867)
(-0.209542 0.368613 0.00571948)
(-0.231511 0.376877 0.00318272)
(-0.178754 0.292103 0.0234944)
(-0.148541 0.277926 0.0271101)
(-0.18747 0.254382 0.041678)
(-0.223049 0.247396 0.0470481)
(-0.263383 0.234824 0.0539658)
(-0.296865 0.22565 0.0569408)
(-0.324898 0.211239 0.0484922)
(-0.349329 0.194599 0.0307154)
(-0.365148 0.169759 0.0128124)
(-0.36714 0.150155 0.00254055)
(-0.355166 0.131936 0.000533429)
(-0.337849 0.118928 -0.00620474)
(-0.304549 0.120775 -0.0164145)
(-0.271227 0.125719 -0.0246937)
(-0.247467 0.160692 -0.0260582)
(-0.171002 0.157821 -0.0199956)
(-0.0674301 0.145578 -0.0185361)
(-0.00735886 0.112528 -0.00883827)
(0.00768529 0.0530472 0.00277145)
(0.00299327 0.084726 -0.00868145)
(0.0511085 0.1454 -0.0222693)
(0.119412 0.205947 -0.0229808)
(0.150956 0.259119 -0.0156963)
(0.151329 0.31747 -0.0161473)
(0.108449 0.347296 -0.0102001)
(0.0531848 0.388244 -0.000546631)
(0.0200662 0.422159 0.00918475)
(-0.00953248 0.448536 0.012637)
(-0.0447693 0.471701 0.0171177)
(-0.0792553 0.489532 0.0175518)
(-0.104262 0.493704 0.0270828)
(-0.121421 0.4857 0.0322541)
(-0.137179 0.461838 0.036621)
(-0.148294 0.43126 0.0365217)
(-0.160132 0.391582 0.0338675)
(-0.169127 0.354047 0.0285455)
(-0.175953 0.30984 0.0221351)
(-0.186099 0.280792 0.0126986)
(-0.183534 0.241018 0.00335345)
(-0.215736 0.238178 -0.00962341)
(-0.181812 0.206348 0.00920396)
(-0.137462 0.198734 0.0121494)
(-0.177837 0.191669 0.0272871)
(-0.212923 0.188183 0.0368346)
(-0.259417 0.182279 0.0475431)
(-0.296016 0.175248 0.0530798)
(-0.331946 0.165004 0.0432756)
(-0.36328 0.147969 0.0321265)
(-0.37971 0.128162 0.0241873)
(-0.388587 0.10581 0.021619)
(-0.383191 0.0862013 0.0210341)
(-0.364546 0.07001 0.0165223)
(-0.332725 0.0715041 0.00837378)
(-0.297357 0.0816255 -0.00575919)
(-0.267652 0.121505 -0.0232462)
(-0.194516 0.146285 -0.0203268)
(-0.0894042 0.140909 -0.0148915)
(-0.0129375 0.115841 -0.00797883)
(0.00864229 0.054013 0.00391489)
(0.00393444 0.108827 -0.00978291)
(0.0600696 0.19213 -0.0278715)
(0.138242 0.254754 -0.0274489)
(0.177006 0.30639 -0.0177507)
(0.169804 0.348025 -0.0130806)
(0.128482 0.372736 -0.0113986)
(0.0864107 0.409847 -0.000852454)
(0.0505529 0.438196 0.0116315)
(0.0209707 0.456246 0.0208916)
(-0.00891029 0.464685 0.0244148)
(-0.0375656 0.465016 0.0299902)
(-0.0644448 0.457353 0.0370445)
(-0.0856583 0.434692 0.040804)
(-0.103998 0.395888 0.0422575)
(-0.119137 0.349667 0.0408015)
(-0.133265 0.300222 0.0350739)
(-0.14708 0.257891 0.0264241)
(-0.15695 0.217546 0.0177532)
(-0.171388 0.190171 0.00754856)
(-0.171673 0.167383 -0.00188673)
(-0.201623 0.157751 -0.0144067)
(-0.169155 0.153502 0.00126821)
(-0.123934 0.150547 0.00462022)
(-0.163211 0.145844 0.019396)
(-0.195566 0.141754 0.0319116)
(-0.243183 0.134641 0.0433271)
(-0.284097 0.130453 0.0481732)
(-0.322609 0.118684 0.0424619)
(-0.357441 0.104147 0.0434634)
(-0.386093 0.0815117 0.0448437)
(-0.403581 0.0569463 0.045046)
(-0.407563 0.0388724 0.0321244)
(-0.393142 0.0280358 0.0296198)
(-0.360656 0.0261695 0.0191864)
(-0.309217 0.0394313 0.00699436)
(-0.274033 0.0745984 -0.0115922)
(-0.211596 0.118607 -0.0225542)
(-0.101329 0.132203 -0.0161547)
(-0.0147929 0.11214 -0.00837239)
(0.00874675 0.0534999 0.0031003)
(0.00514654 0.131549 -0.00971424)
(0.0663355 0.234619 -0.0306055)
(0.154257 0.301006 -0.0296824)
(0.1937 0.344348 -0.0158511)
(0.184637 0.371004 -0.00943188)
(0.151488 0.396919 -0.00776209)
(0.115266 0.421474 0.00226114)
(0.0804295 0.441175 0.0117595)
(0.0497811 0.450879 0.0187293)
(0.0199036 0.448535 0.0320871)
(-0.00627804 0.436786 0.0390374)
(-0.0338191 0.412637 0.04265)
(-0.061415 0.379124 0.0447528)
(-0.0846965 0.33098 0.0442143)
(-0.103206 0.280261 0.0396174)
(-0.11834 0.228386 0.0330891)
(-0.132909 0.187526 0.0223742)
(-0.143089 0.153929 0.0132961)
(-0.156451 0.131602 0.0037545)
(-0.159238 0.120724 -0.00506174)
(-0.183503 0.110101 -0.0144177)
(-0.146334 0.118292 -0.00156782)
(-0.104741 0.111571 0.00102509)
(-0.138068 0.103859 0.0154096)
(-0.16781 0.095788 0.0281695)
(-0.213449 0.0879241 0.0397016)
(-0.251859 0.0815736 0.0432543)
(-0.29382 0.0691434 0.0514803)
(-0.335474 0.0534301 0.0588758)
(-0.369242 0.0337424 0.0647683)
(-0.390728 0.0098399 0.0649373)
(-0.400408 -0.0171067 0.0576595)
(-0.403502 -0.0363183 0.0331605)
(-0.383683 -0.0372215 0.025378)
(-0.344508 -0.0241986 0.0222753)
(-0.298816 0.0167286 0.0150315)
(-0.224611 0.07775 -0.0143557)
(-0.120476 0.115429 -0.0183766)
(-0.021971 0.108339 -0.00798948)
(0.0114384 0.0536921 0.0026029)
(0.00542904 0.153002 -0.00734335)
(0.0724033 0.276271 -0.0309659)
(0.164588 0.344507 -0.0300361)
(0.2056 0.375419 -0.0134605)
(0.203148 0.395076 -0.0031047)
(0.174135 0.416762 0.00120893)
(0.140661 0.431263 0.0049077)
(0.107891 0.439911 0.0145764)
(0.0759764 0.442244 0.0231162)
(0.046003 0.432807 0.0325248)
(0.0166731 0.409919 0.0450362)
(-0.0125794 0.372744 0.0471835)
(-0.0428085 0.32927 0.0451574)
(-0.0725518 0.276852 0.0415858)
(-0.0942144 0.2238 0.0358122)
(-0.109398 0.174531 0.0281978)
(-0.122716 0.135448 0.0175695)
(-0.131207 0.10692 0.00881062)
(-0.139399 0.0878952 0.00128806)
(-0.142156 0.0806799 -0.00692459)
(-0.155095 0.0701721 -0.0112284)
(-0.113044 0.0881639 -0.00251758)
(-0.079796 0.0719542 -0.000343769)
(-0.106809 0.0593202 0.0121676)
(-0.130466 0.0456024 0.0235359)
(-0.172124 0.0397582 0.0325175)
(-0.210518 0.0330289 0.0490606)
(-0.252042 0.0220909 0.0609929)
(-0.292511 0.00411917 0.069941)
(-0.337326 -0.0209541 0.0708123)
(-0.382734 -0.0536379 0.0620968)
(-0.417778 -0.0886263 0.0506242)
(-0.421916 -0.120716 0.0361728)
(-0.405686 -0.134599 0.0112054)
(-0.358084 -0.120295 -7.82308e-05)
(-0.306609 -0.0728211 0.00223076)
(-0.238121 0.0161298 0.0104389)
(-0.129059 0.072782 -0.0185668)
(-0.0253267 0.0908452 -0.00581734)
(0.0106358 0.0463489 0.00319527)
(0.00607308 0.164227 -0.00485529)
(0.0731988 0.304951 -0.0310241)
(0.165232 0.374084 -0.0307367)
(0.210428 0.398409 -0.0126824)
(0.21876 0.410904 0.00268434)
(0.195545 0.423801 0.0103619)
(0.159447 0.431811 0.015082)
(0.128609 0.433295 0.0176284)
(0.0988092 0.428839 0.0267047)
(0.0648437 0.411338 0.0346096)
(0.0315321 0.381066 0.0424095)
(-0.0008181 0.335927 0.0496523)
(-0.034115 0.284438 0.0424743)
(-0.066502 0.228709 0.0358152)
(-0.0906579 0.177593 0.0294456)
(-0.104957 0.131105 0.022133)
(-0.11404 0.0946811 0.0127553)
(-0.117767 0.0679289 0.00536244)
(-0.119644 0.0490261 -0.000541027)
(-0.118927 0.0403726 -0.00639129)
(-0.112809 0.0311014 -0.00656193)
(-0.0716829 0.0497094 -0.00291339)
(-0.0543621 0.0236594 -0.00120807)
(-0.0711592 0.0114476 0.00982556)
(-0.0857872 -0.00169622 0.0175335)
(-0.11665 -0.0118483 0.0320984)
(-0.151145 -0.0222243 0.0454707)
(-0.19608 -0.0379813 0.0565903)
(-0.249536 -0.0601212 0.0618087)
(-0.30547 -0.0916268 0.0605124)
(-0.360392 -0.123786 0.054176)
(-0.402005 -0.156929 0.0433528)
(-0.42528 -0.186907 0.0274027)
(-0.416442 -0.209333 0.0146901)
(-0.380243 -0.205643 -0.0083318)
(-0.314847 -0.167716 -0.00707926)
(-0.248077 -0.074085 -0.00590328)
(-0.151929 0.0394536 -0.00264653)
(-0.0290958 0.0723494 -0.0163503)
(0.0134713 0.0445847 0.00321406)
(0.00632298 0.173824 -8.6102e-05)
(0.0731265 0.327359 -0.0287816)
(0.163692 0.399476 -0.0311542)
(0.21427 0.421112 -0.0117439)
(0.231891 0.425646 0.00827041)
(0.213373 0.426913 0.0213197)
(0.180355 0.429426 0.027767)
(0.14916 0.428252 0.03037)
(0.115326 0.417309 0.0319996)
(0.0795649 0.393904 0.0332186)
(0.0417498 0.358018 0.0397181)
(0.00510726 0.30883 0.0441746)
(-0.0304448 0.251552 0.0386717)
(-0.0628237 0.192797 0.0284486)
(-0.086467 0.140273 0.0212035)
(-0.100791 0.0963335 0.0160252)
(-0.105389 0.0609231 0.00844308)
(-0.104902 0.0336474 0.00265098)
(-0.0989963 0.0147487 -0.00093881)
(-0.0904727 1.0384e-05 -0.00439648)
(-0.0670203 -0.00661687 -0.00153277)
(-0.0336827 -0.00695912 -0.00281995)
(-0.0244846 -0.0351081 2.9437e-05)
(-0.0272695 -0.048274 0.00456551)
(-0.0410518 -0.0663257 0.0130604)
(-0.0706472 -0.077505 0.0283414)
(-0.103799 -0.0935809 0.041647)
(-0.147181 -0.113229 0.0487911)
(-0.197456 -0.133847 0.0528736)
(-0.255664 -0.156947 0.0519737)
(-0.315181 -0.185163 0.0475119)
(-0.370879 -0.219512 0.0382382)
(-0.408557 -0.255277 0.0255396)
(-0.419727 -0.28421 0.00837905)
(-0.389928 -0.295798 -0.00868636)
(-0.328974 -0.261475 -0.0211955)
(-0.238066 -0.184944 -0.015246)
(-0.149118 -0.0355741 -0.00022168)
(-0.0479526 0.0416189 -0.00706656)
(0.0121903 0.0334739 0.000825805)
(0.00384329 0.160832 0.000324976)
(0.0659529 0.325914 -0.0285397)
(0.155985 0.404174 -0.0306763)
(0.211261 0.427448 -0.0112914)
(0.237176 0.428063 0.0116433)
(0.22898 0.424324 0.0252352)
(0.201099 0.42307 0.0333638)
(0.167074 0.41398 0.0377046)
(0.129336 0.396991 0.0374619)
(0.0885915 0.368407 0.0345578)
(0.0462554 0.326061 0.031271)
(0.00425973 0.27379 0.0320439)
(-0.0352314 0.211939 0.0254833)
(-0.0680541 0.153579 0.0181546)
(-0.0876701 0.103146 0.012656)
(-0.0971916 0.0619598 0.00863544)
(-0.0981019 0.0290505 0.00396422)
(-0.088941 0.00374918 -0.000201598)
(-0.0784997 -0.0224054 -0.00400818)
(-0.0603262 -0.0451725 -0.0033429)
(-0.0319389 -0.0553434 -0.00280776)
(-0.0079498 -0.078244 -0.00374049)
(0.00314975 -0.100043 -0.000909521)
(0.00323736 -0.119441 0.00386016)
(-0.00283436 -0.138352 0.0130324)
(-0.0223537 -0.151737 0.0204466)
(-0.0541763 -0.163467 0.0287396)
(-0.0914867 -0.176452 0.0376696)
(-0.137837 -0.193519 0.0420359)
(-0.193787 -0.214671 0.0447214)
(-0.256353 -0.240663 0.0430664)
(-0.318698 -0.275324 0.0380488)
(-0.369863 -0.31483 0.0265354)
(-0.399153 -0.354987 0.011207)
(-0.38953 -0.376266 -0.00835233)
(-0.343329 -0.36437 -0.0238279)
(-0.252752 -0.285952 -0.02833)
(-0.1576 -0.149567 -0.0139765)
(-0.0507674 0.00421181 -0.0124033)
(0.0100458 0.0213717 0.00295104)
(0.00604052 0.150436 0.00777083)
(0.0664253 0.323465 -0.0199206)
(0.153253 0.407332 -0.0239961)
(0.214199 0.428471 -0.00332525)
(0.25026 0.425231 0.0197456)
(0.250753 0.416381 0.0294472)
(0.222951 0.407976 0.0380582)
(0.184591 0.393509 0.0406338)
(0.141031 0.374633 0.0395623)
(0.0936043 0.344209 0.0340097)
(0.0458246 0.302809 0.0277121)
(-0.000846073 0.245771 0.0237608)
(-0.0403004 0.182899 0.0168385)
(-0.0667516 0.126989 0.0102086)
(-0.0829352 0.0789721 0.00416827)
(-0.0890206 0.0370895 0.00106678)
(-0.0840947 0.00249707 -0.0021604)
(-0.0783558 -0.0322008 -0.00646313)
(-0.0672497 -0.0649453 -0.00416527)
(-0.0382306 -0.0938863 -0.00199773)
(-0.0113985 -0.119082 -0.00504296)
(0.0131463 -0.146514 -0.00532786)
(0.0297202 -0.167082 -0.000997945)
(0.0330822 -0.186082 0.00236649)
(0.030267 -0.200352 0.00671071)
(0.0162536 -0.214494 0.0123096)
(-0.00584692 -0.222898 0.018628)
(-0.0416563 -0.232343 0.0239025)
(-0.0853734 -0.242108 0.0320824)
(-0.134682 -0.260924 0.0363786)
(-0.194841 -0.285858 0.0388138)
(-0.259394 -0.321111 0.0365316)
(-0.318272 -0.363419 0.0291256)
(-0.360682 -0.413203 0.0151833)
(-0.369645 -0.449007 -0.00339973)
(-0.338152 -0.4529 -0.0205316)
(-0.258637 -0.392855 -0.0309329)
(-0.149161 -0.255796 -0.0247863)
(-0.0456293 -0.0681262 0.002108)
(-4.90252e-05 0.00590077 0.00387167)
(-0.00195952 0.126781 0.00126954)
(0.0488694 0.304824 -0.0234501)
(0.135288 0.396468 -0.0292485)
(0.205124 0.423835 -0.0062534)
(0.255807 0.421552 0.00991132)
(0.268638 0.406711 0.0259421)
(0.247261 0.390482 0.033597)
(0.207467 0.371206 0.0342072)
(0.159274 0.34831 0.0301685)
(0.105092 0.316611 0.0237983)
(0.0456053 0.269105 0.0174377)
(-0.0114437 0.210536 0.0180497)
(-0.0490864 0.153092 0.00905088)
(-0.0720168 0.0990199 -0.00136518)
(-0.0853493 0.0505609 -0.00743676)
(-0.0886072 0.00870041 -0.0103269)
(-0.0861351 -0.0311469 -0.0119747)
(-0.0752941 -0.0716232 -0.00859301)
(-0.0576466 -0.102483 -0.00418827)
(-0.0301159 -0.139271 -0.00394679)
(0.00111606 -0.172505 -0.00832176)
(0.0308771 -0.20152 -0.00504876)
(0.05091 -0.225358 -0.00146917)
(0.0589497 -0.24349 0.00116001)
(0.0614235 -0.259372 0.00327832)
(0.0542156 -0.273159 0.00587413)
(0.0368401 -0.280975 0.00867528)
(0.0110048 -0.289713 0.0135061)
(-0.026898 -0.294599 0.0172633)
(-0.0771663 -0.308238 0.024041)
(-0.132639 -0.324871 0.0305943)
(-0.194179 -0.357864 0.0326154)
(-0.257849 -0.40271 0.0283876)
(-0.310844 -0.461889 0.0176108)
(-0.333797 -0.517085 -0.00210776)
(-0.325656 -0.549943 -0.0224404)
(-0.268971 -0.508703 -0.0381249)
(-0.168233 -0.371758 -0.0336057)
(-0.0446576 -0.165503 -0.011233)
(0.0111961 -0.0233004 0.000121024)
(-0.0047565 0.129458 0.00858701)
(0.0376548 0.320769 -0.0088302)
(0.121687 0.418414 -0.015206)
(0.197428 0.442896 -0.000512662)
(0.257182 0.433913 0.0090653)
(0.277775 0.406802 0.0246024)
(0.261331 0.387605 0.0318363)
(0.221132 0.377568 0.0327094)
(0.16846 0.36481 0.0284423)
(0.102713 0.33752 0.0218352)
(0.0339556 0.289345 0.018997)
(-0.0190131 0.236315 0.0212853)
(-0.053743 0.183445 0.0108945)
(-0.0750321 0.125348 -0.0024972)
(-0.0844156 0.0711827 -0.0110744)
(-0.0865032 0.0138901 -0.0166585)
(-0.0833197 -0.0368828 -0.0173513)
(-0.0694099 -0.083028 -0.0133331)
(-0.0538777 -0.125504 -0.00891428)
(-0.0268238 -0.165752 -0.0123651)
(0.00731781 -0.19896 -0.0105683)
(0.0402132 -0.232899 -0.00570917)
(0.0671369 -0.264313 -0.00339938)
(0.0792028 -0.291521 -0.00265309)
(0.0834774 -0.30886 -0.000912059)
(0.08247 -0.321013 0.00141849)
(0.0738039 -0.328214 0.00251668)
(0.0532565 -0.337448 0.00425346)
(0.0219398 -0.343882 0.00772529)
(-0.0159343 -0.356568 0.0119783)
(-0.0664243 -0.372167 0.0150148)
(-0.130163 -0.402771 0.0178909)
(-0.197954 -0.447868 0.0184262)
(-0.262602 -0.519681 0.0108994)
(-0.307696 -0.598993 -0.00362355)
(-0.309668 -0.662743 -0.0209387)
(-0.253366 -0.655055 -0.0415677)
(-0.167145 -0.516725 -0.0478801)
(-0.0492113 -0.286876 -0.0193861)
(0.0108561 -0.0743978 0.00617383)
(-0.0183266 0.214347 -0.00498845)
(0.0115143 0.442173 -0.0203071)
(0.0913676 0.548985 -0.0236381)
(0.167566 0.580696 -0.00989331)
(0.235224 0.570467 0.00336239)
(0.277766 0.533776 0.0217185)
(0.292197 0.504255 0.0295507)
(0.266021 0.483232 0.0271897)
(0.202642 0.455311 0.0187304)
(0.115024 0.412149 0.0110846)
(0.0332695 0.35881 0.0102197)
(-0.0255465 0.302242 0.0116156)
(-0.0672203 0.239886 0.00124433)
(-0.0930229 0.170055 -0.0123102)
(-0.10922 0.0973236 -0.0241146)
(-0.112956 0.0286244 -0.028178)
(-0.101563 -0.0314397 -0.031045)
(-0.0836892 -0.0865282 -0.0252531)
(-0.06154 -0.136748 -0.0215136)
(-0.0259565 -0.174625 -0.0246733)
(0.00979225 -0.206381 -0.0212306)
(0.039619 -0.238237 -0.0114552)
(0.0655306 -0.271364 -0.00554715)
(0.0879531 -0.303082 -0.00315858)
(0.10762 -0.324413 -0.00223657)
(0.114732 -0.336468 -0.00259034)
(0.107205 -0.344477 -0.00321058)
(0.09324 -0.355866 -0.00095665)
(0.068158 -0.367373 0.000439379)
(0.0312653 -0.390694 0.0039964)
(-0.0130981 -0.419402 0.00848623)
(-0.0694756 -0.460447 0.00962528)
(-0.143313 -0.503815 0.00970819)
(-0.222592 -0.579536 0.00765148)
(-0.280249 -0.665397 -0.00141286)
(-0.305502 -0.755329 -0.0178653)
(-0.254252 -0.779602 -0.0330594)
(-0.177834 -0.689934 -0.0523756)
(-0.0543087 -0.397856 -0.0186139)
(0.0221298 -0.129193 0.00924849)
(-0.0119675 0.231738 0.00635821)
(0.0111802 0.470456 -0.0267867)
(0.0815944 0.592118 -0.0337901)
(0.162043 0.643992 -0.0290842)
(0.228754 0.646754 -0.0191343)
(0.277185 0.619608 -0.000891658)
(0.296275 0.578856 0.00908168)
(0.258351 0.528913 0.0110093)
(0.183091 0.474972 0.00852928)
(0.0930341 0.419262 0.00607567)
(0.0118842 0.365847 0.00734604)
(-0.0486942 0.307783 0.00846696)
(-0.0961403 0.243374 0.000267914)
(-0.128824 0.170017 -0.0118785)
(-0.138986 0.0961124 -0.0214121)
(-0.130861 0.0297637 -0.031449)
(-0.116836 -0.0325368 -0.03787)
(-0.0954288 -0.0896008 -0.0377363)
(-0.0652882 -0.138641 -0.034971)
(-0.0224886 -0.178975 -0.0352529)
(0.0154341 -0.210921 -0.0313344)
(0.0452726 -0.238469 -0.024519)
(0.0713945 -0.26075 -0.0162209)
(0.0955581 -0.281713 -0.0100119)
(0.121246 -0.297512 -0.00570077)
(0.137099 -0.304521 -0.0013612)
(0.135119 -0.303212 -0.000718784)
(0.120759 -0.307052 0.000813714)
(0.092635 -0.316768 0.00303747)
(0.0600856 -0.342526 0.00833277)
(0.0223106 -0.379647 0.0129914)
(-0.019056 -0.450618 0.0140114)
(-0.0817421 -0.536391 0.0102858)
(-0.159634 -0.651237 0.00636899)
(-0.233521 -0.766824 0.000846159)
(-0.276744 -0.885999 -0.00984769)
(-0.255016 -0.936139 -0.0268189)
(-0.161829 -0.883952 -0.040047)
(-0.0552332 -0.586946 -0.046105)
(-0.00305037 -0.198125 0.0270952)
(-0.00707092 0.214978 0.0116662)
(0.0150395 0.436941 -0.0197646)
(0.071986 0.563385 -0.0308408)
(0.143735 0.620348 -0.0274715)
(0.208245 0.626428 -0.0170249)
(0.257515 0.605126 -0.0021199)
(0.27799 0.562587 0.0104825)
(0.244799 0.508588 0.0148104)
(0.17383 0.458333 0.0151213)
(0.0854645 0.408544 0.0143264)
(0.00049205 0.361203 0.0132089)
(-0.0675089 0.310274 0.0118693)
(-0.122147 0.251951 0.00428671)
(-0.156044 0.186161 -0.0085023)
(-0.165256 0.12014 -0.0241681)
(-0.158158 0.0517289 -0.0364302)
(-0.139379 -0.0154928 -0.047153)
(-0.111107 -0.0717319 -0.052313)
(-0.0755283 -0.122071 -0.0517694)
(-0.0260519 -0.167676 -0.0470238)
(0.0197583 -0.204255 -0.0410928)
(0.0574525 -0.231641 -0.0345641)
(0.0891912 -0.249111 -0.0288579)
(0.11832 -0.260262 -0.0247727)
(0.153262 -0.264605 -0.0199717)
(0.18033 -0.266786 -0.0113852)
(0.18104 -0.260431 -0.00453511)
(0.16423 -0.256784 -0.00222833)
(0.129967 -0.254746 -0.000819992)
(0.0858485 -0.266578 0.00623194)
(0.0265482 -0.287919 0.0149229)
(-0.0380724 -0.348666 0.0224235)
(-0.108705 -0.42954 0.028029)
(-0.172795 -0.561471 0.0295144)
(-0.219852 -0.722033 0.0236824)
(-0.25279 -0.897579 0.0146966)
(-0.240508 -1.01722 -0.00275082)
(-0.165414 -1.03246 -0.0264101)
(-0.028287 -0.811288 -0.0411189)
(0.0312922 -0.353121 -0.00437616)
(-0.00464024 0.192713 0.0102348)
(0.0196114 0.392083 -0.0123872)
(0.0739824 0.522396 -0.0231598)
(0.13971 0.585354 -0.0210617)
(0.201094 0.601659 -0.0101109)
(0.247842 0.585528 0.00393177)
(0.263232 0.547772 0.0160083)
(0.22795 0.495835 0.0217485)
(0.158022 0.443978 0.0228054)
(0.0718479 0.394042 0.0225312)
(-0.0101905 0.348932 0.0199432)
(-0.0799038 0.308465 0.0152145)
(-0.139586 0.259625 0.00751941)
(-0.177809 0.206298 -0.0048414)
(-0.189622 0.143215 -0.0206816)
(-0.182819 0.0775003 -0.0367308)
(-0.157852 0.0132156 -0.0498762)
(-0.122396 -0.0455954 -0.062069)
(-0.0854333 -0.0937617 -0.0633185)
(-0.0326255 -0.139673 -0.0582979)
(0.0204553 -0.181339 -0.0498665)
(0.0674431 -0.213048 -0.0425504)