/*--------------------------------*- C++ -*----------------------------------*\
| =========                 |                                                 |
| \\      /  F ield         | OpenFOAM: The Open Source CFD Toolbox           |
|  \\    /   O peration     | Version:  v1806                                 |
|   \\  /    A nd           | Web:      www.OpenFOAM.com                      |
|    \\/     M anipulation  |                                                 |
\*---------------------------------------------------------------------------*/
FoamFile
{
    version     2.0;
    format      ascii;
    class       volScalarField;
    location    "0.0385";
    object      p;
}
// * * * * * * * * * * * * * * * * * * * * * * * * * * * * * * * * * * * * * //

dimensions      [0 2 -2 0 0 0 0];


internalField   nonuniform List<scalar> 
64000
(
-1.76117e-05
-0.0912825
-0.229658
-0.298259
-0.270736
-0.31524
-0.342624
-0.370227
-0.395877
-0.426286
-0.433909
-0.481652
-0.497884
-0.549831
-0.576861
-0.605654
-0.620554
-0.655889
-0.599875
-0.857609
-0.453668
-1.13607
-0.983571
-1.09273
-1.06055
-0.957292
-0.947563
-0.828084
-0.887299
-0.793789
-0.892344
-0.909807
-1.00648
-1.03609
-1.10223
-1.11425
-1.16547
-1.15671
-1.17874
-1.17177
-0.107968
-0.199196
-0.277816
-0.315933
-0.275689
-0.304573
-0.32934
-0.350421
-0.368542
-0.405294
-0.423018
-0.463542
-0.463264
-0.4685
-0.473764
-0.476538
-0.568042
-0.580229
-0.547706
-0.684639
-0.427548
-0.998964
-0.967511
-1.01441
-1.00214
-0.892669
-0.897793
-0.797855
-0.829719
-0.793573
-0.859218
-0.86956
-0.974288
-0.987417
-1.06773
-1.0679
-1.13236
-1.13379
-1.16808
-1.16743
-0.233225
-0.26892
-0.302205
-0.330228
-0.30078
-0.315632
-0.345123
-0.360894
-0.399278
-0.41048
-0.408916
-0.424508
-0.427038
-0.532497
-0.598507
-0.649376
-0.677594
-0.700383
-0.683404
-0.833913
-0.669284
-1.2369
-1.31736
-1.39481
-1.44325
-1.36668
-1.40554
-1.31715
-1.32606
-1.24915
-1.2377
-1.19385
-1.19973
-1.16688
-1.15241
-1.12882
-1.16427
-1.15912
-1.1843
-1.18532
-0.323051
-0.337086
-0.35078
-0.356085
-0.350491
-0.30295
-0.366984
-0.357022
-0.365148
-0.366738
-0.403087
-0.536169
-0.629802
-0.691604
-0.713001
-0.740512
-0.806182
-0.837095
-0.85869
-1.01045
-0.918277
-1.47822
-1.65138
-1.7424
-1.8356
-1.78325
-1.83039
-1.75731
-1.74797
-1.6615
-1.60377
-1.46988
-1.37399
-1.26863
-1.22132
-1.15091
-1.20288
-1.17436
-1.20511
-1.20746
-0.3606
-0.359695
-0.37985
-0.361839
-0.352909
-0.288986
-0.309095
-0.316552
-0.446005
-0.617837
-0.783544
-0.852958
-0.862577
-0.960347
-0.999692
-1.05053
-1.09348
-1.11539
-1.15939
-1.32033
-1.24911
-1.78493
-1.99572
-2.09529
-2.20466
-2.16356
-2.21463
-2.13772
-2.14248
-2.05491
-2.0026
-1.88071
-1.75779
-1.53989
-1.31765
-1.22444
-1.27328
-1.24113
-1.25342
-1.25065
-0.420732
-0.42794
-0.430503
-0.475146
-0.551077
-0.506036
-0.674413
-0.792279
-0.989184
-1.03203
-1.07769
-1.12494
-1.14834
-1.18256
-1.20025
-1.189
-1.27364
-1.28074
-1.33362
-1.45452
-1.40561
-1.968
-2.1868
-2.2814
-2.3881
-2.35155
-2.39078
-2.34443
-2.32702
-2.2668
-2.19385
-2.09451
-1.98258
-1.88221
-1.57857
-1.31217
-1.36793
-1.29143
-1.30414
-1.30184
-0.471738
-0.497691
-0.486481
-0.569631
-0.660935
-0.685701
-1.05421
-1.03202
-1.19482
-1.26043
-1.33691
-1.3921
-1.4292
-1.48251
-1.4971
-1.49926
-1.50458
-1.41837
-1.542
-1.60504
-1.62657
-1.79225
-2.29262
-2.34699
-2.47927
-2.45998
-2.50676
-2.48092
-2.48607
-2.43573
-2.35862
-2.2479
-2.13647
-1.9786
-1.72211
-1.38491
-1.40293
-1.34673
-1.35428
-1.35238
-0.500867
-0.51334
-0.544986
-0.673244
-0.753744
-0.99165
-1.18349
-1.26234
-1.39004
-1.46747
-1.53379
-1.6042
-1.64049
-1.68601
-1.71751
-1.71665
-1.73624
-1.64902
-1.6787
-1.72326
-1.78762
-1.68513
-2.08899
-2.34754
-2.47542
-2.51664
-2.57596
-2.57882
-2.60045
-2.56177
-2.50258
-2.38741
-2.27087
-2.09171
-1.93175
-1.48199
-1.45372
-1.40819
-1.40216
-1.41275
-0.584264
-0.547374
-0.613164
-0.724887
-0.882525
-1.18656
-1.30581
-1.41047
-1.51271
-1.62308
-1.70198
-1.77997
-1.83768
-1.90256
-1.95172
-1.98033
-2.00992
-1.93009
-1.90039
-1.86827
-1.88803
-1.67636
-1.72766
-2.2422
-2.44433
-2.54297
-2.62637
-2.65285
-2.69945
-2.67313
-2.60576
-2.49799
-2.3729
-2.17996
-2.02155
-1.64196
-1.4831
-1.47281
-1.45135
-1.46944
-0.591177
-0.589439
-0.662321
-0.823883
-1.08866
-1.29171
-1.42289
-1.53315
-1.63119
-1.72717
-1.82912
-1.90376
-1.96109
-2.02548
-2.08432
-2.13673
-2.17342
-2.11191
-2.17749
-2.05936
-1.89922
-1.58788
-1.37228
-1.89045
-2.44471
-2.57414
-2.71958
-2.72778
-2.79873
-2.76425
-2.7404
-2.61665
-2.4876
-2.31923
-2.13367
-1.8335
-1.55187
-1.54657
-1.5126
-1.54158
-0.659725
-0.643611
-0.746905
-0.975173
-1.19321
-1.38062
-1.52135
-1.63536
-1.73492
-1.83989
-1.9013
-1.98037
-2.05548
-2.10967
-2.16272
-2.2251
-2.2616
-2.23428
-2.28469
-2.05964
-1.72487
-1.32858
-1.14286
-1.53482
-2.32363
-2.63358
-2.74107
-2.81892
-2.83493
-2.85892
-2.79635
-2.71886
-2.56108
-2.38393
-2.18849
-1.98433
-1.64911
-1.59882
-1.58072
-1.60169
-0.700998
-0.707277
-0.843234
-1.05404
-1.2653
-1.44963
-1.59017
-1.70877
-1.81124
-1.89174
-1.96365
-2.03103
-2.07454
-2.12972
-2.173
-2.27708
-2.2507
-2.35777
-2.28981
-1.82995
-1.53627
-1.18933
-1.04941
-1.31216
-1.98634
-2.71935
-2.81684
-2.89774
-2.92666
-2.92353
-2.91169
-2.7979
-2.69089
-2.51654
-2.30688
-2.09187
-1.78169
-1.67192
-1.65268
-1.6749
-0.807521
-0.811345
-0.948228
-1.13564
-1.33749
-1.51547
-1.65537
-1.7675
-1.8566
-1.9326
-1.98433
-2.03862
-2.08499
-2.12198
-2.17754
-2.23374
-2.14312
-2.45656
-1.91289
-1.66373
-1.44783
-1.3249
-1.10966
-1.32458
-1.72971
-2.55784
-2.92117
-2.96546
-3.01302
-3.01124
-2.95465
-2.91471
-2.76032
-2.62423
-2.40278
-2.21152
-1.90513
-1.75806
-1.72365
-1.75397
-0.843475
-0.853826
-0.985412
-1.15914
-1.35226
-1.5328
-1.67616
-1.76848
-1.85265
-1.92071
-1.97405
-2.0277
-2.05201
-2.08589
-2.0905
-2.15687
-2.17754
-2.08206
-1.73266
-1.59079
-1.49576
-1.38312
-1.27331
-1.37645
-1.64833
-1.99907
-2.83791
-2.94042
-3.01157
-3.07237
-3.06322
-2.99438
-2.87439
-2.69663
-2.51081
-2.28322
-2.0479
-1.83944
-1.78947
-1.82457
-0.980448
-0.98034
-1.10025
-1.25208
-1.4333
-1.58789
-1.71075
-1.79716
-1.86638
-1.91165
-1.93162
-1.94639
-1.97535
-1.99485
-2.06953
-2.03329
-1.93065
-1.73894
-1.55139
-1.50114
-1.42355
-1.40698
-1.35984
-1.45819
-1.67481
-1.90631
-2.32003
-3.00854
-2.96974
-3.12883
-3.11421
-3.06986
-2.95586
-2.82187
-2.60996
-2.41748
-2.17375
-1.99807
-1.88431
-1.93363
-0.919026
-0.942995
-1.06175
-1.21261
-1.39044
-1.5342
-1.67354
-1.73591
-1.76998
-1.80389
-1.84722
-1.91494
-1.93878
-1.90517
-1.68525
-1.50864
-1.29852
-1.22842
-1.22447
-1.313
-1.3301
-1.38168
-1.42372
-1.45295
-1.72788
-1.88024
-2.0795
-2.69433
-3.06099
-3.09149
-3.1564
-3.08996
-2.98483
-2.83979
-2.64454
-2.45957
-2.22135
-2.09332
-1.96623
-1.9992
-0.993061
-1.00703
-1.11037
-1.23105
-1.38955
-1.51119
-1.65143
-1.70488
-1.75089
-1.76346
-1.70376
-1.48494
-1.23688
-1.03496
-0.969224
-1.04067
-1.05547
-1.1151
-1.19112
-1.24999
-1.30972
-1.37057
-1.45021
-1.4817
-1.74734
-1.90007
-2.09572
-2.20996
-2.68466
-2.98594
-3.077
-3.11289
-3.10298
-3.03456
-2.85451
-2.65753
-2.42909
-2.25527
-2.08985
-2.11276
-0.808589
-0.784449
-0.874577
-0.9971
-1.1897
-1.31083
-1.45483
-1.42638
-1.19007
-0.961706
-0.800856
-0.804768
-0.819172
-0.855051
-0.88346
-0.944856
-0.95418
-1.03455
-1.09159
-1.19987
-1.25139
-1.32226
-1.41035
-1.44975
-1.70005
-1.85066
-2.003
-2.14322
-2.38513
-2.6918
-2.9918
-2.86924
-2.73889
-2.73014
-2.53661
-2.40546
-2.26653
-2.26528
-2.19631
-2.22946
-0.304573
-0.314613
-0.376051
-0.423302
-0.542027
-0.597626
-0.74093
-0.69204
-0.754128
-0.77104
-0.797746
-0.792743
-0.796245
-0.797685
-0.815044
-0.854545
-0.913248
-0.966366
-1.04589
-1.14871
-1.22109
-1.29139
-1.3946
-1.42996
-1.67925
-1.83565
-1.99258
-2.12231
-2.32231
-2.38178
-2.48976
-2.99389
-3.34945
-3.21989
-3.16613
-2.95034
-2.70569
-2.40595
-2.22106
-2.18244
-0.5051
-0.37441
-0.387639
-0.418586
-0.535586
-0.587932
-0.70607
-0.682428
-0.725916
-0.724454
-0.743665
-0.752027
-0.757539
-0.760273
-0.785234
-0.808728
-0.842325
-0.914019
-0.990038
-1.07873
-1.20271
-1.24681
-1.35361
-1.41395
-1.61068
-1.78958
-1.92645
-2.10613
-2.29069
-2.36865
-2.44414
-2.35834
-2.3314
-2.58115
-2.81364
-2.85343
-2.8076
-2.68522
-2.63391
-2.55009
-0.421328
-0.39128
-0.395653
-0.413315
-0.50058
-0.548374
-0.641419
-0.659812
-0.721341
-0.740892
-0.767002
-0.767029
-0.770909
-0.7611
-0.765957
-0.775236
-0.822476
-0.866902
-0.961422
-1.05028
-1.14803
-1.24008
-1.33979
-1.37796
-1.57406
-1.73033
-1.91702
-2.07998
-2.24088
-2.33919
-2.37667
-2.43087
-2.4381
-2.30895
-2.16165
-2.03414
-1.98116
-1.957
-1.93092
-2.02872
-0.451741
-0.411423
-0.426015
-0.443929
-0.523003
-0.572867
-0.652253
-0.691613
-0.748375
-0.775897
-0.805128
-0.80542
-0.8034
-0.80688
-0.821527
-0.825388
-0.814865
-0.875686
-0.934042
-1.01729
-1.11625
-1.2183
-1.27599
-1.39706
-1.51544
-1.72698
-1.89845
-2.06238
-2.21127
-2.31833
-2.4079
-2.41357
-2.44268
-2.39038
-2.38307
-2.26511
-2.21512
-2.09075
-2.12872
-2.23457
-0.487335
-0.460256
-0.468019
-0.476652
-0.544496
-0.586805
-0.660509
-0.721326
-0.781493
-0.823363
-0.854178
-0.856387
-0.875131
-0.880709
-0.853168
-0.825233
-0.797571
-0.808605
-0.891601
-0.983605
-1.0828
-1.21235
-1.32772
-1.38646
-1.54061
-1.695
-1.84971
-1.98941
-2.11268
-2.19877
-2.28297
-2.31541
-2.37135
-2.3384
-2.36232
-2.27191
-2.24169
-2.08826
-2.02254
-2.03164
-0.540708
-0.503833
-0.541324
-0.536077
-0.607198
-0.646224
-0.715504
-0.776306
-0.837335
-0.884086
-0.921122
-0.940863
-0.964016
-0.949625
-0.910269
-0.900906
-0.850672
-0.98218
-1.05519
-1.03291
-1.12341
-1.22631
-1.31385
-1.46363
-1.54177
-1.70601
-1.84058
-1.97645
-2.10257
-2.19866
-2.3082
-2.34584
-2.4394
-2.40629
-2.48489
-2.38881
-2.42082
-2.25124
-2.25181
-2.3031
-0.588821
-0.54751
-0.596657
-0.585191
-0.656007
-0.686111
-0.758791
-0.8156
-0.883667
-0.941666
-0.988038
-1.02307
-1.05877
-1.07241
-1.06657
-1.08234
-1.04774
-1.20833
-1.1225
-0.981217
-1.10617
-1.22631
-1.31282
-1.44241
-1.56341
-1.71061
-1.8009
-1.90017
-2.01307
-2.07283
-2.16614
-2.1757
-2.26044
-2.2069
-2.28677
-2.17264
-2.22255
-2.0667
-2.08696
-2.12124
-0.650814
-0.601208
-0.651232
-0.645233
-0.711397
-0.755989
-0.815809
-0.876221
-0.9373
-1.00079
-1.06673
-1.13793
-1.17556
-1.19185
-1.18391
-1.22079
-1.1933
-1.3252
-1.22779
-0.980763
-1.13522
-1.23351
-1.33295
-1.46585
-1.56451
-1.71769
-1.86768
-1.93032
-2.06013
-2.14237
-2.28938
-2.32926
-2.47333
-2.41842
-2.55572
-2.41324
-2.49829
-2.28461
-2.28554
-2.22757
-0.710609
-0.672749
-0.702119
-0.714516
-0.768642
-0.816147
-0.885409
-0.941313
-1.01911
-1.08584
-1.14561
-1.18235
-1.23667
-1.30656
-1.36723
-1.43707
-1.39546
-1.46719
-1.27209
-0.980821
-1.15517
-1.2594
-1.33455
-1.46677
-1.5633
-1.68647
-1.85731
-1.88871
-2.04644
-2.10075
-2.21564
-2.19601
-2.30839
-2.22036
-2.37278
-2.22408
-2.37088
-2.16916
-2.26934
-2.24437
-0.756876
-0.732764
-0.717582
-0.767514
-0.808811
-0.869311
-0.921478
-1.00872
-1.08469
-1.16159
-1.24495
-1.3105
-1.36642
-1.42124
-1.41442
-1.52312
-1.50044
-1.4985
-1.40662
-0.941991
-1.13569
-1.22392
-1.30402
-1.45253
-1.51654
-1.6644
-1.82009
-1.91156
-2.05985
-2.13063
-2.23319
-2.18105
-2.31322
-2.14693
-2.32739
-2.07787
-2.25035
-1.94508
-2.02935
-1.90932
-0.827382
-0.814569
-0.792996
-0.824165
-0.88932
-0.940016
-1.01065
-1.08617
-1.16446
-1.24073
-1.31691
-1.39412
-1.4466
-1.52315
-1.53308
-1.60761
-1.58029
-1.58205
-1.53231
-0.938509
-1.11467
-1.20827
-1.26975
-1.42495
-1.45296
-1.58265
-1.77649
-1.92108
-2.00634
-2.02771
-2.12516
-2.05226
-2.19007
-1.99766
-2.18327
-1.88181
-2.05744
-1.67505
-1.72209
-1.59271
-0.851088
-0.839231
-0.813095
-0.810454
-0.90763
-0.93023
-1.02794
-1.10349
-1.18909
-1.26594
-1.34704
-1.42225
-1.48642
-1.55036
-1.56634
-1.63373
-1.6087
-1.56581
-1.60417
-0.912771
-1.13877
-1.16383
-1.21095
-1.36495
-1.32284
-1.48977
-1.93774
-1.86402
-2.02536
-2.04738
-2.16416
-2.02895
-2.22287
-1.93342
-2.21509
-1.77748
-2.033
-1.5238
-1.57804
-1.36998
-0.941087
-0.930856
-0.923191
-0.882276
-0.991106
-1.03121
-1.12161
-1.1883
-1.27916
-1.35227
-1.42669
-1.51143
-1.54913
-1.63645
-1.64077
-1.68015
-1.69857
-1.61425
-1.75857
-0.943339
-1.13334
-1.12357
-1.15811
-1.32746
-1.22287
-1.5012
-1.93545
-1.83292
-2.01872
-2.00169
-2.14142
-1.99733
-2.17568
-1.86558
-2.1231
-1.65652
-1.93002
-1.34492
-1.36816
-1.02997
-0.919715
-0.894299
-0.913073
-0.827782
-0.905318
-0.981432
-1.06078
-1.13268
-1.22356
-1.30551
-1.40037
-1.4751
-1.55337
-1.62276
-1.63374
-1.66586
-1.73427
-1.5734
-1.81814
-0.914397
-1.08077
-1.03652
-1.05801
-1.24414
-1.10108
-1.40864
-1.98207
-1.83306
-2.03154
-1.97374
-2.16388
-1.9234
-2.23094
-1.75753
-2.1568
-1.4699
-1.88283
-1.11244
-1.15249
-0.61858
-1.03803
-1.03805
-1.02062
-1.00045
-0.98005
-1.10245
-1.16414
-1.22788
-1.30892
-1.39449
-1.47261
-1.59387
-1.61814
-1.70601
-1.72287
-1.7394
-1.83716
-1.61615
-1.93044
-0.922369
-1.0434
-0.964611
-0.970957
-1.15382
-1.01314
-1.25243
-2.09356
-1.85206
-2.15896
-1.97235
-2.21741
-1.90204
-2.21659
-1.75366
-2.15275
-1.42553
-1.79431
-0.934578
-0.877977
-0.134354
-0.942956
-0.922482
-0.924666
-0.892912
-0.83931
-0.937195
-1.0154
-1.07299
-1.17228
-1.25834
-1.38285
-1.45429
-1.5558
-1.64464
-1.71073
-1.71412
-1.87077
-1.58868
-1.96374
-0.860749
-0.912268
-0.812199
-0.803796
-0.97386
-0.891546
-1.0008
-2.17989
-1.87995
-2.22142
-1.93772
-2.254
-1.81959
-2.25294
-1.56379
-2.16965
-1.18774
-1.71192
-0.450556
-0.482844
0.685181
-1.10603
-1.13076
-1.0891
-1.09115
-1.05867
-1.02351
-1.15545
-1.16804
-1.26823
-1.33969
-1.42365
-1.55391
-1.62879
-1.74402
-1.81461
-1.80999
-1.99729
-1.67868
-2.07499
-0.870002
-0.863037
-0.700626
-0.687385
-0.815859
-0.812707
-0.788738
-2.26795
-1.94544
-2.3394
-2.03512
-2.34509
-1.82866
-2.35043
-1.5366
-2.21483
-1.19868
-1.69513
-0.230896
-0.0310861
1.61265
-0.987288
-0.909768
-0.960257
-0.844877
-0.877457
-0.791722
-0.910626
-0.925648
-1.03533
-1.12303
-1.26531
-1.39624
-1.52812
-1.66306
-1.77962
-1.82074
-2.01714
-1.68492
-2.05708
-0.745417
-0.677566
-0.471035
-0.45476
-0.53474
-0.643353
-0.620553
-2.24482
-1.96064
-2.459
-2.0142
-2.40202
-1.70294
-2.35706
-1.37087
-2.08474
-0.854002
-1.46013
0.549862
0.888802
3.52099
-1.15149
-1.23942
-1.11974
-1.14967
-1.04169
-0.991728
-1.02878
-1.00631
-1.11424
-1.19119
-1.31587
-1.46069
-1.58695
-1.74855
-1.875
-1.93177
-2.14284
-1.81025
-2.13137
-0.781761
-0.576897
-0.293332
-0.249189
-0.311343
-0.463113
-0.550099
-2.20129
-2.04376
-2.56619
-2.1117
-2.59463
-1.74054
-2.50296
-1.30131
-2.34465
-0.815599
-1.5806
0.965189
1.69388
5.35396
-1.45556
-0.993631
-1.10181
-0.735242
-0.825691
-0.611742
-0.750385
-0.731736
-0.857613
-0.944153
-1.10263
-1.25877
-1.42653
-1.60938
-1.77363
-1.86913
-2.1217
-1.85973
-2.02917
-0.66959
-0.309653
0.0977309
0.0670978
0.0748835
-0.211983
-0.50613
-2.13189
-2.11318
-2.69141
-2.1265
-2.61316
-1.67689
-2.38688
-1.13763
-2.05508
-0.243935
-0.887495
2.22341
4.05523
10.1996
-1.27462
-1.55334
-1.33748
-1.30248
-0.880773
-0.823283
-0.80546
-0.784111
-0.877669
-0.956536
-1.08729
-1.24399
-1.40795
-1.60493
-1.78617
-1.9242
-2.2239
-2.04129
-2.03619
-0.71891
-0.19203
0.323774
0.390768
0.339106
-0.0404026
-0.500942
-2.05898
-2.16632
-2.78454
-2.18101
-2.71234
-1.68075
-2.49024
-1.21213
-2.23102
-0.580313
-1.09693
3.04483
5.13499
13.6944
-3.78881
-1.03549
-1.36645
-0.850268
-0.770059
-0.546709
-0.635038
-0.632179
-0.748921
-0.839521
-0.997005
-1.15741
-1.33731
-1.53956
-1.75723
-1.97521
-2.32754
-2.19462
-1.92489
-0.636137
0.0388302
0.671072
0.784804
0.593558
0.0249346
-0.589841
-2.08103
-2.30181
-2.9755
-2.22722
-2.69078
-1.55907
-2.34827
-1.05007
-1.88226
0.0392962
0.495167
6.61801
11.8777
25.3985
-0.106485
-0.205836
-0.277613
-0.310667
-0.283633
-0.319966
-0.347174
-0.375149
-0.406886
-0.43214
-0.452594
-0.493467
-0.517584
-0.557412
-0.594734
-0.613809
-0.636662
-0.646554
-0.687295
-0.835046
-0.569909
-1.12074
-1.12293
-1.17293
-1.16585
-1.06458
-1.06998
-0.974384
-0.991959
-0.934492
-0.984627
-0.984046
-1.0608
-1.06993
-1.12427
-1.12884
-1.17876
-1.16883
-1.19007
-1.17648
-0.218943
-0.263755
-0.313264
-0.319867
-0.291019
-0.308468
-0.328887
-0.355349
-0.356041
-0.404393
-0.407769
-0.483528
-0.465905
-0.473506
-0.475418
-0.509562
-0.564223
-0.583114
-0.562719
-0.680703
-0.598397
-1.077
-1.13744
-1.184
-1.19229
-1.11038
-1.13416
-1.0652
-1.07992
-1.01705
-1.0324
-1.03026
-1.04818
-1.03765
-1.107
-1.0973
-1.15316
-1.1473
-1.17557
-1.16807
-0.28437
-0.311019
-0.334185
-0.344531
-0.304496
-0.307634
-0.334416
-0.34634
-0.413585
-0.426049
-0.423388
-0.424746
-0.44299
-0.512089
-0.600759
-0.690318
-0.711273
-0.727288
-0.720516
-0.851155
-0.851388
-1.35425
-1.52137
-1.60885
-1.66335
-1.60231
-1.64558
-1.58116
-1.59045
-1.49623
-1.42102
-1.30629
-1.2741
-1.22568
-1.17759
-1.14022
-1.18194
-1.17021
-1.19224
-1.18596
-0.356535
-0.368611
-0.379427
-0.344644
-0.356881
-0.31074
-0.358227
-0.366591
-0.361202
-0.369873
-0.405867
-0.529696
-0.635966
-0.696665
-0.754272
-0.815617
-0.850808
-0.888388
-0.907926
-1.05661
-1.13713
-1.66652
-1.88616
-1.98235
-2.05767
-2.00626
-2.04196
-1.97113
-1.95556
-1.84488
-1.76777
-1.57752
-1.43826
-1.29121
-1.24437
-1.15676
-1.21266
-1.18705
-1.21192
-1.21014
-0.380834
-0.366285
-0.374675
-0.367289
-0.363282
-0.301281
-0.315162
-0.335151
-0.465594
-0.64184
-0.806311
-0.881673
-0.920196
-0.965461
-1.04163
-1.09615
-1.12881
-1.17138
-1.20704
-1.32258
-1.38113
-1.89119
-2.16178
-2.24664
-2.33391
-2.30599
-2.33687
-2.28827
-2.2528
-2.14888
-2.07284
-1.94298
-1.79114
-1.53574
-1.29394
-1.23153
-1.26883
-1.24278
-1.25126
-1.25296
-0.440371
-0.45538
-0.475069
-0.47548
-0.518968
-0.443543
-0.55542
-0.816885
-0.990483
-1.05825
-1.10225
-1.15129
-1.18224
-1.19805
-1.26589
-1.30651
-1.32229
-1.34656
-1.37312
-1.47529
-1.53963
-2.07852
-2.3197
-2.42316
-2.51618
-2.46759
-2.50107
-2.43155
-2.4372
-2.31322
-2.24938
-2.14971
-2.01809
-1.89377
-1.54538
-1.34026
-1.37333
-1.30597
-1.31075
-1.31049
-0.504539
-0.502079
-0.52922
-0.582592
-0.673302
-0.657908
-1.02294
-1.09153
-1.22294
-1.29454
-1.36446
-1.42098
-1.45582
-1.4997
-1.54793
-1.55426
-1.54947
-1.51167
-1.52828
-1.55562
-1.60031
-1.80549
-2.33861
-2.44197
-2.56375
-2.54471
-2.58098
-2.54507
-2.51154
-2.44425
-2.36931
-2.25313
-2.13439
-1.97897
-1.70184
-1.4012
-1.40005
-1.35242
-1.35004
-1.35389
-0.528722
-0.557516
-0.592656
-0.711326
-0.781542
-0.955421
-1.20459
-1.31026
-1.4129
-1.49729
-1.55951
-1.63504
-1.67481
-1.73624
-1.7732
-1.77856
-1.76896
-1.7118
-1.71212
-1.68755
-1.68712
-1.65384
-2.05035
-2.40654
-2.55994
-2.60474
-2.66923
-2.63605
-2.64807
-2.55227
-2.49069
-2.38817
-2.26187
-2.09645
-1.90205
-1.51411
-1.4796
-1.43124
-1.41619
-1.42456
-0.598545
-0.601437
-0.701742
-0.751081
-0.873923
-1.21026
-1.31174
-1.4368
-1.55732
-1.64589
-1.7328
-1.79794
-1.86564
-1.94742
-1.99218
-2.02933
-2.04864
-2.01379
-1.96303
-1.84817
-1.74825
-1.52422
-1.68616
-2.22049
-2.52442
-2.63855
-2.72731
-2.72171
-2.69345
-2.65348
-2.57796
-2.48386
-2.36857
-2.16166
-1.99855
-1.61719
-1.49179
-1.47179
-1.45516
-1.47105
-0.626976
-0.652395
-0.720298
-0.857157
-1.15118
-1.28739
-1.43741
-1.58176
-1.64319
-1.77647
-1.83118
-1.92933
-1.98248
-2.07944
-2.13479
-2.19591
-2.24173
-2.24811
-2.23403
-2.04954
-1.74725
-1.36826
-1.27549
-1.79661
-2.49071
-2.68159
-2.83265
-2.80757
-2.82382
-2.73859
-2.7115
-2.64826
-2.53283
-2.37926
-2.15119
-1.82678
-1.57807
-1.56689
-1.53219
-1.55207
-0.692482
-0.706145
-0.805735
-1.05434
-1.24858
-1.38206
-1.53597
-1.63631
-1.73262
-1.84453
-1.92335
-2.01134
-2.07088
-2.16956
-2.2269
-2.29507
-2.34603
-2.36485
-2.32914
-2.03164
-1.59977
-1.13636
-1.00799
-1.44151
-2.29579
-2.73976
-2.86887
-2.93866
-2.8559
-2.87681
-2.81769
-2.70689
-2.57771
-2.39776
-2.21676
-1.95298
-1.62875
-1.60868
-1.58467
-1.60353
-0.749181
-0.780247
-0.925986
-1.1477
-1.32537
-1.48062
-1.58234
-1.7293
-1.79469
-1.89648
-1.97422
-2.06504
-2.09903
-2.20066
-2.26076
-2.34657
-2.37344
-2.44543
-2.23849
-1.79045
-1.44243
-1.03583
-0.907933
-1.21557
-1.89303
-2.70697
-2.88274
-2.92051
-3.01
-3.01283
-2.92072
-2.84458
-2.71942
-2.58139
-2.40374
-2.14049
-1.75793
-1.66177
-1.66908
-1.68271
-0.864541
-0.904338
-1.0423
-1.23166
-1.41082
-1.55663
-1.68539
-1.7683
-1.8787
-1.94651
-2.01098
-2.05721
-2.15409
-2.22391
-2.2956
-2.32879
-2.36361
-2.37512
-1.91293
-1.57277
-1.29801
-1.08995
-0.967719
-1.21286
-1.68402
-2.49935
-2.93379
-3.06833
-3.14791
-3.09481
-3.09693
-2.99023
-2.83022
-2.64493
-2.39927
-2.27353
-1.93494
-1.7188
-1.73423
-1.7577
-0.919609
-0.953194
-1.08441
-1.26047
-1.44136
-1.59522
-1.71259
-1.80531
-1.8726
-1.94347
-2.01081
-2.09984
-2.13467
-2.19616
-2.22895
-2.29268
-2.29772
-2.03345
-1.68224
-1.44352
-1.29285
-1.20621
-1.12494
-1.27946
-1.56237
-1.90985
-2.74741
-2.99957
-3.02276
-3.2141
-3.1365
-3.0692
-2.92493
-2.75826
-2.51868
-2.2872
-2.09488
-1.826
-1.777
-1.84505
-1.03448
-1.06006
-1.1863
-1.3419
-1.51115
-1.64667
-1.7816
-1.85686
-1.92721
-1.97086
-2.0035
-1.99865
-2.04757
-2.01479
-2.24299
-2.14587
-1.90433
-1.62099
-1.41427
-1.30672
-1.30605
-1.3
-1.26927
-1.39918
-1.5983
-1.86019
-2.27578
-3.06099
-3.21767
-3.23561
-3.23168
-3.14499
-3.01385
-2.85339
-2.61076
-2.41111
-2.1645
-2.04914
-1.824
-1.95653
-1.02422
-1.04688
-1.17612
-1.32718
-1.50379
-1.62543
-1.75137
-1.8143
-1.85522
-1.88294
-1.90127
-1.93365
-1.92825
-1.78357
-1.77989
-1.51556
-1.29966
-1.21106
-1.1877
-1.22454
-1.28963
-1.34483
-1.34897
-1.44343
-1.66481
-1.90627
-2.22502
-2.73314
-3.19813
-3.25609
-3.25718
-3.19445
-3.07277
-2.90865
-2.68777
-2.44896
-2.25339
-2.10862
-1.94778
-1.99199
-1.06423
-1.08362
-1.18963
-1.32856
-1.49017
-1.60495
-1.72372
-1.76394
-1.79337
-1.7638
-1.68199
-1.48886
-1.23601
-1.00664
-1.0873
-0.9959
-1.0353
-1.0586
-1.11468
-1.17439
-1.26677
-1.34294
-1.38983
-1.47033
-1.70575
-1.87436
-2.08508
-2.25371
-2.71405
-3.14068
-3.25239
-3.22818
-3.16074
-3.04672
-2.84126
-2.64416
-2.36555
-2.25689
-2.11177
-2.09394
-0.878369
-0.874866
-0.949065
-1.08873
-1.22552
-1.34937
-1.46232
-1.43874
-1.26521
-1.03123
-0.875756
-0.808196
-0.791603
-0.775167
-0.850895
-0.867158
-0.900463
-0.97009
-1.02965
-1.11923
-1.20577
-1.29047
-1.35088
-1.43745
-1.63857
-1.80433
-1.99231
-2.1119
-2.31067
-2.58137
-2.9815
-3.0663
-3.03935
-2.92852
-2.76398
-2.61212
-2.3875
-2.23365
-2.23958
-2.22625
-0.367038
-0.418973
-0.480823
-0.566314
-0.66226
-0.744658
-0.84671
-0.77011
-0.783953
-0.741542
-0.733992
-0.7015
-0.695502
-0.69815
-0.732986
-0.800426
-0.844238
-0.901306
-0.980457
-1.05947
-1.16523
-1.24972
-1.33154
-1.42205
-1.62068
-1.81297
-1.97254
-2.10179
-2.22671
-2.33748
-2.43325
-2.75132
-3.10386
-3.09553
-3.02192
-2.81657
-2.5932
-2.36437
-2.24121
-2.2169
-0.451825
-0.374821
-0.390214
-0.434637
-0.513904
-0.5779
-0.675482
-0.638111
-0.65647
-0.641799
-0.666016
-0.660186
-0.668819
-0.663155
-0.690832
-0.723359
-0.779893
-0.861542
-0.91675
-1.01047
-1.10634
-1.20868
-1.29379
-1.39084
-1.59063
-1.7754
-1.93602
-2.08059
-2.21331
-2.28812
-2.36054
-2.35911
-2.3798
-2.5284
-2.70726
-2.66654
-2.59583
-2.50209
-2.50483
-2.60716
-0.438911
-0.366776
-0.3739
-0.391274
-0.473275
-0.509382
-0.606013
-0.614796
-0.662259
-0.673545
-0.694344
-0.687072
-0.669858
-0.659861
-0.642812
-0.671766
-0.716055
-0.790506
-0.893352
-0.963077
-1.07004
-1.17358
-1.27802
-1.3642
-1.55041
-1.73125
-1.90703
-2.06744
-2.2005
-2.27551
-2.32097
-2.34451
-2.35477
-2.28305
-2.19893
-2.08117
-2.03096
-1.93071
-1.92166
-1.9651
-0.479622
-0.411748
-0.425599
-0.437368
-0.518476
-0.547494
-0.6316
-0.665576
-0.709448
-0.725831
-0.744418
-0.724999
-0.686122
-0.645443
-0.632099
-0.650199
-0.689561
-0.782266
-0.855672
-0.977004
-1.05689
-1.1572
-1.26718
-1.36699
-1.50898
-1.70114
-1.88273
-2.04803
-2.18963
-2.29043
-2.36421
-2.36704
-2.40545
-2.33848
-2.31521
-2.1968
-2.14624
-2.0014
-2.00018
-2.16285
-0.486527
-0.440276
-0.451201
-0.461686
-0.535801
-0.565975
-0.645848
-0.702275
-0.755429
-0.787124
-0.804567
-0.77422
-0.732592
-0.708424
-0.722843
-0.717283
-0.701854
-0.740181
-0.840893
-0.935042
-1.0306
-1.19579
-1.21526
-1.37078
-1.50539
-1.66827
-1.82857
-1.97189
-2.09276
-2.17662
-2.26011
-2.2832
-2.33504
-2.2956
-2.32793
-2.23912
-2.22065
-2.04938
-1.99592
-2.07416
-0.546895
-0.508559
-0.524019
-0.522262
-0.594026
-0.621349
-0.698322
-0.758759
-0.817791
-0.855249
-0.875668
-0.85786
-0.826908
-0.826803
-0.806413
-0.792274
-0.775879
-0.918175
-0.972008
-0.976974
-1.05834
-1.17078
-1.29066
-1.41355
-1.51223
-1.6706
-1.81981
-1.9486
-2.07788
-2.16929
-2.27885
-2.31
-2.40749
-2.37444
-2.46707
-2.37632
-2.42039
-2.23148
-2.20946
-2.27876
-0.589601
-0.558463
-0.576298
-0.572142
-0.636134
-0.677193
-0.739165
-0.810268
-0.873827
-0.924188
-0.959309
-0.968221
-0.971249
-0.980781
-0.982802
-1.01626
-1.05558
-1.17011
-1.07434
-0.948407
-1.02538
-1.16465
-1.25955
-1.42212
-1.53369
-1.66575
-1.77328
-1.87839
-1.97462
-2.03645
-2.12512
-2.13022
-2.21906
-2.15977
-2.25712
-2.13734
-2.20437
-2.0239
-2.04723
-2.08467
-0.649583
-0.614388
-0.642183
-0.644551
-0.704221
-0.739909
-0.813181
-0.876265
-0.942876
-1.00309
-1.05932
-1.10482
-1.14491
-1.18438
-1.21398
-1.27986
-1.27889
-1.34526
-1.16109
-0.941625
-1.024
-1.12553
-1.29665
-1.43158
-1.55304
-1.67322
-1.84648
-1.87811
-2.01227
-2.09215
-2.2434
-2.25942
-2.41006
-2.34398
-2.49637
-2.34537
-2.44439
-2.22717
-2.24283
-2.18311
-0.715752
-0.684909
-0.695702
-0.716519
-0.768598
-0.820912
-0.885644
-0.955912
-1.03183
-1.1033
-1.17221
-1.2335
-1.2948
-1.36174
-1.40947
-1.48211
-1.4351
-1.47777
-1.26961
-0.96613
-1.04145
-1.16136
-1.2691
-1.4375
-1.53465
-1.67989
-1.78064
-1.89305
-1.97014
-2.07774
-2.19258
-2.17959
-2.30328
-2.20389
-2.36777
-2.19712
-2.35237
-2.13269
-2.17721
-2.16931
-0.766961
-0.74138
-0.728669
-0.763509
-0.814718
-0.864835
-0.940813
-1.02063
-1.1053
-1.18773
-1.27274
-1.34632
-1.4104
-1.47136
-1.493
-1.56782
-1.52576
-1.54007
-1.36839
-0.958082
-1.05846
-1.12224
-1.22066
-1.40181
-1.48343
-1.63652
-1.76499
-1.9304
-1.99687
-2.10618
-2.22721
-2.18023
-2.32781
-2.1548
-2.35994
-2.09757
-2.29298
-1.96325
-2.05448
-1.88826
-0.834547
-0.821901
-0.803469
-0.823895
-0.894012
-0.944898
-1.01593
-1.09744
-1.19139
-1.28258
-1.36582
-1.44259
-1.49734
-1.55949
-1.57014
-1.63302
-1.60035
-1.61534
-1.50189
-0.979393
-1.08395
-1.17963
-1.19151
-1.35602
-1.40631
-1.53831
-1.76863
-1.9265
-2.01318
-2.04232
-2.13227
-2.04926
-2.22254
-2.01635
-2.23212
-1.92506
-2.1329
-1.72265
-1.76652
-1.53086
-0.862642
-0.842977
-0.827837
-0.809645
-0.910113
-0.945753
-1.03715
-1.11536
-1.19921
-1.29598
-1.39093
-1.46685
-1.52649
-1.58533
-1.59662
-1.65862
-1.62894
-1.62561
-1.53274
-0.963848
-1.05079
-1.11707
-1.13972
-1.29384
-1.29947
-1.48462
-1.86821
-1.92372
-2.05954
-2.00376
-2.18031
-2.03826
-2.24078
-1.96277
-2.29051
-1.84277
-2.17524
-1.62794
-1.6648
-1.33762
-0.95184
-0.939697
-0.932109
-0.896635
-0.991568
-1.04592
-1.12983
-1.20821
-1.28144
-1.36968
-1.45452
-1.54045
-1.59313
-1.66613
-1.66997
-1.72759
-1.71946
-1.68515
-1.71666
-0.979821
-1.05491
-1.06172
-1.10025
-1.24027
-1.22536
-1.4672
-1.91714
-1.91098
-2.06918
-1.98253
-2.14041
-1.99244
-2.23474
-1.88312
-2.20671
-1.76719
-2.11706
-1.52292
-1.54476
-1.10339
-0.930459
-0.906076
-0.913505
-0.843361
-0.91158
-0.988223
-1.07375
-1.13968
-1.23892
-1.31724
-1.41415
-1.49678
-1.56945
-1.64237
-1.67857
-1.73146
-1.7734
-1.64509
-1.77654
-0.955822
-1.02254
-0.963037
-0.999705
-1.14147
-1.11457
-1.38925
-1.96329
-1.97327
-2.08216
-1.97432
-2.13818
-1.9505
-2.23685
-1.83325
-2.25822
-1.5741
-2.16084
-1.36385
-1.49268
-0.833618
-1.05009
-1.05135
-1.0255
-1.01185
-0.987041
-1.11201
-1.17774
-1.24275
-1.33207
-1.41115
-1.50189
-1.5913
-1.65841
-1.75869
-1.77118
-1.82169
-1.85627
-1.71212
-1.90319
-0.982428
-0.989611
-0.879557
-0.9118
-1.03649
-1.02035
-1.26296
-2.05012
-2.01186
-2.20139
-1.97929
-2.22573
-1.87447
-2.2911
-1.75311
-2.28688
-1.59168
-2.08916
-1.32139
-1.43603
-0.51732
-0.956289
-0.932651
-0.949376
-0.873076
-0.869807
-0.917046
-1.03334
-1.08232
-1.1847
-1.27752
-1.39031
-1.49311
-1.58851
-1.6642
-1.75226
-1.80003
-1.92491
-1.69321
-1.96713
-0.929149
-0.87412
-0.71726
-0.739162
-0.846571
-0.843986
-1.04967
-2.07176
-2.01745
-2.27738
-2.01886
-2.25729
-1.82726
-2.26956
-1.60724
-2.25315
-1.35886
-2.15025
-0.90603
-1.25237
0.108171
-1.11648
-1.14524
-1.10493
-1.12285
-1.02892
-1.03975
-1.16962
-1.19393
-1.29239
-1.37218
-1.48596
-1.60109
-1.67235
-1.79218
-1.86379
-1.84749
-2.05203
-1.8049
-2.08168
-0.953067
-0.79737
-0.604539
-0.614281
-0.678092
-0.711815
-0.873224
-2.12672
-2.05874
-2.42677
-2.07933
-2.37792
-1.83215
-2.38022
-1.57743
-2.30572
-1.3389
-2.11804
-0.949818
-0.900603
0.859625
-0.984218
-0.93218
-0.992277
-0.850307
-0.960192
-0.700029
-0.954485
-0.94114
-1.07734
-1.16029
-1.30784
-1.42702
-1.5641
-1.71205
-1.84983
-1.90999
-2.10832
-1.79138
-2.08174
-0.90528
-0.637318
-0.360226
-0.380059
-0.398135
-0.53536
-0.706416
-2.08987
-2.06936
-2.5113
-2.10172
-2.48528
-1.75345
-2.38416
-1.38664
-2.23764
-0.974202
-1.85084
-0.193011
-0.407779
2.64884
-1.14589
-1.25982
-1.14923
-1.18555
-1.08353
-0.978154
-1.08947
-1.07505
-1.18103
-1.26066
-1.37616
-1.52823
-1.65187
-1.82529
-1.94698
-2.05324
-2.19153
-1.99867
-2.17633
-0.944532
-0.589628
-0.195109
-0.186082
-0.169701
-0.393383
-0.617916
-2.07628
-2.12415
-2.64408
-2.16728
-2.65121
-1.8091
-2.53649
-1.4188
-2.40232
-1.01925
-1.87957
0.122647
0.365695
4.52223
-1.38845
-0.967359
-1.11496
-0.772768
-0.866295
-0.633498
-0.810987
-0.778066
-0.926423
-1.00819
-1.1834
-1.33626
-1.51452
-1.70991
-1.86905
-2.04193
-2.30334
-2.07738
-2.17883
-0.854814
-0.366339
0.116154
0.141795
0.156306
-0.151841
-0.51832
-2.02715
-2.17709
-2.80938
-2.18363
-2.69841
-1.70364
-2.4662
-1.22935
-2.23562
-0.600779
-1.21323
1.53598
3.07508
10.0156
-1.05121
-1.51187
-1.37568
-1.3719
-1.08274
-0.853648
-0.912576
-0.873438
-0.966947
-1.04085
-1.17751
-1.35427
-1.53156
-1.75619
-1.94439
-2.12903
-2.43031
-2.30675
-2.22393
-0.943644
-0.28348
0.324499
0.414164
0.402117
0.00617419
-0.474232
-1.98356
-2.19532
-2.84627
-2.23723
-2.77933
-1.68127
-2.50614
-1.22222
-2.25879
-0.754211
-1.24254
2.3021
5.47874
15.9719
-3.63896
-0.922643
-1.24915
-0.77401
-0.741624
-0.560964
-0.655909
-0.656478
-0.79414
-0.890252
-1.04659
-1.20565
-1.41234
-1.65708
-1.93548
-2.18168
-2.57753
-2.43158
-2.15238
-0.844955