/*--------------------------------*- C++ -*----------------------------------*\
| =========                 |                                                 |
| \\      /  F ield         | OpenFOAM: The Open Source CFD Toolbox           |
|  \\    /   O peration     | Version:  v1806                                 |
|   \\  /    A nd           | Web:      www.OpenFOAM.com                      |
|    \\/     M anipulation  |                                                 |
\*---------------------------------------------------------------------------*/
FoamFile
{
    version     2.0;
    format      ascii;
    class       vectorField;
    location    "0.01";
    object      currentcloudofpoints;
}
// * * * * * * * * * * * * * * * * * * * * * * * * * * * * * * * * * * * * * //


2409
(
(0.705164 1.06967 0.999999)
(0.963629 0.721425 0.999999)
(1.05295 1.32559 0.999988)
(1.00246 1.01928 0.710383)
(1.00247 1.01928 1.28962)
(1.01253 1.02789 1)
(0.496811 1.1124 0.99999)
(0.91542 0.519937 1)
(1.07501 1.52347 0.999997)
(0.988351 1.0094 0.513511)
(0.988353 1.00941 1.48649)
(1.05065 1.31039 1.09122)
(1.0435 1.26639 1.17314)
(1.03211 1.1981 1.23729)
(1.01774 1.1128 1.27727)
(1.05195 1.3182 1.04562)
(1.04728 1.28856 1.13225)
(1.03798 1.23239 1.20531)
(1.02507 1.15554 1.25738)
(1.01015 1.06609 1.28347)
(0.965323 0.735965 1.08743)
(0.970143 0.778138 1.16693)
(0.978067 0.843819 1.2311)
(0.988962 0.926765 1.27346)
(0.964689 0.728817 1.04368)
(0.967929 0.757188 1.12705)
(0.974191 0.81112 1.1989)
(0.983577 0.885438 1.25218)
(0.995679 0.973104 1.28152)
(1.05064 1.31039 0.908774)
(1.0435 1.26639 0.826855)
(1.0321 1.19809 0.762719)
(1.01774 1.11279 0.722725)
(1.05194 1.31817 0.954372)
(1.04727 1.28858 0.867744)
(1.03797 1.23239 0.794694)
(1.02506 1.15553 0.742625)
(1.01014 1.06609 0.716522)
(0.988954 0.926756 0.726528)
(0.978068 0.843819 0.768901)
(0.970127 0.77813 0.833076)
(0.965328 0.735952 0.912541)
(0.995674 0.973106 0.718501)
(0.983569 0.885418 0.747784)
(0.974191 0.81114 0.801133)
(0.96791 0.757154 0.872917)
(0.964712 0.728838 0.956315)
(0.910978 1.03483 1.27337)
(0.828635 1.04877 1.23044)
(0.762915 1.05978 1.16557)
(0.720083 1.06703 1.08645)
(0.956892 1.02722 1.28137)
(0.869919 1.04197 1.252)
(0.796055 1.05437 1.19781)
(0.741653 1.06345 1.1258)
(0.712688 1.06843 1.04316)
(0.720096 1.06705 0.913553)
(0.762832 1.05982 0.834396)
(0.828566 1.04879 0.7695)
(0.910975 1.03483 0.726664)
(0.712724 1.06843 0.956844)
(0.741604 1.06349 0.874182)
(0.795973 1.0544 0.802134)
(0.869887 1.04198 0.747987)
(0.956892 1.02723 0.71867)
(0.87286 0.750627 1.00001)
(0.795387 0.806266 0.999974)
(0.73854 0.88358 0.999986)
(0.707281 0.974517 1)
(0.918503 0.736279 1)
(0.834226 0.77847 0.999997)
(0.767178 0.844931 0.999966)
(0.723143 0.929143 1)
(0.706274 1.02217 0.999999)
(0.732808 1.16001 0.999996)
(0.787517 1.23695 0.999981)
(0.8646 1.29319 0.999998)
(0.956789 1.32344 0.999995)
(0.71913 1.11483 1)
(0.760223 1.1985 0.999984)
(0.826137 1.26509 0.999994)
(0.910814 1.30834 0.999997)
(1.00505 1.32451 0.999991)
(0.91705 0.52905 1.0924)
(0.92296 0.556136 1.1817)
(0.933317 0.600541 1.26459)
(0.944661 0.661113 1.33825)
(0.955133 0.735036 1.40004)
(0.964827 0.819781 1.44675)
(0.975637 0.912455 1.47587)
(0.916639 0.524529 1.04618)
(0.920205 0.542631 1.13699)
(0.92846 0.578285 1.22307)
(0.939558 0.630815 1.30126)
(0.950378 0.698137 1.36901)
(0.960239 0.777411 1.42338)
(0.970284 0.866117 1.4613)
(0.98197 0.96094 1.48112)
(1.00299 1.10707 1.47865)
(1.01935 1.20204 1.45247)
(1.0362 1.29051 1.40852)
(1.05134 1.36889 1.34795)
(1.06323 1.43398 1.27304)
(1.07035 1.48304 1.18759)
(1.07392 1.51333 1.09548)
(0.995621 1.0582 1.48249)
(1.01117 1.1545 1.46554)
(1.02793 1.24625 1.43057)
(1.04402 1.32972 1.37837)
(1.05766 1.40148 1.31059)
(1.0671 1.45863 1.23028)
(1.07223 1.49839 1.1415)
(1.07448 1.51855 1.04773)
(0.917051 0.529061 0.907585)
(0.92295 0.55612 0.818294)
(0.9333 0.600474 0.73535)
(0.944616 0.660986 0.661626)
(0.955105 0.734989 0.599906)
(0.964821 0.81978 0.553281)
(0.975639 0.912458 0.524151)
(0.916654 0.524551 0.953821)
(0.920189 0.542619 0.862996)
(0.928456 0.578257 0.776915)
(0.939518 0.630703 0.698637)
(0.950337 0.698051 0.630897)
(0.960219 0.777388 0.576611)
(0.970286 0.866122 0.538735)
(0.981967 0.96094 0.51889)
(1.07391 1.51334 0.904513)
(1.07035 1.48305 0.812406)
(1.06323 1.43396 0.726967)
(1.05134 1.36888 0.652045)
(1.0362 1.29051 0.591462)
(1.01934 1.20204 0.547525)
(1.00299 1.10706 0.521346)
(1.07448 1.51856 0.95226)
(1.07223 1.4984 0.858492)
(1.06711 1.45863 0.769725)
(1.05766 1.40145 0.689419)
(1.04402 1.32972 0.621607)
(1.02792 1.24624 0.569432)
(1.01117 1.1545 0.534449)
(0.995622 1.0582 0.517506)
(0.506333 1.10897 1.09129)
(0.5352 1.10017 1.17837)
(0.583101 1.08829 1.259)
(0.646016 1.07439 1.33256)
(0.719687 1.05893 1.39599)
(0.802517 1.04272 1.44445)
(0.893344 1.02618 1.47482)
(0.501671 1.11083 1.0457)
(0.520694 1.10444 1.13487)
(0.55913 1.09407 1.21847)
(0.614965 1.08122 1.29534)
(0.683237 1.06661 1.3641)
(0.76126 1.05078 1.42036)
(0.847886 1.03446 1.45964)
(0.941055 1.01785 1.4808)
(0.506236 1.10898 0.908684)
(0.535075 1.10021 0.821583)
(0.58322 1.08827 0.741092)
(0.645962 1.0744 0.667397)
(0.71969 1.05892 0.60402)
(0.802545 1.04269 0.5556)
(0.893326 1.02618 0.525139)
(0.501666 1.11082 0.954279)
(0.520511 1.10449 0.865075)
(0.559169 1.09407 0.781567)
(0.61499 1.08122 0.704684)
(0.683203 1.06661 0.635869)
(0.761284 1.05074 0.579687)
(0.847886 1.03445 0.540351)
(0.941046 1.01785 0.519181)
(0.816234 0.545727 1)
(0.726609 0.589657 1.00001)
(0.649318 0.650649 0.999999)
(0.58593 0.726565 0.999998)
(0.538293 0.814843 0.99999)
(0.507273 0.911551 1)
(0.49347 1.01219 1)
(0.866157 0.532693 1)
(0.77145 0.567538 1)
(0.68815 0.619896 1.00001)
(0.617881 0.688283 0.999995)
(0.562303 0.770329 0.999993)
(0.523118 0.86296 0.999995)
(0.50068 0.961682 1.00001)
(0.495538 1.06215 0.999995)
(0.517582 1.20786 0.99999)
(0.556909 1.29441 0.999989)
(0.614274 1.36938 0.999999)
(0.688093 1.43121 1.00001)
(0.775441 1.47874 1)
(0.87233 1.51078 1.00001)
(0.974158 1.52648 1)
(0.50739 1.16009 0.999992)
(0.53726 1.25115 0.999993)
(0.585522 1.33181 0.999989)
(0.651049 1.40019 1.00001)
(0.731724 1.45476 1.00001)
(0.823897 1.49459 1)
(0.923494 1.51842 1)
(1.0249 1.52493 0.999998)
(0.996102 1.01388 0.612713)
(0.992533 1.01137 0.563043)
(0.999426 1.0166 0.661953)
(0.996119 1.01389 1.38729)
(0.999443 1.01661 1.33805)
(0.992543 1.01138 1.43696)
(0.943808 0.619354 0.999997)
(0.954358 0.670515 0.999995)
(0.931243 0.568798 1)
(1.06427 1.42427 0.999992)
(1.05868 1.37475 0.999989)
(1.06977 1.47381 0.999995)
(0.657265 1.28156 1.2562)
(0.639396 1.33053 1.18372)
(0.843245 1.20772 1.42363)
(0.788386 1.44694 1.16841)
(0.538533 1.2375 1.08611)
(0.92863 1.16573 1.45981)
(0.9754 1.50447 1.13976)
(0.890671 1.45653 1.21954)
(0.580561 1.24745 1.18034)
(0.717211 1.37103 1.22566)
(0.679783 1.40029 1.12676)
(0.620504 1.17785 1.27856)
(0.811394 1.38647 1.27946)
(0.872741 1.48834 1.13815)
(0.746826 1.31004 1.31268)
(0.916811 1.51435 1.06895)
(0.930152 1.25419 1.42472)
(0.826879 1.49015 1.08023)
(0.530403 1.17639 1.1298)
(0.856924 1.10661 1.45757)
(0.760419 1.15145 1.40503)
(0.844007 1.3097 1.36647)
(0.980459 1.45574 1.24494)
(0.598061 1.33351 1.09326)
(0.561802 1.16171 1.20532)
(0.774858 1.24512 1.37433)
(0.983051 1.40119 1.31753)
(0.90304 1.39804 1.30606)
(0.512604 1.17388 1.0616)
(0.933203 1.08353 1.47784)
(1.00371 1.5234 1.06136)
(0.698417 1.22646 1.33135)
(0.684748 1.14035 1.35468)
(0.956593 1.34374 1.36974)
(0.640299 1.38888 1.0565)
(0.746292 1.45698 1.07732)
(0.966013 1.13646 1.46934)
(0.974036 1.18393 1.4563)
(0.960853 1.0465 1.48221)
(0.968128 1.09532 1.47831)
(0.930948 1.12461 1.46881)
(0.975094 1.22826 1.43878)
(0.983344 1.27241 1.41688)
(0.929452 1.20997 1.44226)
(0.996688 1.3173 1.38933)
(1.00407 1.35628 1.35899)
(0.943553 1.29908 1.39741)
(1.01736 1.3851 1.33282)
(1.02331 1.41751 1.29541)
(0.969965 1.37247 1.34369)
(1.02206 1.44489 1.25903)
(1.02562 1.46934 1.21639)
(0.98211 1.42855 1.28124)
(1.02315 1.49393 1.16369)
(1.02488 1.50885 1.11773)
(0.978186 1.48046 1.19231)
(1.03896 1.51836 1.07838)
(1.03952 1.52342 1.03077)
(0.98958 1.514 1.10057)
(0.988972 1.52501 1.03064)
(0.547766 1.26614 1.0431)
(0.528017 1.22279 1.04308)
(0.525544 1.20568 1.07385)
(0.515105 1.19098 1.03082)
(0.504853 1.14318 1.03079)
(0.606154 1.35159 1.04668)
(0.577407 1.31399 1.04663)
(0.568258 1.28549 1.08965)
(0.664118 1.41008 1.02831)
(0.627253 1.37915 1.02824)
(0.619157 1.36121 1.07489)
(0.7608 1.4679 1.03872)
(0.717102 1.44409 1.03858)
(0.69312 1.4227 1.06686)
(0.849528 1.50049 1.0402)
(0.801123 1.48445 1.04002)
(0.786599 1.47339 1.07878)
(0.945571 1.52046 1.03457)
(0.894565 1.51256 1.0344)
(0.871845 1.50206 1.07463)
(0.960553 1.51888 1.0652)
(0.618976 1.26439 1.21791)
(0.609932 1.28903 1.18201)
(0.648474 1.30613 1.21986)
(0.678312 1.35069 1.20452)
(0.687191 1.32635 1.24101)
(0.589283 1.29073 1.13693)
(0.618626 1.33204 1.13841)
(0.65955 1.36554 1.15531)
(0.698586 1.38582 1.17603)
(0.638746 1.36676 1.10991)
(0.886164 1.18671 1.44172)
(0.886652 1.23086 1.42413)
(0.892793 1.13613 1.4586)
(0.850166 1.15719 1.44061)
(0.843804 1.25881 1.39511)
(0.887419 1.282 1.3957)
(0.801769 1.17959 1.41443)
(0.808856 1.12897 1.43152)
(0.809257 1.22641 1.39905)
(0.767635 1.19839 1.38975)
(0.809375 1.27736 1.37041)
(0.767374 1.45201 1.12271)
(0.807604 1.46863 1.12439)
(0.734083 1.42334 1.14743)
(0.712985 1.42859 1.10212)
(0.851009 1.42139 1.24965)
(0.80028 1.41709 1.22377)
(0.839602 1.45167 1.19386)
(0.830532 1.4675 1.1534)
(0.881818 1.47263 1.17877)
(0.849815 1.48926 1.10911)
(0.752719 1.40903 1.19719)
(0.764494 1.3787 1.2524)
(0.555442 1.21187 1.15499)
(0.534512 1.20701 1.108)
(0.55944 1.2424 1.13322)
(0.521473 1.17513 1.09574)
(0.518446 1.1426 1.11052)
(0.533015 1.13824 1.15409)
(0.509634 1.14141 1.07646)
(0.548582 1.13091 1.19179)
(0.572597 1.12495 1.23208)
(0.546101 1.16897 1.16752)
(0.602009 1.13312 1.26868)
(0.633688 1.1261 1.30539)
(0.591247 1.16969 1.24164)
(0.702433 1.09963 1.3753)
(0.665495 1.10741 1.34357)
(0.653174 1.15904 1.31625)
(0.740081 1.10526 1.4005)
(0.781663 1.09707 1.42484)
(0.722798 1.14586 1.37981)
(0.829642 1.07471 1.45104)
(0.8752 1.0664 1.46615)
(0.913285 1.05486 1.47629)
(0.895237 1.09507 1.46766)
(0.638898 1.22983 1.26746)
(0.678248 1.25406 1.29358)
(0.659699 1.20214 1.3047)
(0.722569 1.26832 1.32209)
(0.702281 1.29576 1.2842)
(0.600815 1.21264 1.22922)
(0.73247 1.3407 1.26898)
(0.946274 1.50951 1.10424)
(0.691625 1.18347 1.34304)
(0.729911 1.18895 1.36816)
(0.736772 1.23576 1.35282)
(0.761152 1.27764 1.34346)
(0.659973 1.39458 1.09157)
(0.924337 1.49624 1.139)
(0.933283 1.48054 1.17987)
(0.935853 1.45615 1.2323)
(0.894771 1.50134 1.1036)
(0.897258 1.42744 1.26274)
(0.85721 1.39213 1.29276)
(0.942075 1.42686 1.27569)
(0.571314 1.20463 1.19283)
(0.779049 1.34828 1.29618)
(0.795704 1.30978 1.33954)
(0.828255 1.34825 1.32297)
(0.873579 1.35392 1.33643)
(0.900352 1.32662 1.36822)
(0.930245 1.37099 1.33793)
(0.943274 1.39962 1.3119)
(0.69175 0.806104 1.31755)
(0.561671 0.838095 1.16413)
(0.704551 0.641588 1.16291)
(0.769077 0.603833 1.17294)
(0.573647 0.893681 1.22264)
(0.715752 0.888397 1.3731)
(0.845291 0.558791 1.1405)
(0.513418 1.03551 1.1336)
(0.888177 0.885716 1.45612)
(0.611364 0.817503 1.2358)
(0.769227 0.659088 1.25863)
(0.523948 0.931959 1.1355)
(0.639724 0.90329 1.31002)
(0.866305 0.788097 1.41096)
(0.671772 0.98668 1.35743)
(0.600658 0.982013 1.28351)
(0.844556 0.59842 1.22566)
(0.839781 0.962909 1.45633)
(0.758225 0.581022 1.08907)
(0.549352 0.810856 1.0897)
(0.802503 0.878439 1.42304)
(0.545558 0.997923 1.20483)
(0.751718 0.97504 1.41573)
(0.59501 0.726189 1.08288)
(0.814464 0.720793 1.34537)
(0.864904 0.652157 1.3061)
(0.667767 0.721564 1.22767)
(0.742817 0.734766 1.31128)
(0.887795 0.707118 1.36493)
(0.768259 0.79834 1.37006)
(0.631424 0.700431 1.1371)
(0.595156 0.764578 1.15793)
(0.849468 0.539503 1.06494)
(0.916162 0.95876 1.47619)
(0.655913 0.651498 1.06975)
(0.498245 1.00412 1.06235)
(0.516008 0.891833 1.0595)
(0.801831 0.569822 1.11471)
(0.763767 0.592421 1.13101)
(0.807231 0.581263 1.15676)
(0.847552 0.549215 1.1027)
(0.803878 0.560226 1.07702)
(0.806838 0.601022 1.1992)
(0.845043 0.578529 1.18308)
(0.88146 0.543917 1.1165)
(0.884446 0.557343 1.16108)
(0.883509 0.534204 1.07866)
(0.88407 0.577193 1.20382)
(0.926619 0.852653 1.45159)
(0.932123 0.899126 1.46613)
(0.910909 0.761487 1.40561)
(0.916016 0.80393 1.42903)
(0.877493 0.836902 1.43359)
(0.945968 0.935599 1.4761)
(0.95233 0.984133 1.48142)
(0.902222 0.922282 1.46614)
(0.543046 0.884789 1.14978)
(0.548748 0.912548 1.179)
(0.567745 0.865775 1.19336)
(0.534846 0.964803 1.17014)
(0.559917 0.945632 1.21365)
(0.606903 0.898269 1.26587)
(0.587442 0.937761 1.25284)
(0.620369 0.942546 1.29669)
(0.5927 0.855472 1.22918)
(0.625911 0.860296 1.27262)
(0.573146 0.989748 1.24386)
(0.586557 0.827605 1.19985)
(0.736881 0.62258 1.16791)
(0.731634 0.611245 1.12608)
(0.70737 0.615879 1.07941)
(0.680353 0.646445 1.11633)
(0.742692 0.585339 1.04453)
(0.787521 0.563392 1.04457)
(0.833045 0.542598 1.03245)
(0.691641 0.620448 1.03493)
(0.519049 0.983573 1.13449)
(0.529474 1.01658 1.1692)
(0.511315 0.967935 1.09895)
(0.505874 1.0198 1.09803)
(0.538903 0.864774 1.11191)
(0.520073 0.911887 1.09758)
(0.50758 0.947741 1.0609)
(0.656153 0.945018 1.33351)
(0.63667 0.98428 1.32002)
(0.693915 0.937491 1.36527)
(0.678108 0.895772 1.34128)
(0.665913 0.854567 1.31382)
(0.704249 0.847308 1.34508)
(0.651735 0.81152 1.27633)
(0.921813 0.721074 1.38253)
(0.877362 0.74762 1.38784)
(0.834283 0.833243 1.41701)
(0.845309 0.882142 1.43957)
(0.817274 0.793241 1.3905)
(0.785762 0.838422 1.39652)
(0.840963 0.754554 1.37796)
(0.851165 0.713966 1.35513)
(0.791469 0.759542 1.35766)
(0.659055 1.03051 1.34497)
(0.623783 1.02821 1.30774)
(0.69599 1.02287 1.37661)
(0.735804 1.01698 1.40587)
(0.712062 0.980812 1.3865)
(0.734032 0.931784 1.39437)
(0.592194 1.0351 1.27119)
(0.564562 1.04298 1.23168)
(0.866569 0.994603 1.46558)
(0.821181 1.00282 1.45035)
(0.795818 0.968961 1.43613)
(0.777208 1.00894 1.43011)
(0.90477 0.992491 1.47548)
(0.878044 0.960877 1.46625)
(0.863942 0.924352 1.45619)
(0.821245 0.920745 1.4397)
(0.777139 0.926722 1.41944)
(0.737006 0.650054 1.2106)
(0.769339 0.631297 1.21577)
(0.686462 0.681361 1.19534)
(0.718684 0.690016 1.24306)
(0.643802 0.675878 1.10349)
(0.668152 0.670733 1.14997)
(0.649633 0.710794 1.18235)
(0.806954 0.628703 1.24217)
(0.524403 1.06773 1.15593)
(0.510085 1.07219 1.11245)
(0.502657 1.0564 1.07679)
(0.498041 1.05819 1.03119)
(0.540734 1.04896 1.19153)
(0.74206 0.843308 1.37164)
(0.730317 0.802208 1.34358)
(0.680219 0.763612 1.27233)
(0.639833 0.769254 1.23177)
(0.717386 0.770347 1.31442)
(0.705549 0.72792 1.26917)
(0.756018 0.766616 1.34038)
(0.882832 0.529666 1.0325)
(0.652783 0.651139 1.03489)
(0.621288 0.688698 1.03487)
(0.544051 0.812981 1.04488)
(0.568076 0.76856 1.04493)
(0.590641 0.726453 1.04148)
(0.625667 0.688513 1.07633)
(0.57244 0.768236 1.08629)
(0.51176 0.901761 1.02976)
(0.52747 0.853284 1.02977)
(0.532901 0.85115 1.07459)
(0.495941 1.00824 1.0312)
(0.503159 0.957772 1.03119)
(0.889385 0.599361 1.24511)
(0.905179 0.656589 1.32218)
(0.899387 0.626253 1.28545)
(0.85519 0.625225 1.2657)
(0.916389 0.684056 1.35166)
(0.876796 0.679661 1.33536)
(0.75933 0.883393 1.39809)
(0.817206 0.655594 1.28216)
(0.578624 0.801184 1.16102)
(0.603383 0.790861 1.19682)
(0.631523 0.742722 1.19268)
(0.839817 0.686435 1.3257)
(0.792543 0.689869 1.30164)
(0.756311 0.696801 1.28491)
(0.778755 0.727754 1.32821)
(0.572296 0.787516 1.12384)
(0.555525 0.824419 1.127)
(0.613272 0.713225 1.10999)
(0.595192 0.745335 1.12048)
(0.613467 0.732342 1.14753)
(0.725295 0.70366 0.730231)
(0.613979 0.882334 0.726293)
(0.743278 0.650168 0.775542)
(0.764572 0.602967 0.834278)
(0.535974 0.889108 0.858593)
(0.777162 0.877708 0.590383)
(0.518992 0.983842 0.857304)
(0.834017 0.955924 0.546541)
(0.677594 0.707995 0.77522)
(0.580314 0.836845 0.799453)
(0.837476 0.730219 0.636508)
(0.602709 0.982944 0.713996)
(0.695049 0.86669 0.651198)
(0.655771 0.780351 0.734568)
(0.767011 0.807652 0.625784)
(0.557265 0.926267 0.791656)
(0.741689 0.961846 0.592069)
(0.83387 0.596317 0.784575)
(0.88794 0.886494 0.543698)
(0.84111 0.557129 0.868659)
(0.677989 0.629592 0.9409)
(0.557288 0.799841 0.897461)
(0.617403 0.697073 0.914304)
(0.758832 0.578732 0.920849)
(0.55251 1.01366 0.781756)
(0.617468 0.741172 0.826427)
(0.816859 0.661288 0.707647)
(0.686348 0.649609 0.85183)
(0.668948 0.976019 0.646074)
(0.509428 0.92242 0.935888)
(0.859388 0.801609 0.584449)
(0.84746 0.539648 0.938905)
(0.500228 1.04037 0.917931)
(0.741666 0.752478 0.676265)
(0.641667 0.925544 0.681695)
(0.915042 0.957601 0.524143)
(0.666917 0.744065 0.754929)
(0.690724 0.741824 0.732415)
(0.701527 0.705744 0.752829)
(0.73445 0.676832 0.752901)
(0.710575 0.678908 0.775378)
(0.73374 0.728045 0.703393)
(0.698955 0.766235 0.70565)
(0.780295 0.655599 0.74183)
(0.771117 0.682332 0.718992)
(0.779435 0.706764 0.691968)
(0.832508 0.882163 0.566941)
(0.805781 0.916877 0.568382)
(0.860928 0.921242 0.545153)
(0.759474 0.919767 0.591189)
(0.787977 0.958868 0.569178)
(0.873862 0.844049 0.564007)
(0.818089 0.839637 0.587375)
(0.772308 0.842718 0.608148)
(0.73112 0.837111 0.638508)
(0.736515 0.872217 0.620946)
(0.718913 0.914348 0.621758)
(0.81324 0.804676 0.605154)
(0.904195 0.991912 0.524651)
(0.95177 0.983554 0.518754)
(0.945415 0.935023 0.52408)
(0.538189 0.954899 0.824513)
(0.546624 0.907584 0.82513)
(0.527777 0.936337 0.857988)
(0.555105 0.969883 0.786749)
(0.535718 0.998616 0.819571)
(0.514369 0.953075 0.89653)
(0.522794 0.905721 0.897191)
(0.544107 1.05685 0.801748)
(0.527514 1.04184 0.839575)
(0.509716 1.01204 0.88759)
(0.517631 1.07009 0.869748)
(0.50529 0.981155 0.926949)
(0.874593 0.956813 0.535349)
(0.901545 0.922092 0.533948)
(0.772249 1.00233 0.573751)
(0.818294 0.99932 0.55105)
(0.863673 0.991125 0.535835)
(0.647544 0.724354 0.800878)
(0.636714 0.760517 0.78066)
(0.714835 0.649679 0.813749)
(0.682102 0.678601 0.81345)
(0.652253 0.695002 0.839082)
(0.926504 0.853048 0.54836)
(0.932014 0.899526 0.533817)
(0.912519 0.810656 0.568657)
(0.635112 0.831191 0.730405)
(0.618117 0.808248 0.767194)
(0.597244 0.859443 0.763047)
(0.599211 0.788757 0.812924)
(0.569048 0.881437 0.79559)
(0.558165 0.862763 0.829073)
(0.585703 0.904098 0.759167)
(0.568812 0.81818 0.848369)
(0.546921 0.844292 0.878004)
(0.587539 0.770228 0.861979)
(0.75466 0.780077 0.651171)
(0.802172 0.768872 0.631129)
(0.78967 0.741323 0.656504)
(0.848829 0.765966 0.610611)
(0.896858 0.732523 0.618035)
(0.891375 0.695435 0.648852)
(0.827745 0.695761 0.672317)
(0.88148 0.661017 0.684618)
(0.907452 0.768161 0.592018)
(0.608647 0.932589 0.720218)
(0.580159 0.954455 0.753145)
(0.577695 0.998127 0.748129)
(0.624758 1.02868 0.690969)
(0.593264 1.03555 0.727605)
(0.568024 1.05088 0.76158)
(0.636201 0.979419 0.680409)
(0.657636 1.02519 0.656748)
(0.622311 0.954162 0.697922)
(0.628006 0.90393 0.704166)
(0.655502 0.950794 0.663999)
(0.654908 0.874359 0.689171)
(0.676038 0.823469 0.693306)
(0.718617 0.809476 0.663734)
(0.705586 0.968886 0.619155)
(0.682202 0.921322 0.648612)
(0.668474 0.896027 0.666489)
(0.730789 1.01038 0.598028)
(0.694618 1.01755 0.625139)
(0.78861 0.623147 0.780061)
(0.799225 0.599539 0.809516)
(0.754037 0.6265 0.804871)
(0.802844 0.579948 0.851413)
(0.837572 0.576657 0.826606)
(0.878757 0.576127 0.80129)
(0.884152 0.598237 0.760003)
(0.882398 0.556494 0.843515)
(0.825726 0.628711 0.746177)
(0.875493 0.630695 0.721279)
(0.533921 0.860729 0.916718)
(0.725604 0.626108 0.843087)
(0.800021 0.567841 0.894813)
(0.761794 0.590808 0.877539)
(0.722886 0.613983 0.886244)
(0.503387 1.07461 0.913322)
(0.498855 1.07645 0.95891)
(0.742975 0.58422 0.960439)
(0.787828 0.562337 0.960403)
(0.83205 0.542717 0.969473)
(0.881826 0.529733 0.969428)
(0.803181 0.559181 0.929869)
(0.663795 0.640098 0.97045)
(0.702513 0.609577 0.970433)
(0.718556 0.603907 0.930882)
(0.601909 0.711848 0.957133)
(0.633662 0.67385 0.957095)
(0.64791 0.663095 0.927573)
(0.571987 0.763127 0.948622)
(0.547973 0.807431 0.94867)
(0.587771 0.748032 0.905884)
(0.508435 0.917072 0.967927)
(0.524382 0.868463 0.967914)
(0.501744 0.967234 0.967936)
(0.497008 1.02639 0.958933)
(0.882527 0.534273 0.923253)
(0.879384 0.543089 0.888071)
(0.844439 0.548451 0.903791)
(0.682303 0.639597 0.896319)
(0.652006 0.673052 0.883091)
(0.617571 0.71904 0.870277)
(0.664913 1.35197 0.809404)
(0.634098 1.2795 0.769037)
(0.887271 1.48342 0.838602)
(0.758634 1.23361 0.629008)
(0.534286 1.1964 0.876401)
(0.986638 1.5057 0.862185)
(0.918581 1.16972 0.543023)
(0.859404 1.26703 0.599976)
(0.584731 1.28816 0.857013)
(0.709537 1.30758 0.714683)
(0.658479 1.21088 0.696447)
(0.642563 1.38268 0.911111)
(0.804991 1.34378 0.679887)
(0.8258 1.1863 0.574582)
(0.757633 1.39092 0.764028)
(0.85222 1.10682 0.544071)
(0.967907 1.46893 0.779262)
(0.775674 1.13416 0.581963)
(0.53792 1.2447 0.932798)
(0.922034 1.51512 0.930408)
(0.806584 1.48028 0.906735)
(0.862737 1.42548 0.743991)
(0.948381 1.27661 0.58495)
(0.583117 1.19154 0.776124)
(0.57842 1.31833 0.938299)
(0.80383 1.44713 0.817609)
(0.973557 1.34988 0.633673)
(0.895196 1.35295 0.65089)
(0.512984 1.17573 0.940186)
(1.00686 1.52343 0.938825)
(0.930301 1.08425 0.522658)
(0.721999 1.41991 0.850637)
(0.722083 1.44572 0.932)
(0.968301 1.40776 0.69112)
(0.613732 1.14365 0.716734)
(0.706618 1.14573 0.629349)
(0.990553 1.52502 0.969458)
(1.04108 1.52344 0.969328)
(1.04051 1.51838 0.921705)
(0.624685 1.31996 0.833378)
(0.609412 1.28381 0.813197)
(0.649509 1.31584 0.789176)
(0.672002 1.29349 0.742116)
(0.687611 1.3299 0.762345)
(0.653698 1.36745 0.860305)
(0.613617 1.33556 0.883996)
(0.733585 1.34937 0.739265)
(0.711336 1.37133 0.7869)
(0.693404 1.38598 0.829951)
(0.682177 1.40118 0.881022)
(0.73997 1.40556 0.807499)
(0.527809 1.22632 0.966381)
(0.547449 1.26967 0.966359)
(0.505016 1.14411 0.970084)
(0.515369 1.19186 0.970061)
(0.525504 1.21019 0.936506)
(0.567656 1.30642 0.969135)
(0.59632 1.34392 0.969117)
(0.558149 1.28156 0.935549)
(0.628341 1.37612 0.955572)
(0.665221 1.40707 0.955473)
(0.6104 1.35042 0.924752)
(0.748687 1.46222 0.965915)
(0.705027 1.43849 0.966047)
(0.682208 1.41412 0.921529)
(0.790921 1.47963 0.953438)
(0.839334 1.49562 0.953223)
(0.764327 1.46278 0.919424)
(0.897181 1.51295 0.965296)
(0.948172 1.52082 0.965125)
(0.86429 1.49747 0.918473)
(0.96473 1.51927 0.934574)
(0.959409 1.04686 0.518021)
(0.911819 1.05522 0.523935)
(0.966691 1.09568 0.521926)
(0.534833 1.14834 0.848921)
(0.520379 1.15261 0.892585)
(0.52363 1.18603 0.908287)
(0.509766 1.14235 0.924429)
(0.559204 1.14581 0.799014)
(0.558524 1.19385 0.826333)
(0.561214 1.26637 0.894936)
(0.536188 1.22059 0.904573)
(0.559537 1.24227 0.866759)
(0.584041 1.23999 0.816495)
(0.937248 1.49446 0.850259)
(0.927883 1.47622 0.809038)
(0.977387 1.48748 0.820744)
(1.01935 1.47594 0.795682)
(1.02871 1.49451 0.837315)
(0.954543 1.51053 0.896398)
(0.99676 1.51464 0.900504)
(0.904646 1.49943 0.884455)
(1.03045 1.50946 0.883273)
(0.583478 1.13992 0.758661)
(0.630116 1.10897 0.692214)
(0.598615 1.11597 0.729019)
(0.598634 1.16757 0.74659)
(0.713283 1.10235 0.616712)
(0.676474 1.11011 0.648456)
(0.660765 1.14463 0.673454)
(0.789221 1.08843 0.568776)
(0.747717 1.0966 0.592985)
(0.741344 1.13989 0.605698)
(0.872836 1.0665 0.534639)
(0.827339 1.0748 0.549849)
(0.814025 1.12047 0.5629)
(0.89142 1.09553 0.533401)
(0.832682 1.3055 0.639856)
(0.781802 1.28884 0.654304)
(0.808989 1.25027 0.614385)
(0.792508 1.20994 0.601767)
(0.842536 1.22672 0.587227)
(0.800718 1.16024 0.57826)
(0.767364 1.18393 0.605521)
(0.732592 1.18971 0.629174)
(0.683953 1.25933 0.705483)
(0.708909 1.2222 0.662894)
(0.734658 1.27071 0.671941)
(0.757337 1.32559 0.697349)
(0.68291 1.1783 0.662998)
(0.608606 1.2356 0.772585)
(0.646611 1.24526 0.732915)
(0.621155 1.2011 0.736806)
(0.872253 1.17798 0.558782)
(0.88935 1.21848 0.571317)
(0.933497 1.22322 0.563848)
(0.904019 1.27175 0.592457)
(0.839081 1.14657 0.559305)
(0.885382 1.13823 0.543628)
(0.924512 1.12695 0.5329)
(0.969065 1.18595 0.545038)
(0.984165 1.23947 0.566051)
(0.961077 1.13846 0.532044)
(0.877407 1.31001 0.62537)
(0.85007 1.34828 0.665356)
(0.922274 1.31487 0.617835)
(0.581557 1.30332 0.897619)
(0.781799 1.36748 0.722152)
(0.636147 1.17728 0.70665)
(0.722004 1.43291 0.891328)
(0.810244 1.40799 0.754041)
(0.833945 1.38467 0.711832)
(0.87953 1.38946 0.697421)
(0.83353 1.43639 0.780994)
(0.780735 1.41905 0.79075)
(0.762925 1.43341 0.834202)
(0.915955 1.41668 0.717503)
(0.968551 1.43855 0.735155)
(0.915486 1.44704 0.761413)
(1.01597 1.4208 0.708866)
(1.01598 1.45163 0.753046)
(0.875206 1.45461 0.791306)
(0.931905 1.38031 0.670862)
(0.971147 1.37887 0.662359)
(0.934606 1.35141 0.642205)
(1.01012 1.38839 0.671479)
(1.0125 1.35935 0.642762)
(0.846962 1.48186 0.872822)
(0.805221 1.46384 0.862204)
(0.764243 1.44994 0.878563)
(0.845512 1.46512 0.828024)
(0.961122 1.31327 0.609231)
(0.992386 1.28358 0.588072)
(1.00512 1.32034 0.612429)
(0.9049 0.904464 1.24577)
(0.876951 0.782365 1.12316)
(0.779337 0.849082 1.09079)
(0.862864 0.971499 1.24765)
(0.726776 0.938756 1.07279)
(0.836394 0.912844 1.21143)
(0.900647 0.834738 1.20022)
(0.818753 0.85705 1.15839)
(0.766417 0.94227 1.15416)
(0.930532 0.968467 1.27395)
(0.841086 0.775843 1.05488)
(0.802645 0.986376 1.20745)
(0.736943 1.00075 1.12723)
(0.901109 0.744218 1.05452)
(0.709831 1.01002 1.05891)
(0.707556 1.03991 1.02945)
(0.714989 1.03855 1.07265)
(0.72863 1.03392 1.10681)
(0.749968 1.03031 1.14631)
(0.723501 1.00541 1.09299)
(0.889046 0.808732 1.16144)
(0.859847 0.846046 1.17923)
(0.847949 0.819768 1.14075)
(0.828365 0.815766 1.10691)
(0.799208 0.85312 1.12445)
(0.810415 0.812513 1.07284)
(0.85917 0.77916 1.08894)
(0.889159 0.763337 1.08881)
(0.871129 0.760048 1.05469)
(0.935506 0.806622 1.18345)
(0.923878 0.780579 1.14477)
(0.921349 0.759379 1.10523)
(0.933393 0.740248 1.07087)
(0.773142 0.895863 1.12233)
(0.746738 0.940588 1.11331)
(0.753315 0.894027 1.08175)
(0.732851 0.911314 1.03636)
(0.759242 0.866497 1.04529)
(0.751744 0.971557 1.14069)
(0.731904 0.969827 1.09994)
(0.717165 0.956713 1.03637)
(0.718391 0.974435 1.06585)
(0.708594 0.992336 1.02943)
(0.9471 0.915877 1.25943)
(0.959821 0.94774 1.27364)
(0.91775 0.936587 1.25982)
(0.966512 0.99397 1.28168)
(0.896782 0.970109 1.26082)
(0.883914 0.938067 1.24676)
(0.92078 1.00171 1.27367)
(0.886949 1.00329 1.26047)
(0.868611 0.873919 1.20584)
(0.827731 0.885078 1.18477)
(0.792787 0.899767 1.15627)
(0.801677 0.927668 1.18265)
(0.857075 0.763284 1.02745)
(0.818415 0.791152 1.02738)
(0.887094 0.747481 1.02723)
(0.787654 0.827834 1.04535)
(0.941639 0.874362 1.23827)
(0.902857 0.869733 1.2229)
(0.870705 0.908771 1.22863)
(0.93953 0.839537 1.21549)
(0.849662 0.942267 1.22952)
(0.84584 1.01022 1.23911)
(0.783004 1.02316 1.18648)
(0.815681 1.01764 1.21889)
(0.832878 0.979025 1.22756)
(0.770101 0.993656 1.16706)
(0.932588 0.733038 1.02731)
(0.78465 0.964419 1.18066)
(0.819583 0.949687 1.20949)
(0.757253 1.13966 1.12225)
(0.958307 1.29408 1.12345)
(0.904464 1.30199 1.06398)
(0.929834 1.24572 1.18266)
(0.866749 1.1939 1.1979)
(0.945797 1.16443 1.24921)
(0.875108 1.25747 1.13562)
(0.830515 1.26059 1.07196)
(0.88283 1.11413 1.24849)
(0.984516 1.32101 1.05737)
(0.812307 1.20785 1.13633)
(0.814234 1.13893 1.19281)
(0.763305 1.19459 1.06591)
(0.726602 1.1294 1.05629)
(0.950466 1.09085 1.27672)
(0.867482 1.28132 1.068)
(0.889916 1.27983 1.09984)
(0.852943 1.2591 1.10366)
(0.821545 1.23428 1.10416)
(0.843722 1.23269 1.13599)
(0.916796 1.2758 1.12955)
(0.944183 1.26999 1.15307)
(0.902591 1.25173 1.1591)
(0.93158 1.29812 1.09361)
(0.898287 1.21986 1.19033)
(0.871108 1.22582 1.16677)
(0.839711 1.20101 1.16701)
(0.723405 1.09823 1.07137)
(0.71597 1.09956 1.02808)
(0.760223 1.09976 1.14389)
(0.738727 1.10335 1.10423)
(0.741983 1.13456 1.08914)
(1.00112 1.28034 1.14811)
(1.00462 1.30224 1.10743)
(0.971541 1.30763 1.09047)
(1.01768 1.31581 1.07422)
(1.01883 1.32342 1.02882)
(0.981929 1.13879 1.26326)
(0.988975 1.18123 1.24318)
(0.981387 1.22202 1.2097)
(0.986895 1.25595 1.17778)
(0.938122 1.2052 1.21586)
(0.984092 1.10185 1.27696)
(0.976559 1.05523 1.28317)
(0.948235 1.12771 1.26304)
(0.855728 1.08153 1.23947)
(0.89704 1.07457 1.26102)
(0.916793 1.10258 1.26265)
(0.930725 1.06287 1.27504)
(0.848749 1.12667 1.22058)
(0.821651 1.09392 1.21161)
(0.914319 1.13932 1.24887)
(0.875033 1.1541 1.22315)
(0.840502 1.16646 1.19537)
(0.906533 1.17929 1.22348)
(0.729756 1.14474 1.02816)
(0.788689 1.09941 1.17908)
(0.785967 1.13936 1.15731)
(0.760386 1.16716 1.09408)
(0.744992 1.16201 1.06106)
(0.787973 1.20124 1.10091)
(0.784872 1.17376 1.12921)
(0.81345 1.17348 1.16455)
(0.970755 1.32229 1.02863)
(0.944749 1.31143 1.06068)
(0.930776 1.31278 1.0321)
(0.74809 1.17735 1.03284)
(0.775484 1.21584 1.033)
(0.847657 1.27699 1.03607)
(0.809111 1.24884 1.03582)
(0.797001 1.22758 1.06888)
(0.884606 1.29766 1.03189)
(0.877086 1.12642 0.758642)
(0.981225 1.29206 0.866014)
(0.792179 1.21533 0.904943)
(0.95583 1.16814 0.75038)
(0.820841 1.18554 0.832496)
(0.892883 1.26548 0.862742)
(0.815172 1.10619 0.792271)
(0.893243 1.20489 0.795548)
(0.760409 1.13119 0.866237)
(0.956493 1.24173 0.804548)
(0.949291 1.31423 0.935261)
(0.951233 1.09422 0.723916)
(0.84907 1.2765 0.939619)
(0.73677 1.15396 0.94442)
(0.74029 1.09915 0.890044)
(0.761703 1.09553 0.850321)
(0.721131 1.11184 0.97232)
(0.72854 1.11053 0.928987)
(0.74869 1.14263 0.905444)
(0.788092 1.11876 0.829487)
(0.789102 1.08305 0.813453)
(0.821935 1.07753 0.780874)
(0.894222 1.08075 0.742532)
(0.914354 1.11044 0.741224)
(0.931113 1.06456 0.725319)
(0.953625 1.13123 0.737086)
(0.916512 1.14732 0.754518)
(0.857092 1.19529 0.814073)
(0.885315 1.16569 0.777101)
(0.849356 1.15615 0.795683)
(0.92478 1.18662 0.773013)
(0.852822 1.08769 0.764039)
(0.846189 1.11639 0.775468)
(0.818179 1.14591 0.812394)
(0.73484 1.15701 0.972226)
(0.790734 1.15837 0.849498)
(0.776434 1.1733 0.885571)
(0.806705 1.2005 0.868846)
(0.76453 1.18469 0.924803)
(0.976944 1.05692 0.717145)
(0.984472 1.10354 0.723344)
(0.986907 1.14064 0.736523)
(0.924948 1.25375 0.833747)
(0.924909 1.22332 0.800042)