/*--------------------------------*- C++ -*----------------------------------*\
| =========                 |                                                 |
| \\      /  F ield         | OpenFOAM: The Open Source CFD Toolbox           |
|  \\    /   O peration     | Version:  v1806                                 |
|   \\  /    A nd           | Web:      www.OpenFOAM.com                      |
|    \\/     M anipulation  |                                                 |
\*---------------------------------------------------------------------------*/
FoamFile
{
    version     2.0;
    format      ascii;
    class       surfaceScalarField;
    location    "0.01";
    object      phi;
}
// * * * * * * * * * * * * * * * * * * * * * * * * * * * * * * * * * * * * * //

dimensions      [0 3 -1 0 0 0 0];
oriented        oriented;


internalField   nonuniform List<scalar> 
187200
(
8.9041e-06
-1.19258e-06
-7.71052e-06
3.20164e-05
-9.72166e-06
-1.33907e-05
5.31502e-05
-8.5171e-06
-1.26168e-05
7.09999e-05
-6.623e-06
-1.12267e-05
8.60588e-05
-4.50075e-06
-1.05582e-05
0.000100403
-2.68957e-06
-1.16551e-05
0.000114584
-1.46583e-06
-1.27153e-05
0.000127097
1.26239e-06
-1.37749e-05
0.000136162
5.18012e-06
-1.42459e-05
0.000140687
1.17081e-05
-1.62324e-05
0.000142363
1.49782e-05
-1.66549e-05
0.00013662
2.06995e-05
-1.4956e-05
0.000116254
2.86746e-05
-8.30813e-06
8.17114e-05
3.3194e-05
1.3481e-06
3.78741e-05
2.85221e-05
1.53152e-05
-2.05857e-05
3.89892e-05
1.94704e-05
-8.94798e-05
5.74512e-05
1.1443e-05
-0.000175756
7.74082e-05
8.86795e-06
-0.000281847
0.000103289
2.80121e-06
-0.000409249
0.000140391
-1.29888e-05
-0.000529206
0.000178974
-5.90166e-05
-0.000621428
0.000220418
-0.000128197
-0.000684789
0.000267341
-0.00020398
-0.000714851
0.000311476
-0.000281414
-0.00070312
0.000350559
-0.00036229
-0.000646871
0.000380177
-0.000436427
-0.000551465
0.000399834
-0.00049524
-0.000422887
0.000404768
-0.000533346
-0.000264193
0.000388815
-0.000547509
-0.000102782
0.000361796
-0.000523207
1.65688e-05
0.000328483
-0.000447834
9.29966e-05
0.000283768
-0.000360196
0.000113133
0.00022409
-0.000244226
9.83856e-05
0.000168405
-0.000153658
7.13173e-05
0.00011929
-9.22214e-05
4.91146e-05
7.99998e-05
-5.77966e-05
2.80199e-05
5.53606e-05
-3.42656e-05
1.20388e-05
4.19314e-05
-2.59504e-05
1.71903e-06
3.14425e-05
-2.11228e-05
1.79506e-05
-1.62315e-05
1.61444e-05
-7.19393e-06
-1.01432e-05
5.16397e-05
-2.29251e-05
-2.22919e-05
8.6959e-05
-1.93934e-05
-2.44431e-05
0.000115448
-9.37282e-06
-2.57394e-05
0.000136137
3.02529e-06
-2.82149e-05
0.000149718
1.60653e-05
-3.23359e-05
0.000157085
2.9613e-05
-3.84462e-05
0.000156767
4.81226e-05
-4.65423e-05
0.000146599
6.96986e-05
-5.43505e-05
0.000127679
9.4413e-05
-6.37852e-05
8.69887e-05
0.000130784
-7.51152e-05
2.35456e-05
0.000168303
-8.416e-05
-6.60605e-05
0.000210609
-9.23286e-05
-0.000189785
0.000264164
-0.000107245
-0.000359442
0.000329585
-0.000131406
-0.000549675
0.000397713
-0.000168492
-0.000744328
0.000470405
-0.000218301
-0.00093492
0.000549516
-0.000281516
-0.00111129
0.000636024
-0.000356362
-0.00125611
0.000726792
-0.000441579
-0.0013608
0.000820647
-0.000536989
-0.00142521
0.000920109
-0.000635283
-0.00144125
0.00101098
-0.000727594
-0.00139809
0.00108064
-0.000812318
-0.0012984
0.00113554
-0.000884671
-0.00114615
0.00116673
-0.000938802
-0.000949142
0.00117097
-0.000968141
-0.000723237
0.00114445
-0.000965583
-0.000495938
0.00108673
-0.000925213
-0.000282965
0.000995966
-0.000847143
-8.58146e-05
0.000868159
-0.000736825
6.53477e-05
0.000730699
-0.000598093
0.000142282
0.000589382
-0.000442226
0.000167239
0.000458138
-0.00031469
0.000151813
0.000345411
-0.000210694
0.000117336
0.000256734
-0.000142257
7.96757e-05
0.000192932
-9.99115e-05
4.8813e-05
0.000149433
-7.6639e-05
1.99042e-05
0.000115028
-5.46765e-05
7.02662e-05
-3.24112e-05
2.05775e-05
-1.29409e-05
-1.48306e-05
6.05225e-05
-3.05394e-05
-3.23305e-05
0.000100137
-1.90739e-05
-3.99344e-05
0.000129126
6.03878e-06
-4.44005e-05
0.000144766
3.6537e-05
-4.91517e-05
0.000149519
6.94926e-05
-5.81796e-05
0.000141769
0.000108807
-7.14446e-05
0.000121666
0.000156868
-8.86425e-05
9.01979e-05
0.00021388
-0.000112714
2.81392e-05
0.000284392
-0.00012792
-6.15126e-05
0.000363078
-0.000142642
-0.000188443
0.0004543
-0.000159067
-0.000356457
0.000558055
-0.000179431
-0.000544942
0.000661388
-0.000208739
-0.000739628
0.000768208
-0.000243937
-0.000935382
0.000879657
-0.00028619
-0.00112501
0.000995695
-0.00033566
-0.00129738
0.00111318
-0.000391289
-0.00144218
0.00123056
-0.000449749
-0.00155213
0.00134481
-0.000508059
-0.00162267
0.00145388
-0.000562698
-0.00164736
0.00155753
-0.000612731
-0.00163111
0.00164397
-0.000649241
-0.00156897
0.00169789
-0.000679391
-0.00145954
0.00172528
-0.000699166
-0.00131014
0.00172208
-0.000704749
-0.00112931
0.0016837
-0.000693569
-0.000927836
0.00160793
-0.000664953
-0.000717899
0.00149635
-0.000619556
-0.000513213
0.00135062
-0.000559342
-0.000340768
0.00118617
-0.000490459
-0.000192228
0.00100105
-0.000418895
-7.90981e-05
0.000816357
-0.000340104
-3.19888e-06
0.000648533
-0.000266293
3.35098e-05
0.000505441
-0.000196739
4.73714e-05
0.000397479
-0.000154607
4.58243e-05
0.000316584
-0.000122104
3.57775e-05
0.000258779
-9.9299e-05
1.63447e-05
0.000202753
-6.82922e-05
0.000119388
-3.27774e-05
2.2082e-05
-1.13394e-05
-2.36834e-05
6.45988e-05
-2.35155e-05
-4.95407e-05
0.000104895
3.87649e-06
-6.32465e-05
0.000128656
5.11532e-05
-6.8875e-05
0.000136197
0.000104373
-7.53775e-05
0.000126581
0.000169574
-9.04664e-05
0.000105361
0.000244558
-0.000114531
7.00563e-05
0.000334026
-0.000141853
5.57943e-06
0.000441082
-0.000162725
-9.00852e-05
0.000557433
-0.000177377
-0.000221338
0.000681837
-0.000187507
-0.000376226
0.000811493
-0.000202305
-0.000540576
0.000942385
-0.00021998
-0.000712622
0.00107217
-0.000238738
-0.000885741
0.00119832
-0.00025699
-0.00105209
0.00132149
-0.000275482
-0.0012036
0.00144034
-0.000293137
-0.0013343
0.00155278
-0.000308908
-0.00143912
0.00165595
-0.000320559
-0.00151564
0.00174716
-0.000325841
-0.00156059
0.00182529
-0.000326464
-0.00157276
0.00189092
-0.000321225
-0.00155774
0.00193624
-0.000307294
-0.00151043
0.00194372
-0.000293147
-0.00143119
0.00192278
-0.000276743
-0.00132412
0.00187492
-0.000259902
-0.00119592
0.0017972
-0.000241707
-0.00105113
0.00168688
-0.000223737
-0.000894311
0.00154634
-0.000206812
-0.000734586
0.00138469
-0.000193792
-0.000573751
0.00121529
-0.000189954
-0.000423331
0.00103984
-0.000189203
-0.000293768
0.000873443
-0.000186648
-0.000186645
0.000721651
-0.000180241
-0.000108161
0.000591942
-0.000164985
-4.97537e-05
0.000488614
-0.000149542
-1.05317e-05
0.000407926
-0.000130564
1.17172e-05
0.000346627
-0.000110096
1.08217e-05
0.000278701
-7.50522e-05
0.00016067
-3.04602e-05
2.45947e-05
2.87681e-06
-3.88109e-05
7.20173e-05
1.0383e-05
-8.13211e-05
0.000112167
6.05927e-05
-9.68661e-05
0.000132385
0.000129863
-9.89279e-05
0.000128903
0.000213433
-0.000105578
0.00011266
0.000313332
-0.000127514
8.54301e-05
0.000427098
-0.000155311
3.42783e-05
0.000560791
-0.000175613
-4.03893e-05
0.000703267
-0.000187517
-0.000142675
0.000852556
-0.000192837
-0.000275571
0.00100492
-0.000190188
-0.000416207
0.00114311
-0.000190985
-0.000557256
0.00127333
-0.000189891
-0.000697688
0.00139815
-0.000185551
-0.000835099
0.00151319
-0.000177461
-0.000964556
0.00161613
-0.000165188
-0.00108108
0.00170348
-0.000146613
-0.00117964
0.00177292
-0.000121582
-0.00125894
0.00182431
-8.90584e-05
-0.00132031
0.00186378
-5.5246e-05
-0.00136117
0.00189416
-2.8006e-05
-0.00138077
0.00190917
1.34799e-06
-0.00138015
0.00190145
3.41703e-05
-0.00136246
0.001865
6.10339e-05
-0.00133
0.00181227
7.80634e-05
-0.00127996
0.00174174
8.3128e-05
-0.00121585
0.00165304
8.00563e-05
-0.00113931
0.00154501
6.53242e-05
-0.00104521
0.00141913
3.3112e-05
-0.000934906
0.00127632
-1.93179e-06
-0.000804779
0.0011281
-4.29365e-05
-0.000666005
0.000982356
-8.12927e-05
-0.000518216
0.000846941
-0.000121287
-0.000375362
0.000724289
-0.000145493
-0.00024669
0.00062143
-0.000158161
-0.000141236
0.000539873
-0.000156713
-6.50723e-05
0.000474551
-0.000142789
-1.5725e-05
0.00041694
-0.00011966
3.06962e-06
0.000339272
-7.93654e-05
0.00019233
-2.85904e-05
2.87176e-05
3.83173e-05
-6.41581e-05
8.23514e-05
7.76497e-05
-0.000120901
0.000129427
0.000150742
-0.000137226
0.000145449
0.000243388
-0.000129546
0.000139136
0.000357254
-0.000137509
0.000123838
0.000489226
-0.000160596
9.31495e-05
0.000637252
-0.000179465
4.47698e-05
0.000794087
-0.000184916
-2.3923e-05
0.000955077
-0.000183117
-0.000109996
0.00111211
-0.000173484
-0.000206649
0.00126014
-0.000158562
-0.000321115
0.00139561
-0.000138033
-0.000445073
0.00151358
-0.000116292
-0.000564263
0.00160585
-8.85064e-05
-0.000674445
0.00166827
-4.49031e-05
-0.000773591
0.0017203
-5.02224e-06
-0.000865689
0.00175396
4.16184e-05
-0.000949773
0.00177068
8.63222e-05
-0.00102396
0.00177684
0.000121659
-0.00108636
0.00176966
0.000156525
-0.00113214
0.00174643
0.000193505
-0.00116159
0.00170932
0.000229291
-0.00118334
0.00166692
0.000256291
-0.00120316
0.00161601
0.000268807
-0.00122145
0.0015568
0.000273757
-0.00123113
0.00148569
0.000265735
-0.0012279
0.00140702
0.000242786
-0.00120771
0.00132058
0.000204237
-0.00116948
0.00122652
0.000154385
-0.00110442
0.00112631
8.49501e-05
-0.00100321
0.00101927
7.62241e-06
-0.000876401
0.000910533
-5.49875e-05
-0.000726324
0.000805122
-0.000108258
-0.000556769
0.000712775
-0.000158041
-0.000389355
0.000633837
-0.00017982
-0.000239794
0.000573051
-0.000182739
-0.000120799
0.000521493
-0.000165936
-3.87821e-05
0.000470183
-0.00013526
-8.99115e-07
0.000389491
-8.81019e-05
0.000221141
-2.97097e-05
3.31818e-05
0.000100041
-9.49061e-05
0.000101866
0.000176809
-0.000167844
0.000160639
0.000268088
-0.000176119
0.000177331
0.00038687
-0.000160174
0.00017462
0.000524783
-0.000164818
0.000166959
0.00067701
-0.000180123
0.000145116
0.000843012
-0.000183916
0.000104646
0.00100735
-0.000172795
4.80785e-05
0.00116479
-0.000153146
-2.12575e-05
0.00131042
-0.000128966
-9.87912e-05
0.00143735
-9.96841e-05
-0.000177304
0.00154106
-6.693e-05
-0.000257088
0.00161783
-2.44734e-05
-0.000347479
0.00166668
2.95659e-05
-0.000461249
0.00169675
8.52957e-05
-0.000557359
0.0016914
0.000125012
-0.000644738
0.00167053
0.000170812
-0.000727254
0.00163559
0.000217607
-0.000802408
0.00159168
0.000260316
-0.000866404
0.00153925
0.000294402
-0.000919134
0.00147988
0.000319281
-0.000971878
0.00142711
0.000334956
-0.00102757
0.00137951
0.000343099
-0.00108598
0.00133394
0.000340474
-0.00114601
0.00128888
0.000327946
-0.00120372
0.00123783
0.000305566
-0.00124804
0.00118027
0.000271076
-0.0012722
0.00112263
0.000222116
-0.00127452
0.00106264
0.000166204
-0.00124821
0.000998185
0.000101812
-0.0011745
0.000925518
2.0037e-05
-0.00105952
0.000844726
-4.91682e-05
-0.000907682
0.000765233
-0.00011195
-0.000724006
0.000694867
-0.000165768
-0.000522386
0.000640415
-0.000208198
-0.000332536
0.000597208
-0.000214006
-0.000175177
0.000560177
-0.000196042
-6.39079e-05
0.00051597
-0.000157057
-5.89903e-06
0.000432834
-0.000101352
0.000248515
-3.32724e-05
4.04484e-05
0.00018812
-0.000128527
0.00013421
0.0002944
-0.000211353
0.000206068
0.00041188
-0.000215651
0.000230994
0.000547839
-0.000185894
0.000233946
0.000698996
-0.000177165
0.000232071
0.000859895
-0.000181011
0.000225471
0.00102231
-0.000172695
0.000199217
0.00117973
-0.00014612
0.000154533
0.00132123
-0.000111755
9.76933e-05
0.00143991
-7.26539e-05
3.5681e-05
0.00153312
-3.3753e-05
-3.5051e-05
0.00159793
1.3854e-05
-0.000108291
0.00163307
5.79986e-05
-0.00018729
0.00163774
0.000107939
-0.000269211
0.00161573
0.000162941
-0.000366692
0.00156994
0.000218939
-0.000460189
0.00150203
0.000261996
-0.000549907
0.00143093
0.000294384
-0.00063078
0.00135501
0.000317541
-0.000703267
0.00127916
0.000332575
-0.000777595
0.00121533
0.000338876
-0.000854648
0.00116586
0.000338302
-0.000934409
0.00112703
0.000332242
-0.00101885
0.00109733
0.000321056
-0.00110698
0.00107345
0.000303564
-0.00119561
0.00104678
0.000279675
-0.0012719
0.00101007
0.000246485
-0.00132699
0.00097445
0.000203268
-0.00135788
0.000936626
0.000156907
-0.00136018
0.000890778
0.0001097
-0.00131453
0.000836613
4.32574e-05
-0.00121324
0.000775368
-3.19275e-05
-0.00106326
0.000713035
-9.77877e-05
-0.000868105
0.000662157
-0.000162441
-0.000645638
0.000628275
-0.000210328
-0.000420429
0.000609733
-0.000237734
-0.000227709
0.000589446
-0.000221989
-8.79957e-05
0.000555647
-0.000179389
-1.1539e-05
0.000473771
-0.000117394
0.00027643
-3.94546e-05
5.3955e-05
0.000286635
-0.00015247
0.000171749
0.000429254
-0.000252649
0.00026499
0.000569786
-0.000251146
0.000303789
0.000713401
-0.000204362
0.000314061
0.000865193
-0.000176469
0.00031129
0.00102143
-0.000158759
0.000307496
0.00117172
-0.000145621
0.00029783
0.00130343
-0.00011404
0.00027237
0.00141755
-7.08566e-05
0.000225783
0.00151011
-2.36167e-05
0.000166033
0.00156727
2.55969e-05
9.7192e-05
0.00159237
7.44033e-05
2.20008e-05
0.00158448
0.000123779
-5.96063e-05
0.00154568
0.000173665
-0.000150532
0.00148485
0.000221797
-0.000245276
0.00139955
0.000265132
-0.000345615
0.00131018
0.000292184
-0.000436116
0.00121791
0.000303513
-0.000519121
0.00113076
0.000307252
-0.000605017
0.00105969
0.00030537
-0.000695551
0.00100592
0.000299942
-0.000788924
0.000968987
0.000290244
-0.000886207
0.000945095
0.000279218
-0.00098742
0.000930563
0.000267976
-0.00109087
0.000921184
0.000255722
-0.00119415
0.000909672
0.000240383
-0.00128813
0.000886461
0.000217587
-0.00136557
0.000860617
0.000191277
-0.00141995
0.000831414
0.000159589
-0.00144299
0.000792984
0.000120837
-0.00142205
0.000740578
7.50925e-05
-0.00134055
0.000682797
1.10723e-05
-0.00119358
0.000631027
-6.49564e-05
-0.000993637
0.000597559
-0.000135349
-0.000754813
0.000587129
-0.000197677
-0.000504812
0.000593437
-0.000233705
-0.00027958
0.000600687
-0.000236473
-0.000112505
0.00058454
-0.000195967
-1.77581e-05
0.000510125
-0.0001311
0.000304234
-4.55626e-05
7.27476e-05
0.000379633
-0.000165745
0.000212449
0.000575233
-0.00028568
0.000331113
0.000731277
-0.000280155
0.000388101
0.000871451
-0.000215038
0.000406897
0.00101302
-0.000166621
0.000405313
0.00115297
-0.000129963
0.000394239
0.00128229
-9.94908e-05
0.000379347
0.00139035
-7.20247e-05
0.000357907
0.00147096
-3.1976e-05
0.000327035
0.00152104
1.99454e-05
0.000276612
0.00154668
7.10153e-05
0.000207834
0.00154008
0.000121068
0.000124935
0.00149784
0.00016954
3.04081e-05
0.00142639
0.000213816
-7.41966e-05
0.00134076
0.0002487
-0.00017832
0.00123128
0.000272399
-0.000272769
0.0011273
0.000277328
-0.000361152
0.00103447
0.000271829
-0.000453284
0.000959811
0.000263086
-0.000548597
0.000902087
0.000252916
-0.000647449
0.0008621
0.000242678
-0.00074999
0.000837527
0.000234001
-0.000855797
0.000823428
0.000227474
-0.000964461
0.000815633
0.000223594
-0.00107477
0.00081021
0.000221282
-0.0011832
0.000800428
0.000217673
-0.00128602
0.000781761
0.00020752
-0.00137994
0.000757818
0.000196721
-0.00145526
0.000728288
0.000178447
-0.00150339
0.000687797
0.000153315
-0.00150444
0.000637739
0.000103893
-0.0014446
0.000588321
3.46333e-05
-0.00130747
0.000543978
-5.00797e-05
-0.00110303
0.000514106
-0.000120992
-0.000851662
0.000512614
-0.000176853
-0.000581152
0.000544014
-0.000221087
-0.000328281
0.000585519
-0.000237702
-0.000136351
0.000596403
-0.000203792
-2.50003e-05
0.000538628
-0.000139854
0.000329984
-5.07503e-05
8.7192e-05
0.000463601
-0.000171161
0.00025252
0.00071898
-0.000309075
0.000397396
0.000887126
-0.000300725
0.000474423
0.00101607
-0.000221643
0.000502897
0.00113628
-0.000151734
0.000504069
0.001252
-0.000100196
0.000488174
0.0013554
-5.72165e-05
0.000464009
0.00143581
-2.12986e-05
0.000429865
0.00148839
1.67115e-05
0.000386032
0.00150869
5.61807e-05
0.000333831
0.00149905
9.9826e-05
0.000267681
0.0014585
0.000147729
0.00018321
0.00139021
0.000192107
7.89158e-05
0.00130116
0.000229522
-2.47999e-05
0.00119669
0.000247784
-0.000125067
0.0010804
0.000251145
-0.000221641
0.000983524
0.000240355
-0.000317677
0.000903583
0.000226919
-0.000412814
0.000841509
0.000213439
-0.000510044
0.000797046
0.00020227
-0.000610088
0.000766794
0.00019535
-0.000713094
0.000747051
0.000193481
-0.000818244
0.000733456
0.000195123
-0.000925584
0.000723097
0.000199876
-0.00103513
0.000712299
0.000207453
-0.00114573
0.00069637
0.000214665
-0.00125604
0.00067588
0.000216191
-0.00136309
0.000648286
0.000216578
-0.00145984
0.000612989
0.000212047
-0.00152942
0.000574473
0.000182901
-0.0015541
0.000534061
0.000128359
-0.00152245
0.000497604
5.90744e-05
-0.0014085
0.000465405
-3.53805e-05
-0.00121185
0.000438124
-0.000120668
-0.000948731
0.000428627
-0.000179134
-0.000653956
0.000460753
-0.000211513
-0.000377816
0.000532346
-0.000222967
-0.000159283
0.000587435
-0.000209566
-3.27949e-05
0.000556261
-0.000144121
0.00035234
-5.51512e-05
9.80887e-05
0.000532774
-0.000167261
0.000288381
0.000849128
-0.000320441
0.000459081
0.00102806
-0.000311638
0.000554506
0.00114361
-0.000222963
0.000593391
0.00123866
-0.000141265
0.000596739
0.00132247
-7.38185e-05
0.000579958
0.00139397
-2.17956e-05
0.000548233
0.00144679
2.07476e-05
0.000502917
0.00147532
5.83897e-05
0.000447237
0.00147241
9.1963e-05
0.000384711
0.00143866
0.000122923
0.00030547
0.00137571
0.00016203
0.000208348
0.00128736
0.000199966
0.00010355
0.0011807
0.000225262
5.83402e-06
0.00106709
0.00022732
-9.74718e-05
0.0009638
0.000219906
-0.000191188
0.000875802
0.000201439
-0.0002847
0.000810869
0.000186227
-0.000377616
0.000760372
0.000174052
-0.000471562
0.000723587
0.000167405
-0.000566686
0.000695112
0.000166805
-0.000663654
0.000672012
0.000172008
-0.000761949
0.000651856
0.000179894
-0.000862112
0.000632797
0.000190463
-0.000966143
0.000612169
0.000204161
-0.00107355
0.000589531
0.000214248
-0.0011902
0.000563927
0.0002286
-0.00131088
0.000532108
0.000236862
-0.00142602
0.000494895
0.000233234
-0.00151858
0.000461737
0.000205293
-0.00157426
0.000436452
0.00015329
-0.00157657
0.000406194
9.37214e-05
-0.00149341
0.00036892
1.33187e-05
-0.00131325
0.000338491
-8.05278e-05
-0.00104808
0.00033119
-0.000167733
-0.000731185
0.000365243
-0.00022138
-0.000422577
0.000446518
-0.00022278
-0.000182446
0.00054477
-0.000197466
-4.09947e-05
0.000558197
-0.000143387
0.000370089
-5.87434e-05
0.000106213
0.000582126
-0.000155565
0.000317871
0.00095664
-0.00031917
0.000512729
0.00114697
-0.000313762
0.000626018
0.00124922
-0.000218901
0.000673506
0.00131867
-0.000127499
0.00067841
0.0013731
-5.55363e-05
0.000660397
0.00141373
-1.74631e-06
0.00062276
0.001437
4.74328e-05
0.000571163
0.00143934
8.75788e-05
0.000507622
0.00141741
0.000118538
0.000434535
0.00136613
0.000145608
0.000351143
0.00128825
0.000170857
0.000249991
0.00118857
0.000199945
0.000138336
0.00107855
0.000213802
3.22792e-05
0.000966799
0.000206345
-7.17706e-05
0.000877972
0.000189877
-0.000163458
0.000797344
0.000170146
-0.000250826
0.000741938
0.000156299
-0.000337799
0.000697905
0.000149441
-0.000424139
0.000661547
0.00014838
-0.00051062
0.000628547
0.000153046
-0.000597518
0.000597084
0.000161826
-0.000684826
0.000567134
0.00017203
-0.000774388
0.000537862
0.000184498
-0.000870255
0.000507354
0.000200683
-0.000974225
0.000477622
0.000215878
-0.00109134
0.000447843
0.000233202
-0.00122169
0.000418603
0.000243847
-0.00135116
0.000383866
0.000240504
-0.00146326
0.000350063
0.000223774
-0.00155277
0.000327285
0.000198678
-0.00159469
0.000293954
0.000154156
-0.00155146
0.000235423
9.02697e-05
-0.00140395
0.000189282
1.69865e-06
-0.00114745
0.000175917
-0.000101225
-0.000820631
0.000235517
-0.000197097
-0.000476063
0.000338787
-0.000236837
-0.000205685
0.000474527
-0.000200137
-4.73469e-05
0.000543504
-0.000143646
0.000385736
-6.29934e-05
0.000111449
0.000610455
-0.000139777
0.000340053
0.00103721
-0.000309172
0.000555835
0.00123953
-0.000308339
0.000685723
0.00132972
-0.000210388
0.000741474
0.00137628
-0.000113367
0.000747661
0.00140344
-3.65303e-05
0.000727594
0.00141591
1.78923e-05
0.000686251
0.00141408
6.42587e-05
0.000630735
0.00139481
0.000100044
0.000561775
0.00135347
0.000132905
0.000481681
0.00128693
0.000159302
0.000391071
0.00120027
0.000178587
0.000284295
0.00109996
0.000195383
0.000168198
0.000993481
0.000201166
5.79445e-05
0.00088939
0.000187663
-3.86284e-05
0.000807882
0.000166663
-0.000129459
0.000738223
0.000149952
-0.000210135
0.000684201
0.000138413
-0.000289762
0.000641176
0.000136356
-0.000367066
0.000599747
0.000139104
-0.000443416
0.000559109
0.000145788
-0.000519348
0.000518995
0.000154021
-0.00059495
0.000480343
0.000162393
-0.000673697
0.000442786
0.000173821
-0.000759586
0.000406417
0.000186826
-0.000857286
0.000371883
0.000203439
-0.000968086
0.000338228
0.000220416
-0.00109547
0.000307158
0.000238833
-0.00123086
0.000269633
0.000249619
-0.00136004
0.000225933
0.000253305
-0.00148541
0.000209392
0.000243264
-0.00156097
0.000155488
0.00021403
-0.00156521
8.50622e-05
0.0001546
-0.00146701
2.24076e-05
6.86725e-05
-0.00124952
-6.03329e-06
-3.55358e-05
-0.000914402
3.85031e-05
-0.000138108
-0.00054754
0.000187442
-0.000215517
-0.000229855
0.000372385
-0.000215544
-5.40976e-05
0.000507465
-0.00013972
0.000397187
-6.55486e-05
0.000113398
0.000616797
-0.00011974
0.000353693
0.00108787
-0.000290956
0.000586564
0.0013037
-0.000297041
0.000732246
0.00138578
-0.000201742
0.000796895
0.00141199
-0.000100358
0.000805272
0.00141427
-1.92038e-05
0.000782771
0.00140197
3.64413e-05
0.000738752
0.00137817
7.99258e-05
0.00068137
0.00134024
0.000111947
0.00060887
0.0012859
0.000140069
0.000519053
0.00121319
0.00016355
0.000418838
0.00112359
0.000176902
0.000313523
0.00102174
0.000183532
0.000201515
0.000918822
0.000186667
9.1571e-05
0.000823576
0.000175759
-1.19206e-06
0.000747736
0.00015291
-8.886e-05
0.000687685
0.000138206
-0.000164294
0.000630788
0.000128846
-0.000235816
0.000583707
0.000128992
-0.000304615
0.000535392
0.000133154
-0.000371856
0.000487729
0.00013862
-0.000437722
0.000441356
0.000143505
-0.000502486
0.000396856
0.00014825
-0.000570923
0.000354291
0.000156933
-0.000646279
0.000314798
0.000166975
-0.000733675
0.00027744
0.00018184
-0.000834743
0.000239797
0.000199498
-0.000949911
0.000199416
0.000222909
-0.00108426
0.000156558
0.000247426
-0.00122842
0.000105166
0.000264925
-0.00136633
7.65003e-05
0.000270805
-0.00147903
1.60641e-05
0.000252124
-0.00153347
-6.50203e-05
0.000204523
-0.00148508
-0.000153118
0.000127134
-0.00131533
-0.000209396
3.36112e-05
-0.00100716
-0.000187204
-8.24644e-05
-0.000618172
-3.11218e-05
-0.000170424
-0.000274903
0.000238783
-0.000209666
-6.13815e-05
0.000432774
-0.00013883
0.000401255
-6.54506e-05
0.000111608
0.000603496
-9.83067e-05
0.000359306
0.00111028
-0.000270113
0.000606617
0.0013386
-0.000282219
0.000767162
0.00141513
-0.000189896
0.000840651
0.00142443
-8.59276e-05
0.000851027
0.00140611
-2.21882e-06
0.000827076
0.00137395
5.1967e-05
0.00078213
0.00133263
9.04896e-05
0.000721008
0.00128349
0.000117876
0.000641682
0.00122178
0.000143445
0.000547722
0.00114444
0.000162713
0.000444764
0.00105226
0.00017429
0.000340368
0.000952874
0.000173267
0.000235826
0.000854677
0.000168688
0.0001292
0.000766862
0.000163339
3.45521e-05
0.00069432
0.000148065
-4.54981e-05
0.000635688
0.000132048
-0.000116305
0.000577146
0.000124449
-0.000179848
0.000523878
0.000123372
-0.000241969
0.000470737
0.000126776
-0.000302502
0.00041917
0.000129092
-0.00036065
0.000369591
0.000129912
-0.0004173
0.000322299
0.000131207
-0.000477043
0.000277172
0.00013686
-0.000542337
0.000235696
0.000144396
-0.000617267
0.000195384
0.000156985
-0.0007065
0.000152561
0.000176469
-0.000808759
0.00010285
0.000198825
-0.000925616
4.86494e-05
0.000224766
-0.00107749
6.6817e-06
0.00025036
-0.00122233
-4.58512e-05
0.000267193
-0.00135588
-0.00011691
0.000266518
-0.00145012
-0.000208279
0.000237498
-0.00145666
-0.000325374
0.000178803
-0.00134374
-0.000418525
9.6209e-05
-0.00108598
-0.000436597
-8.3717e-06
-0.000694436
-0.000302744
-0.000119921
-0.000318614
3.57221e-05
-0.00017276
-6.73659e-05
0.000337934
-0.000156408
0.000398182
-6.4294e-05
0.000105349
0.000574319
-7.61716e-05
0.000356629
0.00110621
-0.000247205
0.000615938
0.00134735
-0.000268053
0.000790989
0.0014221
-0.000182021
0.0008743
0.00141833
-7.72112e-05
0.000888799
0.00138271
8.90127e-06
0.000863104
0.00133458
6.5071e-05
0.000812939
0.0012807
0.000102095
0.000747
0.00122376
0.000125668
0.000666397
0.0011566
0.000145781
0.000572817
0.00107616
0.000161861
0.00047074
0.000985236
0.000169097
0.000367216
0.00089032
0.000166077
0.000267811
0.000797483
0.000156599
0.000171982
0.000714593
0.0001481
8.03938e-05
0.000642791
0.000143117
2.59229e-06
0.000582767
0.000130722
-6.64078e-05
0.000523867
0.000122279
-0.000125646
0.00046498
0.000118136
-0.000183946
0.000410308
0.000118729
-0.0002399
0.000357439
0.000117684
-0.00029309
0.000307183
0.000115598
-0.000344662
0.0002592
0.000114671
-0.000397374
0.000213153
0.000116731
-0.000454633
0.000169188
0.000123767
-0.000519902
0.000126686
0.000133967
-0.000596004
7.92758e-05
0.000149387
-0.000681667
2.05146e-05
0.000167998
-0.000787783
-3.55994e-05
0.000190365
-0.000922284
-7.88067e-05
0.00021999
-0.00106607
-0.000149059
0.000246993
-0.00120915
-0.000236918
0.000263085
-0.00132723
-0.000344668
0.000254474
-0.00138297
-0.000481019
0.000211378
-0.00132708
-0.00061209
0.00013768
-0.00113376
-0.000674533
4.4613e-05
-0.000774388
-0.000597049
-6.50659e-05
-0.000360349
-0.000244009
-0.000134308
-7.87227e-05
0.000204507
-0.000148199
0.000366924
-4.74638e-05
9.70316e-05
0.000531213
-5.39264e-05
0.000348869
0.00107476
-0.000220385
0.000615969
0.00133122
-0.000250976
0.000804377
0.00140988
-0.00017619
0.000898089
0.00139779
-7.31657e-05
0.000918186
0.00134859
1.40278e-05
0.000890498
0.00128896
7.3301e-05
0.000835564
0.00122492
0.000110716
0.000767251
0.0011604
0.00013167
0.000687724
0.00108969
0.000146433
0.000597221
0.00100867
0.000157994
0.000497359
0.000919951
0.000165147
0.000395073
0.000829377
0.000163229
0.000299571
0.000743703
0.000149283
0.000211365
0.000663605
0.000139194
0.00012745
0.000593453
0.000133252
5.08986e-05
0.000530016
0.000129303
-1.84837e-05
0.000472761
0.000120488
-7.64767e-05
0.000409855
0.000113118
-0.000131901
0.000355538
0.000110193
-0.000185117
0.000303783
0.000106871
-0.000235458
0.000254283
0.000103241
-0.000283742
0.000206871
0.000100612
-0.000332537
0.000160297
0.000101652
-0.000384747
0.000114283
0.000107114
-0.000443714
7.10401e-05
0.000114613
-0.000504782
1.51492e-05
0.000125195
-0.000580192
-4.4393e-05
0.000140318
-0.000675017
-0.000101959
0.000161184
-0.000783446
-0.000156126
0.000185749
-0.000919142
-0.000229264
0.0002159
-0.00105922
-0.000336412
0.00023957
-0.00119076
-0.000461462
0.000248338
-0.00128106
-0.000617183
0.000226458
-0.00127871
-0.000783898
0.000169459
-0.00113916
-0.000904029
8.99447e-05
-0.000844223
-0.000882861
-9.12011e-06
-0.000405505
-0.000590331
-9.23962e-05
-7.73303e-05
-1.34888e-05
-0.000110179
0.000309595
-2.00002e-05
8.82719e-05
0.000472052
-2.91102e-05
0.000333586
0.00102123
-0.00019179
0.000604482
0.0012923
-0.000231977
0.000804776
0.00137851
-0.000168927
0.000909463
0.00136353
-7.04308e-05
0.000936717
0.00130501
1.63273e-05
0.000911975
0.00123641
7.72937e-05
0.00085605
0.00116518
0.000115663
0.000786851
0.0010934
0.000136205
0.00070797
0.00102026
0.000148313
0.00061979
0.000941328
0.000155519
0.000524858
0.000856917
0.000157966
0.00042734
0.000770891
0.000156004
0.000333098
0.000688753
0.000149191
0.000248769
0.000613766
0.000134167
0.000170856
0.000544103
0.000127263
9.73489e-05
0.000480138
0.000123386
3.2347e-05
0.0004208
0.000116963
-3.01461e-05
0.000363532
0.000108815
-8.48345e-05
0.000307559
0.000102668
-0.000136781
0.000257794
9.79354e-05
-0.000185631
0.000209638
9.34945e-05
-0.000232251
0.000163415
9.00756e-05
-0.00027994
0.000117022
9.09635e-05
-0.000328656
6.98585e-05
9.31399e-05
-0.000378161
2.35791e-05
9.69657e-05
-0.000429896
-3.7893e-05
0.000104777
-0.000497031
-9.48062e-05
0.000117548
-0.00057952
-0.000153378
0.000133909
-0.000672975
-0.000219103
0.000156432
-0.000787468
-0.000298554
0.000183783
-0.000922992
-0.000412133
0.000211244
-0.00105684
-0.000557033
0.00022942
-0.00116901
-0.000732737
0.00022772
-0.00121047
-0.000934449
0.000192011
-0.00112345
-0.00111342
0.000122372
-0.000873416
-0.00116524
3.23488e-05
-0.000473735
-0.000948159
-4.18527e-05
-7.22734e-05
-0.000330611
-8.43398e-05
0.000229397
7.92409e-06
8.29331e-05
0.000393332
-4.21361e-06
0.000314191
0.000950815
-0.00016084
0.000585355
0.00123174
-0.000210596
0.00079651
0.00132856
-0.000161205
0.00091276
0.00131621
-6.89318e-05
0.000945302
0.00125239
2.00688e-05
0.000927916
0.0011765
7.72988e-05
0.000875486
0.00109986
0.00011775
0.00080756
0.00102343
0.000137895
0.000729877
0.00094886
0.000149084
0.00064383
0.000872245
0.00015513
0.000552507
0.000792717
0.000155523
0.000459974
0.00071275
0.000150675
0.00037117
0.000635342
0.000142214
0.000287224
0.000562436
0.000135276
0.000211705
0.000495569
0.000124053
0.000140607
0.000432764
0.000118472
7.58914e-05
0.000373188
0.000112327
1.51043e-05
0.000319193
0.000105126
-4.12949e-05
0.000267549
9.64085e-05
-9.22324e-05
0.000217442
9.12897e-05
-0.00014082
0.000171675
8.6551e-05
-0.000186535
0.000125917
8.32136e-05
-0.000234062
8.12397e-05
8.33094e-05
-0.000281165
3.45891e-05
8.23723e-05
-0.000322299
-1.90423e-05
8.37549e-05
-0.000372243
-7.5737e-05
8.77879e-05
-0.000430713
-0.000133206
9.68693e-05
-0.000500078
-0.000196731
0.000112718
-0.000582481
-0.000269599
0.000132899
-0.000680244
-0.000357957
0.000157165
-0.000802173
-0.000475675
0.000185471
-0.000936109
-0.000632609
0.000209511
-0.00106055
-0.000830133
0.000221841
-0.00113586
-0.00106524
0.000206097
-0.00109692
-0.00130449
0.000152124
-0.000894885
-0.00143938
7.2106e-05
-0.000536022
-0.00129929
-7.73478e-06
-0.000104579
-0.000702531
-5.95234e-05
0.000101237
2.358e-05
7.79644e-05
0.000304997
1.03714e-05
0.000294591
0.000867386
-0.000133198
0.000562466
0.00115311
-0.00018925
0.000781945
0.00126236
-0.000153282
0.000910641
0.00125613
-6.86115e-05
0.000949753
0.0011915
2.17817e-05
0.00094034
0.00111038
7.55262e-05
0.000894278
0.00102965
0.000116269
0.000828978