/*--------------------------------*- C++ -*----------------------------------*\
| =========                 |                                                 |
| \\      /  F ield         | OpenFOAM: The Open Source CFD Toolbox           |
|  \\    /   O peration     | Version:  v1806                                 |
|   \\  /    A nd           | Web:      www.OpenFOAM.com                      |
|    \\/     M anipulation  |                                                 |
\*---------------------------------------------------------------------------*/
FoamFile
{
    version     2.0;
    format      ascii;
    class       volVectorField;
    location    "0.01";
    object      U_0;
}
// * * * * * * * * * * * * * * * * * * * * * * * * * * * * * * * * * * * * * //

dimensions      [0 1 -1 0 0 0 0];


internalField   nonuniform List<vector> 
64000
(
(-0.00122845 -0.00383345 0.00291993)
(0.00521166 -0.00617055 0.00191657)
(0.0161243 -0.0060684 0.00242379)
(0.0255478 -0.00550493 0.00272308)
(0.0297528 -0.00467234 0.00330508)
(0.0269789 -0.00422284 0.00397186)
(0.0221526 -0.00375301 0.00438654)
(0.0179126 -0.00348996 0.00438513)
(0.0143313 -0.00315525 0.00414098)
(0.00947639 -0.00272819 0.0038789)
(0.0027967 -0.00109522 0.0041478)
(-0.0104729 -9.53127e-05 0.00491854)
(-0.0325109 -0.000505314 0.00548234)
(-0.0602781 -0.00137147 0.00636434)
(-0.0931751 -0.00065903 0.00775247)
(-0.13295 -0.00260651 0.00736644)
(-0.178073 -0.00706688 0.00985232)
(-0.220872 -0.0116557 0.00917876)
(-0.255043 -0.0166734 0.00322783)
(-0.284659 -0.0238395 -0.00735227)
(-0.310684 -0.0279111 -0.0158629)
(-0.292117 -0.0229665 -0.0195184)
(-0.212224 -0.0203097 -0.0312828)
(-0.143388 -0.0207092 -0.0501184)
(-0.114419 -0.0140028 -0.0645096)
(-0.0912013 -0.00419253 -0.0739349)
(-0.063191 0.00630753 -0.076643)
(-0.0306378 0.0168658 -0.0716674)
(0.00406363 0.0283574 -0.0593201)
(0.0429339 0.0401037 -0.0410464)
(0.083051 0.0389518 -0.0310274)
(0.115061 0.0328254 -0.0226192)
(0.129948 0.0212273 -0.0120795)
(0.126138 0.0100379 -0.000938717)
(0.108479 0.00187443 0.00575373)
(0.0834855 -0.00381061 0.00779122)
(0.0585911 -0.00567959 0.00857835)
(0.0384446 -0.00534181 0.00843907)
(0.020091 -0.00416263 0.00817778)
(0.00503463 -0.00302163 0.00735709)
(-0.0009391 -0.0129752 0.00355155)
(0.00925313 -0.0195473 0.00149975)
(0.0279834 -0.0183413 0.00113554)
(0.043045 -0.0140083 0.00105148)
(0.0505531 -0.00909873 0.00156292)
(0.0489241 -0.00486797 0.00126495)
(0.043294 -0.00195257 0.000325438)
(0.0359005 0.00164499 -0.0012247)
(0.0265911 0.00661637 -0.00215494)
(0.0135296 0.0142043 -0.00260415)
(-0.00651325 0.022105 -0.000419179)
(-0.0409263 0.0294979 -0.00192647)
(-0.0895843 0.0383805 -0.00651831)
(-0.146656 0.0447574 -0.0120209)
(-0.216176 0.0511379 -0.0209963)
(-0.300383 0.0571797 -0.0308598)
(-0.388848 0.0655943 -0.0393574)
(-0.471645 0.0769447 -0.0500748)
(-0.54382 0.08987 -0.0644823)
(-0.601231 0.101189 -0.0827391)
(-0.634866 0.117162 -0.102357)
(-0.618414 0.143727 -0.120299)
(-0.540916 0.164793 -0.139042)
(-0.453726 0.178478 -0.159362)
(-0.390043 0.199448 -0.173852)
(-0.329711 0.220935 -0.18051)
(-0.261051 0.238163 -0.178892)
(-0.183439 0.249494 -0.168789)
(-0.101927 0.25585 -0.150957)
(-0.0310542 0.256456 -0.126328)
(0.0324108 0.244388 -0.0919869)
(0.0887934 0.218655 -0.0577138)
(0.124042 0.175761 -0.0429069)
(0.13791 0.130752 -0.0284275)
(0.129431 0.0882342 -0.0143554)
(0.107097 0.0538737 -0.00702155)
(0.0813411 0.0324311 -0.00311901)
(0.057296 0.020579 -0.00119882)
(0.0343139 0.0136205 0.00108895)
(0.0110077 0.00539803 0.00344076)
(-0.000843851 -0.0241638 0.0035527)
(0.0118047 -0.0316562 0.000392142)
(0.0349395 -0.0265351 -0.000454863)
(0.0513901 -0.0158558 0.000259561)
(0.0572016 -0.00485338 -0.000163892)
(0.0509229 0.00386684 -0.00167265)
(0.0395804 0.0129534 -0.00269912)
(0.0261414 0.0249975 -0.00416773)
(0.0089327 0.0416043 -0.00270007)
(-0.0180207 0.0602981 -0.00599199)
(-0.0581043 0.0810265 -0.0112653)
(-0.111876 0.101238 -0.0182887)
(-0.18377 0.123931 -0.0270793)
(-0.268282 0.147123 -0.0346577)
(-0.358386 0.168886 -0.0428615)
(-0.452116 0.19356 -0.0513723)
(-0.543232 0.224627 -0.0601018)
(-0.624646 0.259759 -0.07002)
(-0.691049 0.297156 -0.0815542)
(-0.736988 0.335127 -0.094281)
(-0.753207 0.374511 -0.106281)
(-0.720923 0.415188 -0.115103)
(-0.632134 0.450118 -0.120972)
(-0.530706 0.477143 -0.128336)
(-0.452903 0.501055 -0.130882)
(-0.386874 0.518031 -0.127029)
(-0.319694 0.524041 -0.117847)
(-0.248076 0.51715 -0.105047)
(-0.175019 0.496996 -0.0899693)
(-0.106979 0.464103 -0.0728198)
(-0.0472925 0.427158 -0.0539549)
(-0.00318881 0.378376 -0.0360932)
(0.0296507 0.321551 -0.0189806)
(0.0539469 0.260399 -0.00880531)
(0.0622178 0.198826 -0.00983869)
(0.0622091 0.145081 -0.00892669)
(0.0568903 0.102775 -0.00645806)
(0.0471564 0.0740218 -0.00481192)
(0.0331278 0.0518369 -0.00154471)
(0.0120709 0.0244435 0.00243664)
(-0.000982284 -0.0327327 0.00279562)
(0.014398 -0.0378722 -0.00139319)
(0.0406751 -0.0263792 -0.00155664)
(0.0550917 -0.00914452 -0.000853992)
(0.0540893 0.00633391 -0.00250427)
(0.0412675 0.0220811 -0.00313843)
(0.0249358 0.0414753 -0.00425954)
(0.0051058 0.0674908 -0.00416169)
(-0.0236986 0.0963532 -0.00855136)
(-0.0642345 0.126367 -0.0143851)
(-0.11797 0.160586 -0.0220426)
(-0.186261 0.195001 -0.0291343)
(-0.26484 0.228998 -0.0357735)
(-0.349469 0.265108 -0.0419602)
(-0.435265 0.301526 -0.0462936)
(-0.517589 0.339253 -0.0488446)
(-0.592542 0.379184 -0.050264)
(-0.656275 0.42067 -0.0511085)
(-0.70493 0.462761 -0.0515047)
(-0.734022 0.50481 -0.0514563)
(-0.735522 0.546109 -0.0500035)
(-0.693521 0.585055 -0.0454839)
(-0.60148 0.618215 -0.0397455)
(-0.50082 0.636529 -0.0376594)
(-0.427721 0.641682 -0.0332732)
(-0.372418 0.636609 -0.0255035)
(-0.321619 0.620561 -0.0163052)
(-0.270415 0.593146 -0.00874898)
(-0.219605 0.554734 -0.003435)
(-0.17175 0.505682 -8.29765e-05)
(-0.128147 0.450463 0.000698646)
(-0.0894198 0.390259 0.000729889)
(-0.0559042 0.336181 0.000171066)
(-0.0292124 0.283572 -0.00147221)
(-0.0107012 0.23456 -0.00416751)
(0.00299313 0.191363 -0.00521809)
(0.0149563 0.153069 -0.005872)
(0.0235186 0.121827 -0.00695159)
(0.024301 0.0896343 -0.00351503)
(0.0111038 0.0452581 0.00196495)
(0.000234168 -0.0374141 0.0021805)
(0.0194574 -0.0360459 -0.0030404)
(0.0470996 -0.0177988 -0.00238593)
(0.0550922 0.00370114 -0.00420444)
(0.0474549 0.0266247 -0.00414094)
(0.0304516 0.0546699 -0.00392841)
(0.0104629 0.0869576 -0.00360759)
(-0.0164746 0.126394 -0.0076767)
(-0.0548359 0.166104 -0.012739)
(-0.100712 0.206806 -0.017903)
(-0.156123 0.248805 -0.0237139)
(-0.221934 0.292228 -0.02848)
(-0.293985 0.336092 -0.0323484)
(-0.367429 0.376955 -0.033742)
(-0.43769 0.416505 -0.0316194)
(-0.502189 0.457196 -0.0269334)
(-0.558986 0.498446 -0.0202125)
(-0.605315 0.540123 -0.0120078)
(-0.638234 0.580505 -0.00246207)
(-0.654205 0.618837 0.00774136)
(-0.646606 0.656065 0.0181775)
(-0.600526 0.694076 0.0297775)
(-0.516263 0.724027 0.0371356)
(-0.433046 0.72248 0.0383204)
(-0.377294 0.698159 0.0403585)
(-0.339494 0.66388 0.0442372)
(-0.309468 0.623795 0.0478732)
(-0.281574 0.577015 0.0467205)
(-0.25592 0.525015 0.0399456)
(-0.231682 0.471306 0.0317095)
(-0.206764 0.418283 0.0213507)
(-0.178078 0.36449 0.0131787)
(-0.143358 0.313387 0.00521197)
(-0.107869 0.269385 -0.000668924)
(-0.0753566 0.234151 -0.00488976)
(-0.046321 0.205804 -0.00742553)
(-0.0207385 0.180875 -0.00891306)
(-0.00164711 0.155769 -0.00868096)
(0.0110351 0.122527 -0.00347872)
(0.00827988 0.06514 0.00254265)
(0.00225586 -0.0357821 0.00160723)
(0.0249662 -0.0251509 -0.0044031)
(0.0502289 -0.00268711 -0.00805877)
(0.0538762 0.0244322 -0.00728385)
(0.0445951 0.0591177 -0.00652619)
(0.0245081 0.0989097 -0.00258552)
(0.00133896 0.143112 -0.0041274)
(-0.0286267 0.191795 -0.00910313)
(-0.0699058 0.240706 -0.0132546)
(-0.114997 0.288495 -0.0156092)
(-0.163697 0.332785 -0.0178159)
(-0.218006 0.375322 -0.0199051)
(-0.278035 0.414893 -0.0215558)
(-0.338681 0.454365 -0.017936)
(-0.391613 0.495129 -0.00920276)
(-0.43715 0.534784 -0.000604254)
(-0.476325 0.570631 0.00796713)
(-0.507889 0.601503 0.0157529)
(-0.530377 0.629758 0.0273028)
(-0.537974 0.661903 0.0431532)
(-0.521123 0.70282 0.0600298)
(-0.474397 0.743308 0.0725458)
(-0.417118 0.757489 0.074835)
(-0.374023 0.730153 0.0707974)
(-0.345939 0.678283 0.0675797)
(-0.326594 0.617969 0.0662094)
(-0.315325 0.558863 0.0645771)
(-0.30806 0.500729 0.0601173)
(-0.298643 0.442549 0.0530419)
(-0.285521 0.389164 0.043847)
(-0.271144 0.344549 0.0263514)
(-0.252093 0.306074 0.0116978)
(-0.219797 0.271107 0.0031867)
(-0.176013 0.242464 -0.00443197)
(-0.129598 0.220263 -0.0093778)
(-0.0863906 0.203929 -0.0117002)
(-0.0482493 0.188876 -0.0120287)
(-0.0181329 0.171005 -0.0104878)
(0.00322034 0.140876 -0.00531427)
(0.00612585 0.0758854 0.00299838)
(0.00400149 -0.0298906 0.0012662)
(0.0276084 -0.00781853 -0.0111409)
(0.0525782 0.0203436 -0.0141643)
(0.0578703 0.0569162 -0.0123834)
(0.0486272 0.101618 -0.00701575)
(0.0270255 0.151325 -0.00247019)
(0.00418152 0.204275 -0.00326963)
(-0.0245144 0.257109 -0.00776106)
(-0.0626488 0.311305 -0.0102929)
(-0.103331 0.361484 -0.0110661)
(-0.145738 0.405538 -0.0102762)
(-0.190793 0.441516 -0.00954466)
(-0.23492 0.474848 -0.00659907)
(-0.272965 0.508606 -0.00262508)
(-0.30803 0.542437 0.00254735)
(-0.343454 0.573132 0.0102463)
(-0.377621 0.596399 0.0198212)
(-0.403945 0.612707 0.0303959)
(-0.413392 0.633775 0.043892)
(-0.401021 0.66662 0.0592526)
(-0.376798 0.703553 0.0708131)
(-0.356963 0.72401 0.0746705)
(-0.348219 0.711199 0.0720735)
(-0.347412 0.669635 0.065792)
(-0.347811 0.612032 0.0591439)
(-0.345894 0.547296 0.0542175)
(-0.345923 0.483877 0.0509554)
(-0.350723 0.425524 0.047607)
(-0.353083 0.370968 0.0433547)
(-0.345243 0.320251 0.0347908)
(-0.331187 0.278536 0.0217113)
(-0.312123 0.249791 0.00939722)
(-0.279012 0.229842 0.00110826)
(-0.231898 0.216434 -0.00606134)
(-0.17662 0.207369 -0.0127498)
(-0.120145 0.200845 -0.0159294)
(-0.0692632 0.193626 -0.0156129)
(-0.0294279 0.181158 -0.0127108)
(-0.00130028 0.151236 -0.00681433)
(0.00542094 0.0802818 0.00325609)
(0.00382749 -0.0201557 -0.00054822)
(0.0288288 0.0163336 -0.0187815)
(0.0580465 0.054658 -0.0209932)
(0.0678644 0.099249 -0.0173073)
(0.0614384 0.150295 -0.00990459)
(0.041423 0.206666 -0.0031366)
(0.0186683 0.265559 -0.00139733)
(-0.00514124 0.318733 -0.0027344)
(-0.036197 0.370116 -0.00516107)
(-0.0711507 0.418204 -0.0050429)
(-0.107858 0.45823 -0.00437792)
(-0.142297 0.490369 -0.00183717)
(-0.171742 0.518171 0.00233985)
(-0.198687 0.539072 0.00790769)
(-0.222582 0.554869 0.0132647)
(-0.249531 0.56884 0.0166744)
(-0.278774 0.578153 0.022122)
(-0.29456 0.590598 0.0320836)
(-0.289807 0.612359 0.0439466)
(-0.278698 0.634629 0.0526584)
(-0.279104 0.642209 0.0562489)
(-0.294336 0.631186 0.0561153)
(-0.317927 0.605126 0.0527324)
(-0.34393 0.568278 0.0470236)
(-0.36649 0.5228 0.0406506)
(-0.381598 0.469658 0.0354801)
(-0.391832 0.411861 0.0325876)
(-0.401456 0.355941 0.0318393)
(-0.40743 0.306665 0.0308578)
(-0.402107 0.264014 0.0264469)
(-0.384817 0.228069 0.015403)
(-0.360224 0.204166 0.0056313)
(-0.324476 0.192357 -0.000969866)
(-0.274486 0.188329 -0.00682933)
(-0.214395 0.190487 -0.0125703)
(-0.149622 0.194351 -0.0178927)
(-0.0871178 0.194641 -0.018584)
(-0.0381139 0.186423 -0.0150923)
(-0.00427847 0.156677 -0.00832342)
(0.0051904 0.079784 0.00354758)
(0.00186679 -0.00685266 -0.00450392)
(0.0302246 0.0496024 -0.025872)
(0.0682263 0.0984455 -0.027724)
(0.0840645 0.148254 -0.0218841)
(0.0825914 0.201829 -0.013448)
(0.0676502 0.260293 -0.00701715)
(0.0470643 0.320116 -7.02918e-05)
(0.0240318 0.37471 0.00231214)
(0.000726208 0.42048 0.00291571)
(-0.0263061 0.459719 0.00144987)
(-0.0558791 0.491315 0.00232999)
(-0.0824673 0.517839 0.00454277)
(-0.106907 0.533294 0.00789708)
(-0.127068 0.540632 0.0122794)
(-0.142687 0.543906 0.015257)
(-0.163993 0.544237 0.0155947)
(-0.186083 0.544318 0.0204022)
(-0.194215 0.553975 0.02877)
(-0.196021 0.562569 0.0350502)
(-0.207413 0.559411 0.0375621)
(-0.232399 0.545305 0.037947)
(-0.266964 0.526707 0.0364952)
(-0.307686 0.505627 0.0333692)
(-0.35064 0.480761 0.029404)
(-0.390248 0.44897 0.0255638)
(-0.420798 0.406794 0.0225879)
(-0.440503 0.354068 0.0212299)
(-0.451013 0.300437 0.0224917)
(-0.453006 0.254997 0.0220699)
(-0.445081 0.220093 0.0174701)
(-0.427014 0.192111 0.00999159)
(-0.399683 0.171572 0.00194801)
(-0.361518 0.161607 -0.00300621)
(-0.310263 0.159896 -0.00779294)
(-0.246071 0.166864 -0.0125484)
(-0.174805 0.180529 -0.0170376)
(-0.103564 0.190256 -0.0198052)
(-0.0461963 0.187821 -0.0168327)
(-0.00697581 0.159823 -0.00951022)
(0.00498973 0.0779181 0.00379812)
(0.000120226 0.00926707 -0.00835556)
(0.0332474 0.0907745 -0.0321694)
(0.0819721 0.148942 -0.0332954)
(0.105102 0.20113 -0.0251553)
(0.110371 0.253764 -0.017102)
(0.101602 0.309391 -0.00920477)
(0.0861406 0.364978 -0.00317923)
(0.0659993 0.416579 0.0041954)
(0.0425134 0.459828 0.00826077)
(0.0196929 0.492189 0.0108986)
(-0.00153723 0.515516 0.0110742)
(-0.0235317 0.528274 0.0106254)
(-0.0444224 0.531215 0.0117162)
(-0.0592377 0.528064 0.0132106)
(-0.0719357 0.523978 0.0135762)
(-0.0915509 0.512958 0.01417)
(-0.109327 0.507983 0.019817)
(-0.122566 0.503976 0.023263)
(-0.143498 0.49366 0.0245958)
(-0.173189 0.477924 0.0249159)
(-0.210178 0.462218 0.0240654)
(-0.25408 0.448139 0.0221753)
(-0.303876 0.434127 0.0198211)
(-0.357097 0.416962 0.0179318)
(-0.409313 0.392736 0.0169464)
(-0.45394 0.357827 0.0166689)
(-0.481846 0.310692 0.0171161)
(-0.489912 0.259758 0.0177826)
(-0.484491 0.217934 0.0156425)
(-0.472259 0.187347 0.0108651)
(-0.455237 0.164105 0.00612712)
(-0.431035 0.144287 0.00555454)
(-0.396469 0.131519 0.00177017)
(-0.3462 0.130247 -0.00607783)
(-0.277086 0.139766 -0.0161554)
(-0.197916 0.158076 -0.018328)
(-0.118531 0.178856 -0.0206958)
(-0.0534935 0.185158 -0.0182847)
(-0.0092711 0.161854 -0.010468)
(0.00471419 0.0768146 0.00376222)
(-0.000601492 0.0285122 -0.0108165)
(0.0386426 0.136201 -0.0373018)
(0.0987044 0.20228 -0.0370797)
(0.12982 0.254803 -0.0257856)
(0.141638 0.304699 -0.0181908)
(0.139206 0.354033 -0.010945)
(0.128894 0.401648 -0.00392783)
(0.112957 0.444672 0.00231274)
(0.0936144 0.482114 0.00937696)
(0.0720637 0.511234 0.0155924)
(0.0492656 0.529148 0.0166808)
(0.028123 0.532771 0.0158943)
(0.0107888 0.52738 0.0147285)
(0.000987885 0.518845 0.0145335)
(-0.0128444 0.50952 0.013116)
(-0.0341845 0.484451 0.0155454)
(-0.056843 0.467614 0.0169716)
(-0.0845638 0.448464 0.0175574)
(-0.116636 0.43013 0.0174023)
(-0.15351 0.415039 0.0166555)
(-0.195639 0.40297 0.0152774)
(-0.24375 0.392173 0.0135494)
(-0.298038 0.379856 0.0121014)
(-0.356899 0.363195 0.0118603)
(-0.416186 0.341181 0.0127328)
(-0.46957 0.311988 0.0135848)
(-0.505274 0.275111 0.014374)
(-0.512472 0.231452 0.0145175)
(-0.499878 0.191224 0.0116142)
(-0.484253 0.160638 0.00902489)
(-0.472292 0.131886 0.0160948)
(-0.457349 0.105409 0.0202468)
(-0.427377 0.0871797 0.0207785)
(-0.379629 0.084928 0.0126484)
(-0.312155 0.099059 -0.000557874)
(-0.225589 0.126789 -0.0199721)
(-0.134411 0.157852 -0.021557)
(-0.0608008 0.177847 -0.0199251)
(-0.0112222 0.162929 -0.0112828)
(0.00443685 0.0774232 0.00340301)
(-0.00102078 0.0503675 -0.0129292)
(0.0446271 0.182897 -0.04178)
(0.116756 0.254864 -0.0403113)
(0.157454 0.305136 -0.0251272)
(0.17559 0.350506 -0.0141989)
(0.176964 0.393471 -0.00783892)
(0.170506 0.432776 -0.00438909)
(0.159469 0.465589 0.00188023)
(0.14419 0.492849 0.00801203)
(0.125365 0.513005 0.0136945)
(0.102459 0.526281 0.0201413)
(0.0794005 0.52894 0.0194498)
(0.0642735 0.522327 0.0163559)
(0.0562193 0.512023 0.014045)
(0.0288759 0.490777 0.0100716)
(-0.00500248 0.456063 0.0151091)
(-0.0304999 0.423639 0.0150706)
(-0.0628189 0.399696 0.0145135)
(-0.0979379 0.381749 0.0133143)
(-0.137122 0.368438 0.0118725)
(-0.180891 0.356911 0.0102733)
(-0.230662 0.344495 0.00883003)
(-0.287058 0.328481 0.00826477)
(-0.347255 0.309509 0.00945678)
(-0.407611 0.288844 0.0110751)
(-0.462851 0.266269 0.0116078)
(-0.50268 0.240821 0.0123468)
(-0.51473 0.207812 0.0127962)
(-0.501412 0.167834 0.0100647)
(-0.488953 0.127619 0.017793)
(-0.486631 0.0878681 0.0237323)
(-0.479078 0.055212 0.025045)
(-0.454719 0.0352223 0.0201013)
(-0.409194 0.0291223 0.011796)
(-0.340282 0.042212 0.00572249)
(-0.252914 0.0769118 -0.00485875)
(-0.153889 0.125892 -0.0251951)
(-0.0677405 0.162648 -0.0207686)
(-0.0130531 0.161782 -0.0121861)
(0.0040911 0.0797822 0.00267804)
(-0.00154739 0.0726931 -0.0152879)
(0.0497061 0.228144 -0.0459197)
(0.133211 0.304334 -0.0443102)
(0.184671 0.349891 -0.0257662)
(0.210974 0.387232 -0.0104727)
(0.216504 0.422558 -0.00167335)
(0.21079 0.454188 0.00290679)
(0.200713 0.47905 0.00579565)
(0.188986 0.49785 0.00758964)
(0.174813 0.510097 0.0108148)
(0.155553 0.516365 0.0180024)
(0.133013 0.51855 0.020963)
(0.115661 0.510935 0.0157484)
(0.0960105 0.490143 0.0115421)
(0.0539916 0.455182 0.00776337)
(0.0102301 0.421616 0.0123436)
(-0.0174362 0.384944 0.0142532)
(-0.0468701 0.36114 0.0128329)
(-0.0816291 0.342677 0.011124)
(-0.120186 0.327601 0.00918465)
(-0.163763 0.312307 0.00741562)
(-0.21391 0.294469 0.00629231)
(-0.269187 0.274089 0.00689201)
(-0.32573 0.254518 0.00904662)
(-0.381639 0.236794 0.0112363)
(-0.433879 0.221463 0.0120839)
(-0.476007 0.205119 0.012739)
(-0.496651 0.179689 0.0136859)
(-0.494551 0.138422 0.0194593)
(-0.488394 0.0885719 0.0193729)
(-0.48733 0.045101 0.0172204)
(-0.481876 0.0123262 0.0141316)
(-0.466037 -0.0122257 0.00647812)
(-0.434592 -0.0252664 -0.00227804)
(-0.375351 -0.0173864 -0.0081316)
(-0.2819 0.0175112 -0.0111847)
(-0.17377 0.0759517 -0.0140276)
(-0.0783616 0.137486 -0.0258143)
(-0.0142557 0.156953 -0.0143182)
(0.0040825 0.0835331 0.00132325)
(-0.00229455 0.0940872 -0.0178557)
(0.0527869 0.269665 -0.0495561)
(0.145945 0.349791 -0.0484371)
(0.207815 0.389419 -0.0281997)
(0.243048 0.416098 -0.00944671)
(0.253604 0.439835 0.00255785)
(0.250142 0.461891 0.00919351)
(0.242006 0.481889 0.0131255)
(0.231998 0.497154 0.0138374)
(0.219801 0.50613 0.0143357)
(0.205224 0.508551 0.0155723)
(0.183258 0.50445 0.0177597)
(0.153832 0.487745 0.0125764)
(0.118852 0.452842 0.00910304)
(0.0714031 0.413137 0.00583537)
(0.0230171 0.383696 0.00925147)
(-0.0071012 0.351594 0.0134804)
(-0.0330245 0.326259 0.0118161)
(-0.0660746 0.305363 0.00986408)
(-0.102952 0.285374 0.00751919)
(-0.145629 0.263786 0.00571918)
(-0.193754 0.240294 0.00537705)
(-0.243925 0.218827 0.00703494)
(-0.293352 0.201324 0.00961977)
(-0.341745 0.187706 0.0118253)
(-0.388548 0.177309 0.0136599)
(-0.432439 0.166553 0.0151315)
(-0.465182 0.147302 0.015253)
(-0.475436 0.108283 0.0162218)
(-0.470253 0.056896 0.0139441)
(-0.465216 0.0121087 0.0102433)
(-0.466154 -0.0256787 0.00378461)
(-0.465718 -0.0626477 -0.00431704)
(-0.447213 -0.0880447 -0.0137042)
(-0.399563 -0.087942 -0.0231283)
(-0.320102 -0.0486636 -0.0282058)
(-0.204627 0.0159567 -0.0232365)
(-0.0891232 0.0987787 -0.0230363)
(-0.0166201 0.144609 -0.0162295)
(0.00423374 0.0873597 -0.000261846)
(-0.00346891 0.112777 -0.0195262)
(0.0537442 0.305625 -0.0511746)
(0.154093 0.390526 -0.0512912)
(0.22486 0.425071 -0.0308601)
(0.268115 0.441114 -0.00974648)
(0.284873 0.4518 0.00531483)
(0.287151 0.462838 0.0138663)
(0.283169 0.47641 0.0185538)
(0.275808 0.489732 0.0183817)
(0.265696 0.498408 0.0161601)
(0.249323 0.496194 0.0151818)
(0.219699 0.47984 0.0160288)
(0.176994 0.451314 0.0157666)
(0.132035 0.413143 0.00639485)
(0.0866826 0.372642 0.00390051)
(0.03851 0.345396 0.00574426)
(0.00382513 0.319486 0.0113387)
(-0.0211287 0.290711 0.0111299)
(-0.0516005 0.266823 0.00899305)
(-0.0872693 0.241141 0.00648423)
(-0.127999 0.213935 0.0050903)
(-0.170608 0.188591 0.00585062)
(-0.21234 0.168974 0.00804349)
(-0.253557 0.154537 0.010663)
(-0.294802 0.144036 0.0127794)
(-0.336294 0.135698 0.0150018)
(-0.379009 0.12719 0.0164758)
(-0.419734 0.115239 0.0153235)
(-0.443071 0.0877395 0.0153558)
(-0.440075 0.0370561 0.0128267)
(-0.431153 -0.0115024 0.00827655)
(-0.437872 -0.0615935 0.00215187)
(-0.450284 -0.110349 -0.0045845)
(-0.446586 -0.147537 -0.0143961)
(-0.408078 -0.16193 -0.0260121)
(-0.341185 -0.135278 -0.0436916)
(-0.240319 -0.0564325 -0.040612)
(-0.114851 0.0423324 -0.0249407)
(-0.0205437 0.123112 -0.0244632)
(0.0059714 0.0898815 -0.00270827)
(-0.00430012 0.128738 -0.01825)
(0.0535877 0.33653 -0.0494983)
(0.158356 0.427832 -0.0507846)
(0.236137 0.45938 -0.0309192)
(0.286234 0.465897 -0.00902599)
(0.308953 0.464565 0.00732095)
(0.318412 0.46361 0.0166619)
(0.322495 0.468762 0.0206199)
(0.320313 0.477951 0.0198774)
(0.307189 0.481447 0.0175274)
(0.281371 0.470328 0.0154891)
(0.242881 0.443999 0.0144681)
(0.194976 0.409337 0.0136352)
(0.144434 0.373395 0.0111176)
(0.0992637 0.336805 0.00209305)
(0.0554581 0.306648 0.0028501)
(0.016254 0.285193 0.0079317)
(-0.0103672 0.25588 0.0108232)
(-0.0382918 0.228773 0.00846213)
(-0.0736379 0.199451 0.00621979)
(-0.110134 0.170743 0.00557823)
(-0.144852 0.147071 0.00667759)
(-0.178464 0.129282 0.00867901)
(-0.212911 0.116154 0.0112846)
(-0.248572 0.106439 0.0136587)
(-0.285443 0.0983431 0.0155857)
(-0.323316 0.0907172 0.013656)
(-0.363713 0.0814905 0.0134928)
(-0.400434 0.0613539 0.0130428)
(-0.40527 0.0184965 0.013865)
(-0.394153 -0.0349448 0.00802743)
(-0.402481 -0.0915329 0.00404771)
(-0.418343 -0.149438 -0.00119719)
(-0.425902 -0.202563 -0.0123666)
(-0.408444 -0.237166 -0.0274516)
(-0.354281 -0.23416 -0.0458192)
(-0.267932 -0.158467 -0.0580116)
(-0.144196 -0.0272593 -0.0377333)
(-0.0271765 0.0833574 -0.0196321)
(0.00740418 0.0896467 -0.00382678)
(-0.00369103 0.148533 -0.014053)
(0.0544861 0.368144 -0.0451002)
(0.160039 0.466522 -0.04802)
(0.241648 0.496496 -0.0294547)
(0.296952 0.494545 -0.00752471)
(0.325376 0.481381 0.00930812)
(0.342936 0.4682 0.0192369)
(0.356221 0.462336 0.0221913)
(0.357218 0.461176 0.0208786)
(0.339077 0.454068 0.0188283)
(0.304718 0.435207 0.0165079)
(0.259725 0.405297 0.0138096)
(0.209644 0.369927 0.011346)
(0.158987 0.334326 0.00999761)
(0.111846 0.302665 0.0070611)
(0.0710525 0.272057 0.0010925)
(0.0324574 0.2488 0.00484833)
(0.00133435 0.22401 0.00950847)
(-0.0264715 0.194037 0.00817005)
(-0.0598503 0.164654 0.00654261)
(-0.0911589 0.138169 0.00619413)
(-0.119483 0.116338 0.00694872)
(-0.147315 0.0988533 0.00858189)
(-0.176466 0.0853357 0.0109948)
(-0.207386 0.0752086 0.0136341)
(-0.239547 0.0668769 0.0145626)
(-0.273604 0.0584444 0.0141277)
(-0.314065 0.0441186 0.0130494)
(-0.355313 0.0245411 0.0141513)
(-0.368135 -0.00366533 0.016883)
(-0.357236 -0.0639205 0.0108203)
(-0.361248 -0.12814 0.00439426)
(-0.382332 -0.194048 -0.000527369)
(-0.400966 -0.262301 -0.00895068)
(-0.397216 -0.317871 -0.0226662)
(-0.35392 -0.335416 -0.0404497)
(-0.273183 -0.283252 -0.0618543)
(-0.171666 -0.124684 -0.0542354)
(-0.042183 0.0290071 -0.019241)
(0.0150696 0.0807402 -0.00671558)
(-0.00121643 0.188662 -0.00871266)
(0.0565704 0.410531 -0.039136)
(0.158673 0.512449 -0.044183)
(0.240936 0.540654 -0.027836)
(0.299159 0.530836 -0.00625203)
(0.332541 0.505961 0.0111088)
(0.357707 0.479266 0.0216048)
(0.378487 0.458074 0.0240909)
(0.38236 0.442247 0.0217693)
(0.361494 0.424241 0.0191416)
(0.322964 0.39955 0.0169585)
(0.275038 0.369069 0.0145496)
(0.22335 0.335366 0.0112254)
(0.173285 0.301931 0.00857987)
(0.126946 0.271126 0.00757599)
(0.0856972 0.24371 0.0045218)
(0.0492402 0.216899 0.00397082)
(0.015936 0.193091 0.00744256)
(-0.0148016 0.163413 0.00817859)
(-0.0447025 0.136764 0.0071074)
(-0.0722257 0.113166 0.00653199)
(-0.0968246 0.092471 0.00681064)
(-0.120678 0.0747796 0.00813399)
(-0.145324 0.0605647 0.010558)
(-0.171736 0.0500079 0.0132719)
(-0.200632 0.0415158 0.0153149)
(-0.235329 0.0298843 0.0154292)
(-0.274068 0.0136757 0.0169499)
(-0.307693 -0.00120574 0.0190959)
(-0.332372 -0.0235195 0.0187286)
(-0.3346 -0.0796062 0.0175393)
(-0.329611 -0.158879 0.0102675)
(-0.344723 -0.235528 0.00430926)
(-0.367412 -0.313552 -0.00255526)
(-0.374701 -0.38548 -0.014257)
(-0.348566 -0.427628 -0.0304919)
(-0.26773 -0.405944 -0.0510969)
(-0.175943 -0.262573 -0.0635723)
(-0.0539112 -0.0394915 -0.0343622)
(0.015062 0.0617019 -0.00921901)
(-0.00210283 0.23921 -0.00829406)
(0.0518913 0.453594 -0.0352096)
(0.150296 0.55623 -0.0412775)
(0.232118 0.584047 -0.027222)
(0.292191 0.569761 -0.00632323)
(0.328863 0.536797 0.0107664)
(0.358686 0.498451 0.0216904)
(0.385861 0.459661 0.0246453)
(0.39489 0.427295 0.0218696)
(0.375558 0.398634 0.0188422)
(0.337191 0.369251 0.0166009)
(0.289496 0.338195 0.0144771)
(0.238506 0.306339 0.0118927)
(0.188456 0.275567 0.00916853)
(0.142618 0.246237 0.00691699)
(0.101359 0.219278 0.00629367)
(0.0639735 0.192473 0.00515856)
(0.0295514 0.164931 0.00710819)
(-0.000791649 0.136243 0.00870444)
(-0.0280948 0.112721 0.00760933)
(-0.0539335 0.0921371 0.00669104)
(-0.0768136 0.0728225 0.0065655)
(-0.0979518 0.055378 0.00763738)
(-0.118518 0.0407814 0.0101038)
(-0.140548 0.030422 0.0131536)
(-0.168392 0.0216215 0.0163504)
(-0.201889 0.00949895 0.0182775)
(-0.233555 -0.00249082 0.0205278)
(-0.264167 -0.0165307 0.0203676)
(-0.296323 -0.0406959 0.0194107)
(-0.316125 -0.0837608 0.018936)
(-0.313739 -0.162774 0.0161695)
(-0.314823 -0.252509 0.00980018)
(-0.334263 -0.343121 0.00363375)
(-0.348328 -0.432919 -0.00587535)
(-0.337569 -0.502573 -0.0205737)
(-0.270948 -0.513074 -0.0385726)
(-0.170098 -0.407861 -0.0539994)
(-0.0502535 -0.151117 -0.0471528)
(0.0108883 0.0292739 0.00011209)
(-0.00612872 0.263679 -0.0108828)
(0.0415052 0.47205 -0.0325286)
(0.137328 0.578261 -0.0389163)
(0.219384 0.609927 -0.0274117)
(0.281003 0.596453 -0.00792563)
(0.319402 0.56082 0.00840841)
(0.348387 0.518144 0.0180423)
(0.377171 0.468181 0.0222147)
(0.393872 0.419847 0.0203949)
(0.381475 0.380058 0.0177192)
(0.347473 0.345564 0.0158262)
(0.302764 0.313208 0.014083)
(0.253777 0.282176 0.0119352)
(0.205039 0.252664 0.00973157)
(0.159123 0.22482 0.00780149)
(0.116901 0.197647 0.00625374)
(0.0775427 0.170377 0.00622756)
(0.041078 0.14142 0.00778519)
(0.0132188 0.114287 0.0099593)
(-0.0101097 0.0900559 0.00857415)
(-0.0351612 0.0730876 0.00699735)
(-0.057992 0.0558334 0.00649131)
(-0.0775664 0.0394015 0.00729592)
(-0.0942337 0.0250063 0.0096853)
(-0.112293 0.0143135 0.0150948)
(-0.138325 0.00664253 0.0168838)
(-0.168895 -0.00324089 0.0193426)
(-0.198614 -0.0145708 0.0207151)
(-0.228702 -0.0319937 0.0209132)
(-0.260816 -0.0563432 0.0198382)
(-0.290274 -0.0925567 0.0187533)
(-0.300284 -0.154843 0.018308)
(-0.298039 -0.245323 0.0149667)
(-0.309159 -0.348037 0.010082)
(-0.326307 -0.456992 0.0027691)
(-0.327925 -0.556305 -0.00957914)
(-0.277598 -0.603838 -0.0261736)
(-0.178733 -0.535694 -0.0416839)
(-0.0501908 -0.289142 -0.0447375)
(0.0152632 -0.00986071 0.0159833)
(-0.00747294 0.255905 -0.00998846)
(0.0346119 0.462471 -0.0285767)
(0.125004 0.574878 -0.0357529)
(0.205895 0.613386 -0.0270854)
(0.268601 0.603938 -0.00972931)
(0.309687 0.56931 0.00518084)
(0.336898 0.526694 0.0130164)
(0.360232 0.475691 0.0171426)
(0.380415 0.418293 0.0170931)
(0.37834 0.368651 0.0155709)
(0.352781 0.327873 0.0143598)
(0.313643 0.292656 0.0132414)
(0.268294 0.260876 0.0117883)
(0.221319 0.231335 0.0101365)
(0.175639 0.203151 0.0084208)
(0.132177 0.175518 0.00728279)
(0.0905903 0.147386 0.00722216)
(0.0542154 0.119843 0.00834654)
(0.0263606 0.095923 0.0093226)
(0.00669664 0.0728007 0.0111442)
(-0.0146074 0.0543818 0.00789173)
(-0.0387679 0.0411493 0.00687085)
(-0.0578013 0.0258943 0.00731751)
(-0.0720641 0.0124577 0.00904945)
(-0.0852836 0.00138021 0.0137474)
(-0.108405 -0.0103764 0.0145438)
(-0.13921 -0.0198109 0.0173373)
(-0.168704 -0.0310979 0.0194277)
(-0.197964 -0.0478538 0.0203262)
(-0.228417 -0.0717323 0.0199681)
(-0.258516 -0.104717 0.0189537)
(-0.27625 -0.15375 0.0185635)
(-0.2817 -0.230859 0.0168642)
(-0.293862 -0.334085 0.0154311)
(-0.313472 -0.456997 0.0117254)
(-0.324237 -0.584275 0.00228352)
(-0.290919 -0.671238 -0.0139754)
(-0.202364 -0.64618 -0.0305732)
(-0.0547181 -0.417334 -0.0389743)
(0.0259351 -0.0573359 0.00553596)
(-0.00367826 0.240937 -0.00376225)
(0.0346342 0.438014 -0.0233803)
(0.114974 0.553936 -0.0319564)
(0.192999 0.599813 -0.0262955)
(0.256229 0.596133 -0.011499)
(0.299964 0.564525 0.00215143)
(0.327295 0.522232 0.00873306)
(0.343848 0.474329 0.0123084)
(0.361782 0.417869 0.0132244)
(0.367574 0.362178 0.0126683)
(0.351785 0.315091 0.0122573)
(0.320441 0.275266 0.0119302)
(0.280195 0.240809 0.0112233)
(0.235893 0.209581 0.0102066)
(0.190807 0.179907 0.00914476)
(0.146547 0.150813 0.00847716)
(0.10486 0.122694 0.0085455)
(0.0699916 0.0981706 0.00942328)
(0.0436478 0.0775445 0.00989169)
(0.0227467 0.0594148 0.00927158)
(0.0047979 0.0408662 0.0111988)
(-0.0168797 0.0272178 0.00742847)
(-0.037592 0.0142983 0.00794148)
(-0.0497801 0.00303942 0.0105404)
(-0.0645253 -0.0114566 0.0112393)
(-0.0856817 -0.0307372 0.012924)
(-0.110404 -0.0452921 0.0149447)
(-0.139007 -0.0569658 0.016891)
(-0.16882 -0.0702305 0.0185548)
(-0.198135 -0.0904427 0.0193697)
(-0.225899 -0.120029 0.0194535)
(-0.244812 -0.162225 0.0195054)
(-0.255797 -0.227545 0.0186921)
(-0.275565 -0.323936 0.0191647)
(-0.305791 -0.450953 0.0197653)
(-0.328838 -0.597367 0.0150024)
(-0.312524 -0.718545 0.000987863)
(-0.23752 -0.735704 -0.0181478)
(-0.0801826 -0.525621 -0.0304245)
(0.022761 -0.1125 -0.00254033)
(-0.00155694 0.226503 0.00027344)
(0.0330906 0.405979 -0.0188682)
(0.105345 0.521532 -0.0281886)
(0.18049 0.574116 -0.0252746)
(0.243936 0.576999 -0.0131456)
(0.289841 0.549642 -0.000653181)
(0.319307 0.5083 0.00509695)
(0.332738 0.463763 0.00841282)
(0.344672 0.413318 0.00933902)
(0.35207 0.357138 0.00954213)
(0.344596 0.305085 0.00975991)
(0.321527 0.259769 0.0102307)
(0.287838 0.220771 0.0103091)
(0.247233 0.186524 0.00998228)
(0.203609 0.154458 0.00961038)
(0.160362 0.124092 0.00958643)
(0.121189 0.0970931 0.0101073)
(0.0895575 0.0758594 0.010754)
(0.0649222 0.059097 0.0107473)
(0.0440685 0.0447794 0.0102295)
(0.0243386 0.0312442 0.0095175)
(0.00369172 0.0167498 0.00903528)
(-0.0140352 0.00548895 0.00836099)
(-0.0298603 -0.00822219 0.00979678)
(-0.0499302 -0.0277281 0.0091877)
(-0.0705571 -0.0492999 0.0112008)
(-0.0893521 -0.0707431 0.0135767)
(-0.110397 -0.0890125 0.01526)
(-0.136888 -0.103717 0.0163745)