/*--------------------------------*- C++ -*----------------------------------*\
| =========                 |                                                 |
| \\      /  F ield         | OpenFOAM: The Open Source CFD Toolbox           |
|  \\    /   O peration     | Version:  v1806                                 |
|   \\  /    A nd           | Web:      www.OpenFOAM.com                      |
|    \\/     M anipulation  |                                                 |
\*---------------------------------------------------------------------------*/
FoamFile
{
    version     2.0;
    format      ascii;
    class       volVectorField;
    location    "0.018";
    object      U_0;
}
// * * * * * * * * * * * * * * * * * * * * * * * * * * * * * * * * * * * * * //

dimensions      [0 1 -1 0 0 0 0];


internalField   nonuniform List<vector> 
64000
(
(-0.00238221 -0.00574502 0.000424949)
(0.0114628 -0.0074007 0.000266538)
(0.0272019 -0.00568315 0.00263686)
(0.0334754 -0.00565783 0.00326274)
(0.0263897 -0.00360525 0.00426767)
(0.0195221 -0.0033343 0.00500706)
(0.0175381 -0.00441862 0.00498385)
(0.0142783 -0.00603313 0.00494496)
(0.0105327 -0.00796048 0.00530344)
(0.00605292 -0.00858427 0.00496419)
(-0.00514688 -0.00891274 0.00512303)
(-0.0246277 -0.00634289 0.00566464)
(-0.0468921 -0.00617656 0.00472926)
(-0.0765201 -0.0048335 0.00451389)
(-0.10943 -0.00172025 0.00602278)
(-0.14681 0.00426596 0.00441511)
(-0.189616 0.00799168 0.00464668)
(-0.229265 0.00153842 0.00783451)
(-0.271838 -0.00792434 0.00564015)
(-0.281005 -0.0143944 -0.00329414)
(-0.316793 -0.0391497 -0.0411992)
(-0.228031 -0.0209863 -0.0317132)
(-0.0966041 -0.0247821 -0.0376051)
(-0.0942575 -0.0103747 -0.0393838)
(-0.0814989 -0.00249863 -0.0511072)
(-0.0737917 0.00592111 -0.0628935)
(-0.0580593 0.0157396 -0.0700425)
(-0.0347551 0.0264959 -0.0661072)
(-0.00111337 0.0396097 -0.0513709)
(0.0435277 0.0531779 -0.0328072)
(0.0869296 0.0408576 -0.0324766)
(0.121371 0.0353771 -0.021908)
(0.135424 0.02322 -0.010069)
(0.130596 0.0103217 -0.00175222)
(0.111703 0.00235831 0.0033376)
(0.0866033 -0.00399097 0.00525612)
(0.0619733 -0.00657694 0.00739863)
(0.0409499 -0.00570226 0.00793135)
(0.0221924 -0.00412775 0.00789879)
(0.00584464 -0.00303646 0.00670502)
(-0.00137071 -0.0116206 0.00150387)
(0.0142172 -0.0200354 0.000174207)
(0.0377904 -0.0174087 0.000689386)
(0.0505714 -0.0142066 0.00115603)
(0.0473483 -0.00573526 0.00147903)
(0.0387668 -0.00135237 0.000650817)
(0.0342123 0.000920012 -0.000758183)
(0.0269896 0.00522588 -0.00103083)
(0.0182047 0.0110151 -0.00513187)
(0.00567516 0.0243923 -0.00226133)
(-0.016451 0.0311477 -0.00559133)
(-0.0548346 0.0412583 0.00148687)
(-0.103393 0.05222 -0.00105275)
(-0.160794 0.0673123 -0.0044015)
(-0.224795 0.0755181 -0.00901877)
(-0.301124 0.0808711 -0.0244918)
(-0.397443 0.0878744 -0.0413245)
(-0.489898 0.0943063 -0.0541523)
(-0.56795 0.100539 -0.0701698)
(-0.6212 0.112295 -0.0908357)
(-0.652232 0.103469 -0.118431)
(-0.548603 0.143577 -0.127524)
(-0.413898 0.156786 -0.149794)
(-0.384328 0.195099 -0.159583)
(-0.352396 0.220614 -0.168155)
(-0.309534 0.241639 -0.176615)
(-0.252233 0.259291 -0.17949)
(-0.182293 0.271996 -0.170916)
(-0.100906 0.283688 -0.148306)
(-0.0376761 0.286277 -0.121778)
(0.0278433 0.275135 -0.0774599)
(0.0972443 0.24438 -0.0507699)
(0.129285 0.197066 -0.0399164)
(0.142835 0.150389 -0.0282373)
(0.133967 0.105238 -0.0145249)
(0.110274 0.0684607 -0.00634694)
(0.0856045 0.0431635 -0.00189444)
(0.0614597 0.0284639 -0.000115899)
(0.0370484 0.0191719 0.00149723)
(0.0117559 0.0096573 0.00349472)
(9.36021e-05 -0.0223625 0.0029698)
(0.0179449 -0.0314054 -0.000364819)
(0.0446949 -0.0256115 -0.000246982)
(0.0608889 -0.0161114 0.00042687)
(0.0567449 0.000371177 -0.0015968)
(0.0420264 0.0198989 -0.00239246)
(0.0339851 0.0343156 -0.00382387)
(0.0228667 0.0530602 -0.00748544)
(0.0104394 0.0755638 -0.00194251)
(-0.0182162 0.0948533 -0.00451043)
(-0.0660545 0.111171 -0.00902047)
(-0.122999 0.134271 -0.0125862)
(-0.189269 0.157179 -0.0181065)
(-0.27612 0.179036 -0.0286673)
(-0.375657 0.200645 -0.0360905)
(-0.470195 0.216138 -0.0466967)
(-0.563258 0.235966 -0.0577132)
(-0.646948 0.265727 -0.0696478)
(-0.716711 0.298167 -0.0841383)
(-0.761238 0.334041 -0.10181)
(-0.774548 0.363452 -0.119989)
(-0.652551 0.399741 -0.120638)
(-0.497225 0.429769 -0.131784)
(-0.448519 0.469581 -0.131303)
(-0.41103 0.498634 -0.128441)
(-0.364891 0.517817 -0.127348)
(-0.308834 0.526696 -0.123883)
(-0.242236 0.522835 -0.113737)
(-0.170373 0.509627 -0.0948049)
(-0.101178 0.48167 -0.0720633)
(-0.0454414 0.461885 -0.0491643)
(-0.00456651 0.416541 -0.0270986)
(0.030959 0.361597 -0.0109539)
(0.0560231 0.297724 -0.00593559)
(0.0621664 0.22996 -0.00901902)
(0.0605206 0.171392 -0.0076512)
(0.0546529 0.122847 -0.00675438)
(0.0452181 0.0875094 -0.00407124)
(0.0318739 0.0592951 -0.000569402)
(0.0115579 0.0293994 0.00317177)
(-8.10169e-06 -0.0305083 0.00181078)
(0.020707 -0.0377115 -0.00138592)
(0.049975 -0.0255461 -0.001828)
(0.0668877 -0.00626253 0.000182246)
(0.0671516 0.01656 -0.00404801)
(0.04722 0.0506546 -0.0054713)
(0.0278415 0.0772848 -0.00721732)
(0.00874578 0.110075 -0.00151646)
(-0.0256406 0.136768 -0.00686638)
(-0.075864 0.1585 -0.00985885)
(-0.129181 0.185686 -0.0145173)
(-0.196582 0.218619 -0.0224397)
(-0.279101 0.252004 -0.0260379)
(-0.364145 0.27996 -0.03036)
(-0.45194 0.316698 -0.0374762)
(-0.537411 0.352409 -0.0443924)
(-0.616591 0.389507 -0.0488902)
(-0.684164 0.427285 -0.0521713)
(-0.736593 0.464343 -0.0560141)
(-0.767981 0.503919 -0.0616092)
(-0.769407 0.536481 -0.0646446)
(-0.635537 0.562905 -0.0509183)
(-0.469374 0.583767 -0.0503554)
(-0.41536 0.60296 -0.0406278)
(-0.383515 0.613125 -0.0298057)
(-0.348 0.61258 -0.0241885)
(-0.307535 0.600585 -0.0207354)
(-0.259478 0.576073 -0.0158591)
(-0.206686 0.544979 -0.00615363)
(-0.156231 0.50405 0.00144789)
(-0.112264 0.45846 0.00607462)
(-0.0756381 0.411633 0.00751988)
(-0.0515236 0.36464 0.00629712)
(-0.033345 0.314091 0.00309995)
(-0.017234 0.261564 -0.00130627)
(-0.0048846 0.211948 -0.00414944)
(0.00642523 0.163772 -0.00534088)
(0.0151095 0.122276 -0.00632373)
(0.0183551 0.0851936 -0.00224348)
(0.00919026 0.0394677 0.00345787)
(0.000871308 -0.0367387 0.00109059)
(0.0257371 -0.037012 -0.00358662)
(0.0595821 -0.0184882 -0.00099487)
(0.073977 0.0107682 -0.00287731)
(0.072685 0.0435072 -0.00357451)
(0.0471331 0.0810155 -0.00639934)
(0.0188658 0.115709 0.0011987)
(-0.0151609 0.156583 -0.00287163)
(-0.0636947 0.191012 -0.0058679)
(-0.115916 0.229735 -0.0110202)
(-0.172057 0.270953 -0.0150261)
(-0.23438 0.307313 -0.0197722)
(-0.30737 0.347871 -0.0213678)
(-0.382269 0.390426 -0.0228019)
(-0.456175 0.431645 -0.0247479)
(-0.525294 0.470222 -0.0232617)
(-0.586502 0.509897 -0.0181383)
(-0.638105 0.550043 -0.0105192)
(-0.674439 0.590234 -0.00244369)
(-0.693863 0.62861 -0.00260612)
(-0.692961 0.657107 -0.00174072)
(-0.560084 0.675924 0.0172396)
(-0.395595 0.678141 0.0195183)
(-0.345825 0.665711 0.0301323)
(-0.325774 0.648761 0.0380544)
(-0.30933 0.622028 0.0423589)
(-0.291997 0.58737 0.0444776)
(-0.265518 0.545339 0.0438399)
(-0.235753 0.500437 0.0395967)
(-0.207836 0.454202 0.0328886)
(-0.181693 0.407526 0.0236336)
(-0.15879 0.359392 0.0167943)
(-0.132818 0.313572 0.0111948)
(-0.107127 0.272254 0.00461751)
(-0.0852154 0.236631 -0.00133806)
(-0.0642253 0.201975 -0.00581716)
(-0.0430733 0.167713 -0.00869143)
(-0.0187009 0.132913 -0.00798772)
(0.00326348 0.0968916 -0.00264149)
(0.00613836 0.0412838 0.00374908)
(0.00303196 -0.0402689 0.000355795)
(0.0312664 -0.0322719 -0.00400018)
(0.0675618 -0.00205575 -0.00460047)
(0.0832474 0.0344038 -0.0034725)
(0.076946 0.0766765 -0.00807522)
(0.0423827 0.114008 -0.00196436)
(0.00811607 0.157919 0.00221482)
(-0.0287517 0.205507 -0.00204647)
(-0.0788379 0.255209 -0.0056208)
(-0.128914 0.304704 -0.00910282)
(-0.182163 0.352708 -0.0110571)
(-0.238145 0.393616 -0.0106593)
(-0.293591 0.432045 -0.00711741)
(-0.350139 0.468185 -0.00763054)
(-0.409449 0.504924 -0.00459503)
(-0.461998 0.542902 -0.00163476)
(-0.505221 0.585172 0.00569748)
(-0.53961 0.624128 0.0138229)
(-0.565632 0.659191 0.0174473)
(-0.584988 0.685425 0.018305)
(-0.585259 0.70607 0.0253773)
(-0.463905 0.736142 0.0481096)
(-0.323789 0.704961 0.0488169)
(-0.290334 0.646746 0.0569073)
(-0.285191 0.597157 0.0648967)
(-0.288761 0.549433 0.0673431)
(-0.291051 0.501436 0.0653131)
(-0.285449 0.453746 0.0615779)
(-0.27114 0.404241 0.0569737)
(-0.255757 0.360651 0.0474011)
(-0.242838 0.322225 0.0335398)
(-0.227138 0.287267 0.0185318)
(-0.207361 0.256767 0.00831655)
(-0.177865 0.225626 0.00261302)
(-0.142844 0.198581 -0.00371553)
(-0.109921 0.17765 -0.00824858)
(-0.0758302 0.156403 -0.011228)
(-0.0390152 0.134467 -0.00955852)
(-0.00429245 0.100687 -0.00420759)
(0.00541763 0.0389307 0.00374839)
(0.0034922 -0.0366202 -0.00141363)
(0.04046 -0.0124713 -0.00557409)
(0.0821816 0.0229259 -0.0105719)
(0.0936834 0.0670174 -0.00847274)
(0.0790085 0.109592 -0.00847761)
(0.0410541 0.153412 -0.00108832)
(0.0112947 0.206584 0.00262514)
(-0.0233144 0.259729 -0.00175258)
(-0.0687355 0.317845 -0.00326628)
(-0.11289 0.370899 -0.00488156)
(-0.159369 0.420181 -0.00457654)
(-0.205922 0.460679 -0.00227862)
(-0.25311 0.496489 0.00263529)
(-0.295782 0.525214 0.00540717)
(-0.333295 0.552404 0.00827118)
(-0.363456 0.578691 0.0149392)
(-0.392498 0.603821 0.020095)
(-0.424148 0.633039 0.0261466)
(-0.451833 0.650426 0.0289845)
(-0.469095 0.666079 0.0292242)
(-0.453004 0.691037 0.0377414)
(-0.371195 0.726222 0.0532173)
(-0.302551 0.670584 0.0519512)
(-0.285982 0.589137 0.0536067)
(-0.279421 0.514093 0.055022)
(-0.291168 0.459834 0.0555513)
(-0.306509 0.414094 0.0536952)
(-0.315341 0.37311 0.0508813)
(-0.314088 0.33125 0.0444388)
(-0.305267 0.293909 0.0335072)
(-0.296517 0.261823 0.0210901)
(-0.284975 0.234225 0.0114677)
(-0.266675 0.2154 0.000619245)
(-0.23862 0.200783 -0.00398975)
(-0.195981 0.186489 -0.00781389)
(-0.148845 0.172318 -0.0130169)
(-0.101872 0.159857 -0.0162306)
(-0.0542612 0.143899 -0.0136689)
(-0.0105604 0.109889 -0.00614842)
(0.00547906 0.0408501 0.00294519)
(0.00840697 -0.0297592 -0.000603104)
(0.0461532 0.0144845 -0.0168381)
(0.0901463 0.0550881 -0.0177418)
(0.102636 0.0997552 -0.0134239)
(0.0858339 0.143866 -0.00956435)
(0.0538081 0.196886 -0.00197477)
(0.0260797 0.257996 0.00218049)
(-0.000859651 0.309982 0.00202308)
(-0.0380723 0.366094 0.000959417)
(-0.0769371 0.41778 0.00155159)
(-0.116788 0.459403 0.00259628)
(-0.155764 0.493555 0.00759793)
(-0.190285 0.522563 0.0120794)
(-0.222409 0.543643 0.0161043)
(-0.252323 0.556246 0.0211969)
(-0.277981 0.561171 0.0259144)
(-0.294006 0.560582 0.0287132)
(-0.318117 0.5693 0.0235185)
(-0.346595 0.569283 0.0214485)
(-0.354326 0.585295 0.024695)
(-0.338932 0.615967 0.034864)
(-0.310538 0.631766 0.0423611)
(-0.304559 0.584208 0.0404589)
(-0.314561 0.515396 0.0375016)
(-0.310921 0.434917 0.0335362)
(-0.31471 0.377371 0.0331634)
(-0.3321 0.339423 0.0340954)
(-0.348655 0.305757 0.0346709)
(-0.354073 0.272055 0.0319962)
(-0.349962 0.238686 0.0200444)
(-0.34634 0.208297 0.0117711)
(-0.333366 0.183414 0.0033865)
(-0.312502 0.169741 -0.00437335)
(-0.283032 0.165755 -0.00807895)
(-0.240641 0.16865 -0.012432)
(-0.186073 0.168758 -0.0152947)
(-0.12346 0.16332 -0.0196922)
(-0.0666368 0.15154 -0.0175288)
(-0.0154482 0.119151 -0.00890519)
(0.004958 0.0429483 0.00230786)
(0.0112147 -0.014274 -0.00229334)
(0.0552489 0.0440628 -0.0238653)
(0.100208 0.0929509 -0.0246237)
(0.113032 0.136307 -0.0198828)
(0.102803 0.184122 -0.0132695)
(0.0807966 0.24056 -0.00703326)
(0.0553723 0.300834 0.00356203)
(0.0288182 0.354275 0.00673124)
(0.00307029 0.399477 0.00887268)
(-0.0307643 0.43817 0.0100176)
(-0.0662199 0.472616 0.0133751)
(-0.0948262 0.499446 0.0190073)
(-0.124287 0.516564 0.0215548)
(-0.153352 0.521322 0.0242279)
(-0.180257 0.51639 0.0256673)
(-0.202748 0.503645 0.0257306)
(-0.214795 0.493611 0.0220981)
(-0.240254 0.477141 0.0106657)
(-0.262321 0.475817 0.0133101)
(-0.257875 0.500176 0.0215681)
(-0.257199 0.523862 0.0284334)
(-0.273719 0.527781 0.0305772)
(-0.31308 0.502133 0.027478)
(-0.354475 0.454757 0.0228096)
(-0.360255 0.387513 0.0176859)
(-0.350112 0.322156 0.0158372)
(-0.358821 0.286749 0.0187425)
(-0.377993 0.25809 0.0215412)
(-0.389759 0.229628 0.0214619)
(-0.391023 0.196129 0.0131142)
(-0.388339 0.166531 0.00156274)
(-0.375671 0.147435 -0.00344057)
(-0.351098 0.133249 -0.00902274)
(-0.316366 0.133361 -0.0146415)
(-0.268606 0.14035 -0.0151466)
(-0.213021 0.156964 -0.0180459)
(-0.145422 0.162042 -0.0203966)
(-0.0772725 0.158375 -0.0208876)
(-0.019996 0.128268 -0.0117546)
(0.00396036 0.0473888 0.0018159)
(0.00914309 0.00625186 -0.00778017)
(0.0550819 0.0828806 -0.03118)
(0.107642 0.135239 -0.0313149)
(0.127648 0.180455 -0.0240179)
(0.127143 0.227846 -0.0177296)
(0.112715 0.281149 -0.00828167)
(0.0931942 0.334244 -0.00207767)
(0.0686934 0.382769 0.00784272)
(0.0393001 0.419446 0.0184963)
(0.0159558 0.446187 0.0219552)
(-0.00753859 0.468308 0.0256426)
(-0.035358 0.479651 0.0286135)
(-0.0641277 0.486055 0.0284167)
(-0.0938041 0.477128 0.0273907)
(-0.122704 0.458263 0.0240418)
(-0.142913 0.435718 0.0186881)
(-0.1608 0.417945 0.00750399)
(-0.181954 0.395914 0.00237757)
(-0.182272 0.414761 0.0115696)
(-0.182678 0.435459 0.017075)
(-0.208184 0.445583 0.021354)
(-0.25072 0.447899 0.0220463)
(-0.316471 0.438165 0.0182603)
(-0.384955 0.410906 0.0141696)
(-0.411963 0.368607 0.0112325)
(-0.392827 0.298693 0.00879226)
(-0.380064 0.249492 0.00980041)
(-0.395621 0.220675 0.0122653)
(-0.413198 0.193823 0.0123541)
(-0.420573 0.165855 0.00805798)
(-0.416825 0.134477 0.013911)
(-0.406588 0.110706 0.0161401)
(-0.386476 0.0966921 0.0133576)
(-0.352578 0.0956911 0.00645826)
(-0.300384 0.107493 -0.0128253)
(-0.236034 0.128341 -0.0184158)
(-0.160663 0.155125 -0.020463)
(-0.085351 0.157133 -0.0199951)
(-0.0235736 0.134522 -0.01354)
(0.00349253 0.0510491 0.00166373)
(0.00694308 0.0213925 -0.0110205)
(0.0560426 0.122485 -0.0369004)
(0.117823 0.182555 -0.0371612)
(0.146473 0.227125 -0.0259236)
(0.154398 0.271297 -0.0193094)
(0.147899 0.315746 -0.0101537)
(0.131982 0.360271 -0.00143234)
(0.108343 0.397077 0.00643427)
(0.0839187 0.425682 0.0126714)
(0.0605096 0.448502 0.0291259)
(0.0357656 0.457175 0.0371344)
(0.0175945 0.456622 0.0411915)
(-0.00884987 0.44439 0.0337239)
(-0.0456728 0.424822 0.0272816)
(-0.076426 0.400321 0.0183255)
(-0.0970905 0.377514 0.00728724)
(-0.116111 0.358861 -0.00343877)
(-0.119146 0.36212 0.00337382)
(-0.117092 0.378923 0.00793203)
(-0.140937 0.382746 0.01338)
(-0.177209 0.384856 0.0182783)
(-0.229172 0.388535 0.0184008)
(-0.308931 0.384951 0.0141183)
(-0.388696 0.368445 0.0115729)
(-0.439327 0.348236 0.00849407)
(-0.436259 0.297742 0.00786253)
(-0.403899 0.223429 0.00709091)
(-0.402633 0.18539 0.00670027)
(-0.418922 0.159551 0.00476177)
(-0.435068 0.13073 0.0221752)
(-0.444709 0.0984462 0.0296093)
(-0.437441 0.0689897 0.0285908)
(-0.416946 0.0517306 0.0175075)
(-0.382445 0.0519283 0.0100686)
(-0.329418 0.0659495 0.00205251)
(-0.25527 0.0933156 -0.0166641)
(-0.174438 0.129733 -0.0213895)
(-0.0953864 0.153068 -0.020034)
(-0.0242123 0.137594 -0.0144569)
(0.00278474 0.0548274 0.00103901)
(0.00506455 0.0392472 -0.013649)
(0.0574724 0.165549 -0.0424962)
(0.128307 0.23148 -0.0420259)
(0.166143 0.2726 -0.0269691)
(0.181753 0.30996 -0.015771)
(0.180361 0.34475 -0.00865378)
(0.168571 0.377773 -0.00358509)
(0.14737 0.402506 0.0074819)
(0.126057 0.423983 0.0144307)
(0.106122 0.438491 0.0235156)
(0.0830052 0.442335 0.0303696)
(0.0564499 0.434995 0.0409285)
(0.0266605 0.410635 0.0376407)
(-0.0043113 0.381553 0.0262107)
(-0.0346086 0.357897 0.0104922)
(-0.0557293 0.344636 -0.00137844)
(-0.0611753 0.337923 -0.00239614)
(-0.0645455 0.347673 0.00172771)
(-0.0822787 0.344132 0.0068523)
(-0.112888 0.340291 0.0130489)
(-0.149759 0.338369 0.0185563)
(-0.203865 0.34005 0.0181851)
(-0.290718 0.335426 0.0135313)
(-0.373266 0.322948 0.0126163)
(-0.43007 0.310563 0.00889727)
(-0.460893 0.289327 0.00606927)
(-0.432792 0.223779 0.00696388)
(-0.400213 0.155785 0.00589923)
(-0.413281 0.124779 0.0141025)
(-0.437891 0.0900224 0.024542)
(-0.453479 0.0583603 0.0346772)
(-0.455276 0.0334452 0.051993)
(-0.439766 0.01151 0.0523151)
(-0.411935 0.00140927 0.0365748)
(-0.362996 0.0156591 0.0242344)
(-0.28567 0.0490819 0.00483966)
(-0.1873 0.0924377 -0.0221662)
(-0.0967002 0.136247 -0.0209283)
(-0.0274278 0.135348 -0.0147506)
(0.00326418 0.056092 0.000183424)
(0.00385582 0.0558956 -0.0166287)
(0.0588933 0.205967 -0.0485143)
(0.136957 0.27749 -0.0477559)
(0.183871 0.314438 -0.0284429)
(0.207399 0.34113 -0.0127356)
(0.210797 0.364573 -0.00287709)
(0.1997 0.387486 0.00171944)
(0.182421 0.403807 0.00492298)
(0.168062 0.418947 0.00907444)
(0.148396 0.424578 0.0196873)
(0.12281 0.418842 0.0232822)
(0.0949209 0.403527 0.0271722)
(0.059746 0.382018 0.030484)
(0.0283022 0.357804 0.0191393)
(0.0095384 0.34819 0.00496423)
(-0.00535957 0.340522 -0.00249831)
(-0.0172061 0.337536 -9.65773e-05)
(-0.0331385 0.325955 0.00311469)
(-0.0578332 0.314794 0.0082555)
(-0.0882036 0.305641 0.0142364)
(-0.121411 0.297945 0.0201047)
(-0.173831 0.294027 0.0192671)
(-0.262344 0.285604 0.0143757)
(-0.343109 0.274901 0.0139085)
(-0.395618 0.265518 0.00979504)
(-0.439566 0.25721 0.00631357)
(-0.449678 0.230465 0.00723126)
(-0.412256 0.147783 0.00908538)
(-0.398497 0.0937677 0.0152718)
(-0.424883 0.0526051 0.0295026)
(-0.443017 0.0194764 0.046027)
(-0.455707 -0.0174016 0.036609)
(-0.461294 -0.0511969 0.0254823)
(-0.439612 -0.0724777 0.0157552)
(-0.391834 -0.0626556 0.00477071)
(-0.31764 -0.0184314 0.00604417)
(-0.212203 0.0471159 -0.00105323)
(-0.105829 0.105645 -0.0285669)
(-0.0268555 0.128708 -0.0137059)
(0.00277512 0.0567195 -0.00100446)
(0.00277639 0.0684404 -0.0185042)
(0.0599378 0.238807 -0.052526)
(0.144041 0.315239 -0.0527715)
(0.196938 0.34769 -0.0321871)
(0.226417 0.36455 -0.0121561)
(0.236221 0.376223 0.00173237)
(0.230937 0.387388 0.0075368)
(0.217759 0.401014 0.0119974)
(0.203795 0.40999 0.01281)
(0.182309 0.407774 0.013808)
(0.156616 0.396652 0.0134385)
(0.12924 0.381544 0.0183159)
(0.0991877 0.368329 0.0196105)
(0.0802423 0.359687 0.0107889)
(0.0591393 0.35621 -0.00119659)
(0.0320686 0.339409 -0.00135498)
(0.00824769 0.327708 0.000364895)
(-0.0151114 0.306489 0.00587803)
(-0.0369976 0.288971 0.0100331)
(-0.065016 0.273151 0.0154649)
(-0.0929159 0.25864 0.0213084)
(-0.141273 0.247208 0.02019)
(-0.227104 0.235239 0.0154135)
(-0.302717 0.225307 0.014939)
(-0.349401 0.216581 0.0113412)
(-0.390102 0.210549 0.00948549)
(-0.430134 0.199037 0.0118208)
(-0.420309 0.154884 0.0124982)
(-0.39101 0.0643627 0.0208105)
(-0.400093 0.0167379 0.0276057)
(-0.425935 -0.0283503 0.0249491)
(-0.456348 -0.0798055 0.0211329)
(-0.469116 -0.124565 0.0135908)
(-0.456622 -0.151512 0.0025397)
(-0.41079 -0.155053 -0.00730151)
(-0.335692 -0.108692 -0.013629)
(-0.233281 -0.0248187 -0.00609425)
(-0.117384 0.064866 -0.0166861)
(-0.0283843 0.114505 -0.0172939)
(0.00238411 0.0578165 -0.00245676)
(0.00124433 0.0739281 -0.0161701)
(0.0585587 0.261781 -0.0513928)
(0.14682 0.342547 -0.0529153)
(0.20676 0.370608 -0.0323343)
(0.242412 0.378932 -0.0111012)
(0.255994 0.38022 0.00414587)
(0.258698 0.382743 0.0106786)
(0.252226 0.390128 0.0131984)
(0.237534 0.395354 0.012914)
(0.214963 0.394931 0.0131357)
(0.192551 0.390874 0.0125683)
(0.17444 0.385716 0.0129473)
(0.150939 0.380483 0.0145248)
(0.126708 0.371504 0.00256054)
(0.0911143 0.351348 -0.00514361)
(0.0560831 0.32723 -0.00154502)
(0.0285129 0.30706 0.000107365)
(9.40279e-05 0.287971 0.00661437)
(-0.0201716 0.262179 0.0111845)
(-0.0439443 0.239798 0.0158944)
(-0.0666337 0.218329 0.0211483)
(-0.109349 0.198038 0.0200281)
(-0.188935 0.184684 0.0158347)
(-0.259137 0.176975 0.0153942)
(-0.300127 0.168742 0.0119494)
(-0.338617 0.162318 0.0114937)
(-0.378241 0.152271 0.00446436)
(-0.411816 0.139719 0.00291946)
(-0.394486 0.071079 0.00933977)
(-0.373369 -0.00928044 0.00982267)
(-0.401587 -0.0719941 0.013044)
(-0.433923 -0.128618 0.0119275)
(-0.455557 -0.179865 0.00527911)
(-0.457345 -0.220743 -0.00620529)
(-0.421047 -0.237219 -0.0168337)
(-0.350171 -0.209114 -0.0301295)
(-0.251773 -0.121533 -0.0276593)
(-0.131188 0.00581344 -0.00179999)
(-0.0312745 0.0847134 -0.0248464)
(0.00273978 0.0574344 -0.00445394)
(0.000367719 0.0862788 -0.0125277)
(0.0562324 0.282857 -0.0491308)
(0.145675 0.366746 -0.0518253)
(0.21074 0.390894 -0.0321212)
(0.252382 0.390211 -0.00987113)
(0.273702 0.382996 0.0049157)
(0.284611 0.377121 0.00922946)
(0.284134 0.381168 0.010623)
(0.275243 0.391101 0.00994012)
(0.259247 0.399874 0.00990321)
(0.242552 0.404692 0.00992624)
(0.223608 0.402879 0.0108302)
(0.192872 0.388592 0.013439)
(0.155232 0.368675 0.00466521)
(0.110383 0.33801 -0.00616303)
(0.0732975 0.31324 -0.00352531)
(0.0468851 0.285597 -0.000657172)
(0.0152692 0.265033 0.00457909)
(-0.00782452 0.236475 0.0115979)
(-0.026689 0.206923 0.0155119)
(-0.0469113 0.178777 0.019866)
(-0.0814941 0.151307 0.0197948)
(-0.149189 0.137395 0.0165049)
(-0.213903 0.133123 0.0158708)
(-0.252597 0.127122 0.011875)
(-0.286972 0.119444 0.00764773)
(-0.323197 0.110315 -0.000875214)
(-0.360609 0.0957156 -0.000253095)
(-0.387035 0.0726889 -0.000762514)
(-0.378962 -0.0101745 -0.00148375)
(-0.376151 -0.087253 0.00232791)
(-0.402414 -0.157832 0.00484557)
(-0.428819 -0.221513 0.00149742)
(-0.441922 -0.276539 -0.00775093)
(-0.420413 -0.309505 -0.020394)
(-0.358888 -0.299784 -0.0358647)
(-0.25839 -0.226723 -0.0465272)
(-0.145023 -0.0791129 -0.0310756)
(-0.0372493 0.046244 -0.0191141)
(0.00897873 0.0541339 -0.00755457)
(-0.00600723 0.0948447 -0.0184552)
(0.0448713 0.299335 -0.0505521)
(0.137751 0.389353 -0.0539308)
(0.208634 0.41314 -0.0350374)
(0.258281 0.407851 -0.0116263)
(0.286234 0.394729 0.000144328)
(0.309218 0.382587 0.00595692)
(0.325659 0.394796 0.00672755)
(0.325551 0.411488 0.00620961)
(0.310156 0.423829 0.00728709)
(0.288934 0.427578 0.00839954)
(0.259668 0.414914 0.00885031)
(0.219971 0.388852 0.00960545)
(0.1753 0.357597 0.00859579)
(0.127299 0.325734 -0.00075906)
(0.0876222 0.301911 -0.00591097)
(0.0595581 0.26985 -0.00215533)
(0.0297564 0.242758 0.00215819)
(0.00319767 0.215919 0.00945555)
(-0.0163223 0.181116 0.0144705)
(-0.0333202 0.14971 0.0184506)
(-0.0585366 0.119628 0.0195385)
(-0.111656 0.102871 0.0175219)
(-0.169983 0.0993681 0.0169438)
(-0.209009 0.0937811 0.0137406)
(-0.243327 0.0860581 0.00657166)
(-0.279892 0.0737492 0.00204333)
(-0.314229 0.0609808 0.00508761)
(-0.349808 0.042282 0.00375511)
(-0.365002 -0.000452518 -0.000919808)
(-0.365679 -0.0945473 -0.00817419)
(-0.377872 -0.162476 -0.00168538)
(-0.396189 -0.235793 -0.00142091)
(-0.413112 -0.305667 -0.00777155)
(-0.402884 -0.360253 -0.0203926)
(-0.358555 -0.373925 -0.0401614)
(-0.269859 -0.321015 -0.0555025)
(-0.155799 -0.176164 -0.0468835)
(-0.0385057 -0.00219857 -0.00802446)
(0.0109321 0.0495454 -0.0110276)
(-0.00822973 0.159816 -0.0205098)
(0.038965 0.36917 -0.0461421)
(0.130782 0.464683 -0.050969)
(0.205182 0.48802 -0.0342751)
(0.261787 0.47788 -0.0119626)
(0.299143 0.456699 -0.00241385)
(0.344321 0.441457 0.00481853)
(0.37747 0.455874 0.00589852)
(0.375775 0.466003 0.00589935)
(0.356473 0.464399 0.00612403)
(0.32456 0.451378 0.00616044)
(0.28262 0.424114 0.00593958)
(0.234865 0.389524 0.00611948)
(0.187882 0.351828 0.00646208)
(0.144213 0.317084 0.00495709)
(0.101222 0.290279 -0.00173373)
(0.0685917 0.261923 -0.00516099)
(0.0422861 0.228747 -0.00043478)
(0.0132725 0.200918 0.00498822)
(-0.0082535 0.168167 0.0122684)
(-0.0224284 0.135683 0.0161068)
(-0.0413327 0.104589 0.0181199)
(-0.0810429 0.0831713 0.0173211)
(-0.132127 0.0772166 0.0169598)
(-0.170928 0.0696652 0.0149071)
(-0.20574 0.0578007 0.00353923)
(-0.237759 0.0483002 0.00569118)
(-0.268455 0.0390839 0.00679291)
(-0.3076 0.0214266 0.00655554)
(-0.354376 -0.00440954 0.00427974)
(-0.353754 -0.0667056 0.00324841)
(-0.341423 -0.171668 -0.012818)
(-0.365643 -0.262827 -0.015375)
(-0.385826 -0.346583 -0.0200259)
(-0.38389 -0.42355 -0.0307702)
(-0.349916 -0.467853 -0.051219)
(-0.271065 -0.438065 -0.0731943)
(-0.169134 -0.290891 -0.0720708)
(-0.0451304 -0.078907 -0.034463)
(0.0142896 0.0359655 -0.00933741)
(-0.0153561 0.286384 -0.0243237)
(0.0245654 0.504476 -0.0439079)
(0.115642 0.606889 -0.0500265)
(0.192387 0.636161 -0.0353086)
(0.2557 0.627258 -0.0159323)
(0.304847 0.60265 -0.00657209)
(0.372887 0.573567 0.00255508)
(0.418315 0.552034 0.0029167)
(0.407179 0.53208 0.00240168)
(0.375835 0.503656 0.00302733)
(0.336826 0.467614 0.00360707)
(0.292004 0.427824 0.00370569)
(0.243727 0.386737 0.00370912)
(0.196358 0.347844 0.00369252)
(0.154351 0.311466 0.00434112)
(0.116617 0.278326 0.00430924)
(0.0799138 0.251032 -0.0014983)
(0.0503005 0.220473 -0.00344888)
(0.0244914 0.189287 0.00151199)
(0.000283974 0.161269 0.00781306)
(-0.0155979 0.128333 0.0129458)
(-0.0302518 0.0978551 0.0158498)
(-0.0580265 0.072313 0.016003)
(-0.101019 0.0614787 0.0150007)
(-0.142772 0.0520586 0.0120221)
(-0.173637 0.0377855 0.00888038)
(-0.199272 0.0291156 0.00908797)
(-0.229661 0.0159301 0.00964312)
(-0.264761 0.000880685 0.010709)
(-0.302794 -0.0168972 0.00914643)
(-0.355814 -0.0410899 0.00325874)
(-0.369865 -0.132507 0.00431441)
(-0.349732 -0.258557 -0.00735833)
(-0.358964 -0.380357 -0.0180223)
(-0.3637 -0.486088 -0.0291189)
(-0.338644 -0.563298 -0.0472564)
(-0.256924 -0.566282 -0.0713506)
(-0.161119 -0.439793 -0.0808686)
(-0.0455115 -0.170538 -0.0555194)
(0.0183684 0.0203485 -0.0113506)
(-0.011336 0.314116 -0.0147772)
(0.0251105 0.549138 -0.0430225)
(0.109688 0.665603 -0.0517984)
(0.189157 0.710224 -0.0419699)
(0.256165 0.708792 -0.0266983)
(0.303408 0.686056 -0.0184376)
(0.36207 0.651337 -0.00727879)
(0.40667 0.597195 -0.0034665)
(0.401372 0.552491 -0.00154848)
(0.371292 0.50888 0.000860895)
(0.334345 0.463984 0.00248066)
(0.292638 0.418917 0.00365663)
(0.247997 0.375228 0.0041723)
(0.204394 0.335487 0.00372151)
(0.162937 0.299272 0.00405434)
(0.125415 0.265539 0.00478056)
(0.0930662 0.233627 0.00643144)
(0.06168 0.205471 0.000752682)
(0.0341209 0.175966 -5.49246e-06)
(0.00932595 0.149101 0.00442641)
(-0.00905324 0.119389 0.0103009)
(-0.0219506 0.0906134 0.0131151)
(-0.0424575 0.0637367 0.0141647)
(-0.0765225 0.0471034 0.0129495)
(-0.1162 0.0350278 0.00914172)
(-0.145613 0.0251673 0.0105132)
(-0.169268 0.0128167 0.0112792)
(-0.195387 -2.19065e-05 0.0130328)
(-0.223158 -0.0122441 0.0143061)
(-0.257179 -0.0288581 0.0126256)
(-0.302961 -0.0537254 0.00880352)
(-0.35992 -0.0839927 0.00322889)
(-0.385411 -0.175359 0.0022925)
(-0.374755 -0.300746 -0.00337734)
(-0.360251 -0.43144 -0.0131119)
(-0.331631 -0.552881 -0.027883)
(-0.254488 -0.616843 -0.0534404)
(-0.138835 -0.551145 -0.0683198)
(-0.0200697 -0.289123 -0.0684738)
(0.0233376 0.00225306 -0.0033295)
(0.00224957 0.292647 0.00225005)
(0.0401876 0.516568 -0.0306277)
(0.112525 0.638856 -0.0401939)
(0.189654 0.690995 -0.0346307)
(0.255568 0.691818 -0.0202432)
(0.305913 0.667868 -0.0129788)
(0.355465 0.635103 -0.00363702)
(0.392877 0.583108 -0.000944004)
(0.393532 0.531583 -0.000436681)
(0.365549 0.486925 0.00122816)
(0.330067 0.441418 0.00321047)
(0.291168 0.395963 0.00516966)
(0.250756 0.352229 0.00683309)
(0.210597 0.312746 0.0075132)
(0.172321 0.276717 0.00801166)
(0.135995 0.244442 0.00803175)
(0.10238 0.212158 0.00817298)
(0.0730982 0.181537 0.0080052)
(0.0463993 0.154937 0.00645255)
(0.0195038 0.129649 0.00394188)
(-0.000696181 0.105426 0.0087443)
(-0.0143267 0.0772746 0.0111664)
(-0.0307114 0.0528953 0.0124483)
(-0.0583383 0.0318711 0.0115687)
(-0.0912137 0.01815 0.0109203)
(-0.118438 0.00878234 0.0113869)
(-0.140707 -0.000607402 0.0131889)
(-0.161255 -0.0102461 0.0146225)
(-0.185694 -0.021985 0.01557)
(-0.215485 -0.0393298 0.0154531)
(-0.254326 -0.0635792 0.0124714)
(-0.301006 -0.0962458 0.00897336)
(-0.339344 -0.135159 0.00363348)
(-0.361994 -0.210429 -0.00206283)
(-0.372291 -0.322131 -0.00704284)
(-0.364748 -0.453142 -0.0149434)
(-0.297943 -0.555206 -0.0288717)
(-0.181641 -0.547766 -0.0504315)
(-0.0242005 -0.330615 -0.05464)
(0.043541 0.0273003 -0.0216774)
(0.00492006 0.288053 0.00390983)
(0.0418432 0.489566 -0.0239629)
(0.110005 0.611884 -0.0322084)
(0.185033 0.667219 -0.0286761)
(0.250424 0.672461 -0.0130841)
(0.302957 0.648011 -0.00671621)
(0.349409 0.611042 0.00124192)
(0.378436 0.562847 0.00305031)
(0.380501 0.507623 0.00209615)
(0.358324 0.458267 0.00237449)
(0.324318 0.411459 0.00388169)
(0.288515 0.365185 0.00626133)
(0.252723 0.320929 0.00929036)
(0.217494 0.281009 0.0120419)
(0.182056 0.244571 0.0139543)
(0.146101 0.20692 0.0141618)
(0.112905 0.168222 0.0135439)
(0.08456 0.138781 0.012445)
(0.0594549 0.117969 0.0110534)
(0.0340034 0.100414 0.0102946)
(0.0100145 0.0845896 0.00779548)
(-0.00502156 0.0615024 0.0113501)
(-0.0193263 0.0390803 0.0113976)
(-0.0424276 0.0182541 0.0103689)
(-0.0687983 0.00415998 0.0110857)
(-0.0906383 -0.00474203 0.0130723)
(-0.10918 -0.0117696 0.0137331)
(-0.129198 -0.020302 0.0146372)
(-0.151786 -0.0320809 0.0158663)
(-0.179134 -0.0487182 0.0171181)
(-0.212965 -0.0729396 0.0176179)
(-0.249078 -0.106096 0.0173118)
(-0.276072 -0.147048 0.0145111)
(-0.301034 -0.208743 0.0106332)
(-0.331537 -0.300876 0.00684687)
(-0.351518 -0.419292 -0.000888092)
(-0.323667 -0.521078 -0.0160685)
(-0.228795 -0.542977 -0.0370987)
(-0.0649851 -0.341965 -0.0485354)
(0.0281712 0.0503227 -0.0131295)
(0.0089703 0.262087 0.00469579)
(0.0461547 0.445859 -0.0181586)
(0.108558 0.57091 -0.0262414)
(0.181556 0.631082 -0.0246909)
(0.245513 0.642961 -0.0120363)
(0.297153 0.621362 -0.00420821)
(0.342099 0.583 0.00291022)
(0.366179 0.535329 0.00541556)
(0.365352 0.482235 0.00427878)
(0.346001 0.430123 0.00322881)
(0.315986 0.380756 0.00387974)
(0.283057 0.332835 0.00612699)
(0.251972 0.286066 0.00996516)
(0.221109 0.241864 0.0143309)
(0.184919 0.198615 0.0176602)
(0.144912 0.152724 0.0202415)
(0.117322 0.112128 0.022029)
(0.103156 0.0873936 0.0207131)
(0.085154 0.0748803 0.017605)
(0.0600006 0.0642765 0.0152381)
(0.0313798 0.055431 0.01341)
(0.00904994 0.0446298 0.01068)
(-0.00613529 0.0254359 0.0125241)
(-0.0254195 0.00558329 0.0109799)
(-0.0451955 -0.00594929 0.0115122)
(-0.0627715 -0.0148164 0.0122627)
(-0.0802691 -0.0241823 0.0131623)