/*--------------------------------*- C++ -*----------------------------------*\
| =========                 |                                                 |
| \\      /  F ield         | OpenFOAM: The Open Source CFD Toolbox           |
|  \\    /   O peration     | Version:  v1806                                 |
|   \\  /    A nd           | Web:      www.OpenFOAM.com                      |
|    \\/     M anipulation  |                                                 |
\*---------------------------------------------------------------------------*/
FoamFile
{
    version     2.0;
    format      ascii;
    class       surfaceScalarField;
    location    "0.135";
    object      phi;
}
// * * * * * * * * * * * * * * * * * * * * * * * * * * * * * * * * * * * * * //

dimensions      [0 3 -1 0 0 0 0];
oriented        oriented;


internalField   nonuniform List<scalar> 
187200
(
-3.60813e-06
2.2545e-05
-1.89818e-05
3.71117e-05
-4.62747e-06
-3.60931e-05
5.17758e-05
7.32441e-06
-2.19896e-05
6.19459e-05
9.80276e-06
-1.99729e-05
6.75808e-05
1.25814e-05
-1.82152e-05
7.37677e-05
1.25062e-05
-1.86916e-05
7.94562e-05
1.38873e-05
-1.95752e-05
8.94045e-05
1.14531e-05
-2.14023e-05
0.000102372
1.18131e-05
-2.47822e-05
0.000117499
1.16547e-05
-2.67835e-05
0.000129686
1.48143e-05
-2.70021e-05
0.000138013
1.63447e-05
-2.4672e-05
0.000135856
2.09542e-05
-1.8797e-05
0.000120727
2.7408e-05
-1.22798e-05
9.27832e-05
3.02581e-05
-2.31342e-06
7.2839e-05
1.53971e-05
4.54821e-06
3.81947e-05
1.53854e-05
1.926e-05
-4.11259e-07
2.78827e-05
1.07239e-05
-9.29523e-05
8.38422e-05
8.69891e-06
-0.000255973
0.000140462
2.25592e-05
-0.000519715
0.000214475
4.92677e-05
-0.000693404
0.000217782
-4.40925e-05
-0.000830888
0.000269108
-0.000131623
-0.000866174
0.00028555
-0.000250263
-0.000847671
0.000318391
-0.000336894
-0.000771355
0.000346986
-0.000423302
-0.00065447
0.000374613
-0.000491499
-0.000506811
0.000392164
-0.000539823
-0.000329215
0.000386339
-0.000563934
-0.000153813
0.00037203
-0.000547431
-2.00512e-05
0.000339496
-0.000473258
6.6437e-05
0.000292124
-0.000378613
9.58092e-05
0.000229099
-0.000258472
8.88123e-05
0.000167204
-0.000160207
5.91757e-05
0.000116934
-8.72969e-05
3.39676e-05
7.63794e-05
-5.11712e-05
1.49055e-05
5.18213e-05
-3.27592e-05
3.93192e-06
3.86516e-05
-2.7678e-05
-3.12015e-06
2.80674e-05
-2.10152e-05
1.88244e-05
-2.19439e-05
-1.36375e-05
6.83181e-05
-3.21363e-05
2.30251e-05
1.02215e-05
-5.15134e-05
5.3279e-05
1.90126e-05
-4.19422e-05
7.30672e-05
2.739e-05
-3.73742e-05
8.30788e-05
3.87087e-05
-3.6137e-05
8.98885e-05
4.47942e-05
-3.90969e-05
9.31433e-05
5.40463e-05
-4.3415e-05
9.55954e-05
5.66954e-05
-4.76972e-05
8.61883e-05
7.82594e-05
-5.70415e-05
6.33912e-05
0.000100661
-6.62099e-05
2.3598e-05
0.000136809
-8.22014e-05
-3.2859e-05
0.000165193
-9.23914e-05
-0.000106111
0.000193025
-9.88191e-05
-0.000197906
0.000230606
-0.000111402
-0.000309535
0.000280248
-0.000138359
-0.000462917
0.000343884
-0.000175104
-0.000611763
0.000414733
-0.000250504
-0.000767254
0.000489046
-0.000305674
-0.000912243
0.000597348
-0.000368519
-0.0010687
0.000707818
-0.000410896
-0.00123466
0.000827563
-0.00044713
-0.00133422
0.000912334
-0.000595001
-0.00140701
0.0010091
-0.000667197
-0.00139738
0.00104428
-0.000768358
-0.00131579
0.00108951
-0.000852706
-0.00116942
0.00111379
-0.000913185
-0.000974649
0.00112524
-0.000945401
-0.000742935
0.00110469
-0.000944244
-0.00050866
0.00105277
-0.000900708
-0.000277021
0.000972194
-0.000831803
-8.15384e-05
0.000847199
-0.000703187
8.20998e-05
0.00070438
-0.000575895
0.000158876
0.000560714
-0.000408391
0.000185617
0.000429899
-0.000289435
0.000166646
0.000318004
-0.000182096
0.000131238
0.000232511
-0.000120723
9.08783e-05
0.000174243
-8.20612e-05
5.48152e-05
0.00013815
-6.34342e-05
2.2489e-05
0.000107586
-4.7191e-05
7.24596e-05
-3.11434e-05
3.75307e-06
8.60995e-05
-2.15357e-05
3.1871e-05
3.21324e-05
-5.00298e-05
5.9765e-05
4.27859e-05
-5.16668e-05
7.61918e-05
6.48173e-05
-5.38532e-05
8.09221e-05
9.01878e-05
-5.62085e-05
7.76958e-05
0.000112782
-6.47612e-05
6.51084e-05
0.000139062
-7.24286e-05
3.82883e-05
0.00017819
-9.46753e-05
1.37218e-06
0.000229356
-0.000114181
-5.32636e-05
0.000285405
-0.000130108
-0.000128181
0.000355781
-0.000144054
-0.000235412
0.000435998
-0.000163575
-0.000388999
0.000531867
-0.000185255
-0.000553014
0.000622914
-0.000228293
-0.000725072
0.00072025
-0.000267941
-0.000878596
0.000818655
-0.000321246
-0.00100906
0.000925213
-0.000380015
-0.00112193
0.00103848
-0.000436557
-0.00123496
0.00119324
-0.000482867
-0.00136969
0.00135003
-0.000507476
-0.00150278
0.00147263
-0.00051197
-0.00156776
0.00157971
-0.000602394
-0.00159941
0.0016636
-0.000622857
-0.00156574
0.00167509
-0.000664486
-0.00147108
0.00169916
-0.000704316
-0.00132679
0.00168645
-0.00071694
-0.00114769
0.00165181
-0.000705662
-0.000943883
0.00157233
-0.000671439
-0.000731741
0.00145904
-0.000618407
-0.000511294
0.00130787
-0.000556124
-0.000331789
0.00113989
-0.000472197
-0.000173572
0.000950404
-0.000404241
-5.09446e-05
0.000754707
-0.00031662
3.31582e-05
0.000593368
-0.00024757
6.65375e-05
0.000458032
-0.000173406
7.69272e-05
0.000359005
-0.000136883
6.82812e-05
0.000286119
-0.000103228
4.83097e-05
0.000241529
-8.34064e-05
2.26158e-05
0.000189441
-5.61558e-05
0.00012719
-3.2109e-05
7.02913e-06
0.000104577
-2.5507e-05
3.0297e-05
6.66546e-05
-5.77899e-05
5.18992e-05
9.01357e-05
-6.89515e-05
5.95939e-05
0.000131559
-7.44359e-05
5.2915e-05
0.000176058
-7.91907e-05
3.23641e-05
0.000228869
-9.55351e-05
-2.59356e-07
0.000289056
-0.00011737
-4.38345e-05
0.000365091
-0.000143325
-0.000103599
0.00045833
-0.000169209
-0.000197719
0.00056699
-0.000187466
-0.000319742
0.000684135
-0.00020633
-0.000456727
0.000799563
-0.000226581
-0.000594765
0.000915127
-0.000245222
-0.000731221
0.0010239
-0.000264525
-0.000860458
0.00113839
-0.000288904
-0.000973291
0.00125166
-0.000320174
-0.00107222
0.00137572
-0.000351573
-0.00115743
0.00148951
-0.000365825
-0.00124858
0.00165031
-0.000365921
-0.00135955
0.0017834
-0.000322392
-0.00148905
0.00185709
-0.00025496
-0.00154133
0.00192195
-0.000289957
-0.00157036
0.00195511
-0.00026248
-0.00153796
0.00190909
-0.000266407
-0.00146062
0.00189383
-0.000272011
-0.00135111
0.00183769
-0.000260741
-0.00122
0.00176303
-0.000242334
-0.00107518
0.00164514
-0.000217643
-0.000919992
0.00149851
-0.000194661
-0.000755468
0.00133063
-0.000187279
-0.000574362
0.00114506
-0.000186273
-0.000401801
0.000965869
-0.000188024
-0.000251799
0.000787787
-0.00018308
-0.000128687
0.000644829
-0.00017457
-4.71823e-05
0.000533113
-0.000156584
7.00051e-06
0.00044009
-0.000135268
3.66127e-05
0.000371429
-0.000114923
4.35012e-05
0.000328804
-9.41644e-05
2.45376e-05
0.000269174
-6.07686e-05
0.000179989
-2.82584e-05
6.48432e-06
0.000139617
-4.15248e-05
2.92662e-05
0.000126513
-8.26392e-05
5.05135e-05
0.00016817
-9.92806e-05
4.8177e-05
0.000237257
-0.000103361
2.70252e-05
0.000310812
-0.0001136
-1.35179e-05
0.000401328
-0.000131913
-6.53553e-05
0.000501897
-0.000161003
-0.000123559
0.000611554
-0.000188259
-0.000191422
0.000739482
-0.000213289
-0.000268303
0.000870087
-0.000226215
-0.000357709
0.0010046
-0.000231063
-0.000459799
0.00113223
-0.000230578
-0.000569934
0.00125322
-0.000227957
-0.000681855
0.00136442
-0.0002286
-0.000788635
0.00147223
-0.000227059
-0.000880033
0.00156806
-0.000225003
-0.000951306
0.00165944
-0.000212445
-0.000999047
0.00171341
-0.000176161
-0.00107496
0.00182016
-9.39327e-05
-0.00118095
0.00188259
6.79332e-06
-0.00132184
0.00188152
0.000116455
-0.00137889
0.00186463
0.000114374
-0.00142323
0.00186244
0.000137014
-0.00141905
0.00178319
0.000121731
-0.00138651
0.00175553
0.000105764
-0.00133364
0.00168812
9.66995e-05
-0.00126492
0.00161209
8.2221e-05
-0.00119038
0.00150242
6.81946e-05
-0.00109218
0.00137484
2.54704e-05
-0.000968989
0.00122696
-1.95247e-05
-0.000821876
0.0010687
-7.07499e-05
-0.000653418
0.000918937
-0.000121525
-0.000481539
0.00077009
-0.000154182
-0.000320298
0.000651444
-0.000167855
-0.000183477
0.000565739
-0.000169446
-8.01447e-05
0.000492829
-0.000156071
-1.32247e-05
0.000435707
-0.000131197
2.20457e-05
0.000398782
-0.000105247
2.25071e-05
0.00033123
-6.2515e-05
0.000224632
-2.2135e-05
-9.21315e-07
0.000208523
-6.79839e-05
2.67275e-05
0.000223933
-0.000125067
4.88135e-05
0.000288539
-0.000142454
4.08843e-05
0.000384033
-0.000138845
6.31695e-06
0.00048835
-0.000142969
-4.25938e-05
0.000611073
-0.000160832
-8.59669e-05
0.000740301
-0.00019503
-0.000120969
0.000874952
-0.000228396
-0.000158959
0.00102154
-0.000244066
-0.000217271
0.00116335
-0.000234948
-0.000286211
0.00129068
-0.000217132
-0.000358124
0.00139899
-0.000194845
-0.000431191
0.00149579
-0.000169507
-0.000499747
0.00157476
-0.000141781
-0.000562205
0.00164251
-0.000107824
-0.000607876
0.00168423
-7.04942e-05
-0.000668791
0.00171387
6.48416e-06
-0.000749768
0.0017105
8.3892e-05
-0.000823232
0.00172056
0.000173066
-0.000928968
0.00170076
0.000287565
-0.00107742
0.00167479
0.000355175
-0.00115506
0.00158935
0.00035292
-0.00123618
0.00157941
0.000364158
-0.00127818
0.00148276
0.000342424
-0.00129694
0.00145746
0.00031683
-0.00129943
0.00139832
0.000292283
-0.00129047
0.0013458
0.000257331
-0.00126839
0.00126649
0.000213848
-0.0012282
0.00117482
0.000159829
-0.00113937
0.0010738
6.43428e-05
-0.00102214
0.000963528
-1.20672e-05
-0.00085954
0.000853954
-9.76124e-05
-0.000676116
0.000745395
-0.000158727
-0.000489138
0.000658426
-0.000193958
-0.000310323
0.000591402
-0.000204478
-0.000169391
0.000535672
-0.000183777
-6.43017e-05
0.000484492
-0.000153877
3.28168e-06
0.000450648
-0.00011945
1.87281e-05
0.000384635
-6.885e-05
0.000262847
-1.94885e-05
-2.03767e-06
0.000309607
-9.90441e-05
3.43737e-05
0.000359555
-0.000172029
6.11007e-05
0.000451791
-0.000189977
5.10723e-05
0.00057503
-0.000180965
1.84928e-05
0.000700679
-0.000179747
-2.92307e-05
0.000856395
-0.000197597
-5.28723e-05
0.000996437
-0.000232494
-7.23397e-05
0.0011389
-0.000244478
-0.000104414
0.00128502
-0.000231408
-0.000142264
0.00140091
-0.000199712
-0.000187919
0.00150018
-0.000163844
-0.000242706
0.00157763
-0.000123849
-0.000300714
0.00163527
-8.1466e-05
-0.000353957
0.00166277
-3.47674e-05
-0.000401905
0.00166899
2.1465e-05
-0.000441285
0.00163872
8.489e-05
-0.000480554
0.00160524
0.000147898
-0.000521344
0.00152848
0.000222808
-0.000598171
0.00147936
0.000318022
-0.000690533
0.0013915
0.000401619
-0.000848027
0.00135854
0.000473743
-0.00094243
0.00121205
0.000471702
-0.00105007
0.00122411
0.000462941
-0.00113892
0.00114283
0.000428779
-0.0012087
0.00113942
0.000387821
-0.00126494
0.00110579
0.000348772
-0.00131179
0.00108882
0.000303828
-0.00133759
0.00104958
0.000242699
-0.00134022
0.00100631
0.000171136
-0.00128458
0.000949934
6.82326e-05
-0.00119668
0.000876623
-9.92854e-07
-0.00105529
0.000797641
-8.50694e-05
-0.000867098
0.000716354
-0.000159153
-0.000651968
0.000646675
-0.000203375
-0.000422301
0.000594572
-0.000232837
-0.00024565
0.000571314
-0.000212294
-0.000105852
0.000528677
-0.000183985
-1.42327e-05
0.000497732
-0.000138705
1.79669e-05
0.000432071
-7.96306e-05
0.000300615
-1.98028e-05
-1.25726e-06
0.000441968
-0.000131102
4.86156e-05
0.000526779
-0.000217093
8.42031e-05
0.000644737
-0.000228531
8.06667e-05
0.000780248
-0.000201679
4.87028e-05
0.000920594
-0.00018795
2.05108e-05
0.0010892
-0.000204615
2.33347e-05
0.00122477
-0.000231162
1.63337e-05
0.00135942
-0.000213524
9.63374e-07
0.00148012
-0.000179725
-3.64195e-05
0.00157601
-0.000137717
-8.40198e-05
0.00164361
-9.58331e-05
-0.00013347
0.00167879
-5.17145e-05
-0.000185147
0.00168339
3.55677e-06
-0.000230123
0.0016486
5.91449e-05
-0.000270216
0.00159076
0.000118332
-0.000309586
0.00149743
0.000180654
-0.000348002
0.00140444
0.000239223
-0.000387867
0.00127692
0.000291426
-0.00045072
0.00118819
0.00035402
-0.00051829
0.00105094
0.000408134
-0.000653559
0.00103296
0.000460848
-0.00078115
0.000881597
0.000458045
-0.000909231
0.000914025
0.000438166
-0.00103859
0.000861553
0.000410633
-0.00114579
0.00087878
0.000367843
-0.00123929
0.000871638
0.000327648
-0.00132156
0.000882151
0.000288935
-0.0013832
0.000875297
0.00023593
-0.00141662
0.000863964
0.000175774
-0.00139853
0.000831856
9.99875e-05
-0.0013293
0.00078293
2.44651e-05
-0.00120514
0.000722406
-4.89286e-05
-0.00101749
0.000662787
-0.000134084
-0.000795703
0.000620835
-0.000195947
-0.000555191
0.000580471
-0.000226413
-0.000330512
0.000587479
-0.000240845
-0.000157772
0.000560327
-0.000204392
-4.12543e-05
0.000538482
-0.000157268
1.24566e-05
0.000470522
-9.2158e-05
0.00033461
-2.15351e-05
1.01013e-05
0.000590042
-0.000158174
8.23501e-05
0.000714499
-0.000259966
0.000140384
0.000852639
-0.000265935
0.000156284
0.000989187
-0.000224837
0.000123908
0.00114465
-0.00019168
0.000126518
0.00129006
-0.000203464
0.000131483
0.00142295
-0.000203143
0.000117448
0.00153957
-0.000166107
9.07242e-05
0.00163205
-0.000125205
5.29775e-05
0.00169291
-7.91481e-05
6.79474e-06
0.00171776
-2.79691e-05
-4.46313e-05
0.00170519
2.50267e-05
-0.000100314
0.00165564
8.34276e-05
-0.000147848
0.00156659
0.000129536
-0.000190793
0.00145428
0.000179422
-0.000230559
0.00131312
0.000224085
-0.000267057
0.00118076
0.00026017
-0.00030585
0.00102922
0.000286491
-0.000354115
0.000922112
0.000314346
-0.00043715
0.00078716
0.000346812
-0.000545579
0.000766452
0.00037494
-0.000697419
0.00064761
0.000385826
-0.000825676
0.000674921
0.000367361
-0.000974919
0.000655392
0.000355404
-0.00109871
0.000681188
0.000321381
-0.00121354
0.000694545
0.000291921
-0.00132051
0.000720207
0.000268919
-0.00140921
0.000732329
0.000231672
-0.00146935
0.00073172
0.000192383
-0.00148343
0.000707718
0.000138222
-0.00143722
0.00067228
6.44385e-05
-0.0013269
0.000634605
-2.25224e-05
-0.0011477
0.000588202
-0.000104611
-0.000912621
0.000555627
-0.000169873
-0.000653069
0.000531985
-0.000211066
-0.000404241
0.000563686
-0.000225038
-0.0002007
0.000579672
-0.000222885
-5.73085e-05
0.000566293
-0.000171204
8.35973e-06
0.000508479
-0.000103626
0.000367996
-2.50231e-05
2.83134e-05
0.000738377
-0.000176646
0.000129877
0.000903332
-0.000290394
0.000217476
0.00105711
-0.000292065
0.000245987
0.0011919
-0.000231219
0.000229126
0.00134299
-0.000181472
0.000222909
0.00146606
-0.000169784
0.000215702
0.00158689
-0.000156728
0.00019919
0.00167205
-0.000115969
0.000170792
0.00172852
-6.8067e-05
0.000124967
0.00175094
-1.22037e-05
7.18655e-05
0.0017364
3.44645e-05
7.72913e-06
0.00167755
9.17782e-05
-5.48018e-05
0.00158247
0.000135702
-0.000110953
0.00144663
0.000176113
-0.000158334
0.00129301
0.000208652
-0.000202433
0.00112295
0.000234269
-0.000238663
0.00096914
0.000247853
-0.000277985
0.000815428
0.000253115
-0.000320816
0.000706915
0.000258027
-0.000404292
0.000595826
0.000274809
-0.000487857
0.000560545
0.000289473
-0.000644084
0.000492687
0.000311151
-0.0007701
0.000495311
0.000305626
-0.000916014
0.000493738
0.000307569
-0.00104
0.000518958
0.000286216
-0.00116468
0.000540217
0.000279011
-0.00128466
0.00057231
0.00026788
-0.00139591
0.000585807
0.000257776
-0.00147644
0.00058791
0.000224338
-0.00151368
0.000575423
0.000169532
-0.00149208
0.000556942
9.37375e-05
-0.00140553
0.00053301
1.50443e-05
-0.00124447
0.000508096
-8.09457e-05
-0.00101368
0.000487673
-0.000162842
-0.000751169
0.000469756
-0.00020028
-0.00047358
0.000499114
-0.000213018
-0.000249961
0.000558952
-0.000202899
-8.43014e-05
0.000577494
-0.000176862
-4.38773e-07
0.000531154
-0.000106541
0.000395275
-2.77168e-05
4.95467e-05
0.000869233
-0.000180402
0.000174232
0.00108369
-0.000305042
0.000289266
0.00124628
-0.000304206
0.000330416
0.00137824
-0.000227486
0.000330692
0.00150542
-0.000162704
0.000309964
0.00160964
-0.000122844
0.000294392
0.00170639
-0.000103923
0.000271273
0.00176334
-6.8166e-05
0.000229384
0.0017895
-1.90949e-05
0.000176815
0.00176952
3.39884e-05
0.000104577
0.00171395
9.46906e-05
3.00562e-05
0.00161421
0.000137861
-4.18334e-05
0.00148007
0.000174298
-0.000107941
0.00131016
0.000202577
-0.000163045
0.00112923
0.00021888
-0.000208993
0.000944807
0.000224085
-0.000245566
0.000784405
0.000221305
-0.000284781
0.000639599
0.000215042
-0.000323961
0.000534815
0.000211279
-0.000399476
0.000451062
0.00022028
-0.00047089
0.000400787
0.000231173
-0.000602402
0.00036614
0.000258059
-0.000716971
0.000344185
0.000265696
-0.000845909
0.000345904
0.000276773
-0.00096123
0.000363552
0.000270729
-0.00108714
0.000386203
0.00027993
-0.00121824
0.000413409
0.000290001
-0.00134047
0.000431062
0.000276973
-0.00144343
0.000446183
0.000244689
-0.00151201
0.000450457
0.000193555
-0.00152313
0.00043884
0.000129221
-0.0014629
0.000427805
4.49809e-05
-0.00132458
0.000413373
-4.36027e-05
-0.00109428
0.000404807
-0.000147436
-0.000811462
0.000397257
-0.000210318
-0.000523114
0.000428625
-0.000217859
-0.000277342
0.000504729
-0.000191549
-9.30527e-05
0.000571978
-0.000178772
-4.01689e-06
0.000548928
-0.000106812
0.000422083
-3.08268e-05
6.28e-05
0.000978587
-0.000172152
0.000213245
0.00124094
-0.000307696
0.000350391
0.00141373
-0.000304585
0.000409743
0.00153689
-0.000217999
0.000419599
0.00163714
-0.000141576
0.000390597
0.00172085
-8.22091e-05
0.000357626
0.00178767
-4.83115e-05
0.000313281
0.00181862
-1.09394e-05
0.000264376
0.00181443
2.39734e-05
0.000194937
0.00176261
7.63453e-05
0.000108293
0.00167079
0.000129799
1.83679e-05
0.00153415
0.000169986
-6.57687e-05
0.00136526
0.000198937
-0.000139942
0.0011704
0.000213937
-0.000198714
0.000973923
0.000214079
-0.000241621
0.000782761
0.000204953
-0.000271717
0.000622518
0.000191981
-0.000304343
0.000489008
0.000183215
-0.000347223
0.000395544
0.000182152
-0.000404714
0.0003203
0.000188254
-0.000460357
0.000256306
0.000200123
-0.000558614
0.000236688
0.000227708
-0.000645494
0.000189864
0.000241202
-0.00074719
0.000190571
0.00025703
-0.000851657
0.000198237
0.000269783
-0.000974878
0.000220875
0.000288551
-0.00110647
0.000251428
0.000293578
-0.00123885
0.000279121
0.000284321
-0.00135268
0.000303315
0.000256701
-0.00144135
0.00032469
0.000214434
-0.00147515
0.000335177
0.000137464
-0.00146073
0.000332828
8.05565e-05
-0.00136879
0.000318221
3.21892e-06
-0.00118521
0.000308293
-8.70652e-05
-0.000910508
0.000312874
-0.000190324
-0.000593956
0.000348817
-0.000236746
-0.00031342
0.00042511
-0.000200919
-0.000118812
0.000529384
-0.00015201
-1.10126e-05
0.000550767
-0.000109637
0.000443479
-3.24094e-05
7.32639e-05
0.00105558
-0.000150252
0.000248232
0.00136314
-0.000297159
0.000408845
0.00154864
-0.000295524
0.000485281
0.00166006
-0.000199612
0.000497279
0.00173788
-0.000112739
0.000466769
0.00179796
-4.65947e-05
0.000412535
0.00183663
5.27944e-06
0.000344914
0.00184487
4.137e-05
0.000267128
0.00181287
7.9346e-05
0.000185179
0.00173432
0.000110245
8.48644e-05
0.00160773
0.000163377
-2.01325e-05
0.00144425
0.000194898
-0.000118198
0.00124861
0.000214719
-0.000196354
0.00103107
0.000217482
-0.000255566
0.000828765
0.000204368
-0.000297144
0.000642695
0.000181643
-0.0003255
0.000486534
0.00016434
-0.00035184
0.000357432
0.000157916
-0.00037297
0.00025708
0.000159593
-0.000402582
0.000181836
0.000168074
-0.00043922
0.000107686
0.000185256
-0.000496167
8.34001e-05
0.000210233
-0.000557098
2.55515e-05
0.000225243
-0.000636017
2.49614e-05
0.000244528
-0.000724549
2.27422e-05
0.000264028
-0.000831493
4.93426e-05
0.000278479
-0.000952585
8.41672e-05
0.000288356
-0.00107997
0.000126485
0.000280028
-0.00121432
0.000167031
0.000270625
-0.00133465
0.000198884
0.000246136
-0.00142683
0.000211012
0.000216348
-0.00145954
0.000202328
0.000163214
-0.00140593
0.000183852
8.0756e-05
-0.00124849
0.00016737
-1.65149e-05
-0.000992979
0.000177326
-0.000119964
-0.000660204
0.000227312
-0.000211271
-0.000342586
0.000337149
-0.00022966
-0.000120625
0.000462782
-0.00015536
-1.40857e-05
0.000537408
-9.31788e-05
0.000464739
-3.53468e-05
7.86194e-05
0.00110329
-0.000126328
0.000271293
0.0014507
-0.000280235
0.000454117
0.00164851
-0.000282694
0.000544409
0.00174985
-0.000180083
0.000558878
0.0018079
-8.44857e-05
0.000526746
0.00184298
-1.28952e-05
0.000454696
0.00185247
5.62085e-05
0.000360663
0.00183298
0.000105932
0.000255734
0.00177713
0.000140672
0.000150673
0.00167795
0.000161425
3.32538e-05
0.00153178
0.000193369
-8.52537e-05
0.00134459
0.00021817
-0.000201295
0.00113772
0.000226936
-0.000310254
0.000922254
0.000217777
-0.00037741
0.000705343
0.000190577
-0.000403076
0.000508774
0.000159589
-0.000401302
0.000345909
0.000138852
-0.000391363
0.000213327
0.000134166
-0.000381539
0.000106725
0.000140528
-0.000374103
2.22307e-05
0.000152168
-0.00039169
-4.64028e-05
0.000171673
-0.000413465
-8.15587e-05
0.000186732
-0.000457858
-0.000132314
0.000202258
-0.000510472
-0.00014415
0.000221726
-0.000571915
-0.00015242
0.000236606
-0.000654347
-0.000121557
0.000253333
-0.000763885
-6.77222e-05
0.000261428
-0.000897825
-1.76231e-05
0.000278045
-0.00104211
2.76956e-05
0.000283624
-0.00118634
5.90732e-05
0.000284038
-0.00131378
7.64672e-05
0.000261983
-0.00139484
6.97566e-05
0.000213636
-0.0013978
4.56352e-05
0.000141177
-0.00129738
1.71512e-05
4.97941e-05
-0.00107311
1.28372e-05
-5.9777e-05
-0.000762042
6.62149e-05
-0.000149975
-0.000404946
0.000198324
-0.000218268
-0.000146031
0.000383017
-0.000179152
-1.39682e-05
0.000503668
-9.83262e-05
0.000486439
-3.56732e-05
8.43955e-05
0.00110752
-8.8632e-05
0.000293697
0.0014898
-0.000248405
0.00049609
0.00170161
-0.000255495
0.000599937
0.00179791
-0.000151904
0.000613033
0.00184172
-4.69189e-05
0.00056973
0.00185499
3.13029e-05
0.000480152
0.00183709
0.000104959
0.000364138
0.001791
0.000157994
0.000233895
0.00171442
0.00019296
9.96356e-05
0.00159837
0.000213849
-3.6877e-05
0.00143795
0.000230343
-0.000183061
0.00125062
0.000240152
-0.00031748
0.00103514
0.000236991
-0.000411075
0.000803288
0.000212561
-0.000461085
0.00057775
0.000177604
-0.000468929
0.000374827
0.000141792
-0.000447025
0.000206113
0.000117891
-0.00041341
6.65816e-05
0.000113128
-0.000377631
-4.96366e-05
0.000120581
-0.000344977
-0.000139726
0.000129301
-0.000338296
-0.00020301
0.000149925
-0.00033208
-0.000248518
0.000160743
-0.000350841
-0.000291755
0.0001782
-0.000377369
-0.000310877
0.000193255
-0.000424679
-0.000313971
0.000208863
-0.000485559
-0.000286313
0.000225637
-0.000569362
-0.000237878
0.000253959
-0.000686383
-0.000175166
0.000274564
-0.000833434
-0.000119147
0.000293894
-0.000995729
-8.13165e-05
0.000302684
-0.00115667
-5.68757e-05
0.00029429
-0.0012868
-6.33322e-05
0.00026321
-0.00134932
-9.39035e-05
0.000202064
-0.00130465
-0.000140651
0.000113133
-0.00112838
-0.000169648
6.21957e-06
-0.000831111
-0.000136546
-9.45104e-05
-0.000462522
1.69003e-06
-0.000171953
-0.000148879
0.000267103
-0.000197727
-2.05893e-05
0.000465177
-8.9802e-05
0.0004921
-2.62598e-05
8.42136e-05
0.00108255
-5.92358e-05
0.000304998
0.00148893
-0.000219914
0.000521691
0.00171614
-0.000231222
0.000637089
0.00181228
-0.000129769
0.000653757
0.00184198
-1.69236e-05
0.000597938
0.00182837
8.2441e-05
0.000495805
0.00179121
0.000148015
0.000360268
0.00172192
0.000204612
0.000207085
0.00163129
0.000236305
4.50343e-05
0.00150669
0.000253724
-0.000122386
0.00134299
0.000262384
-0.000277367
0.00114451
0.000261091
-0.000408996
0.000920117
0.000246657
-0.000499436
0.000684813
0.000208918
-0.000543156
0.000457864
0.000163608
-0.000540233
0.000248122
0.000123782
-0.000498731
6.69614e-05
9.76483e-05
-0.000432298
-8.85068e-05
8.86535e-05
-0.000366327
-0.000202379
8.67704e-05
-0.000306791
-0.000298029
9.87647e-05
-0.000274705
-0.000355299
0.000120201
-0.000254382
-0.00040708
0.000138239
-0.000251416
-0.000448378
0.000153657
-0.000256835
-0.000465675
0.000160218
-0.000281362
-0.000465309
0.000175866
-0.000322217
-0.000446469
0.000201012
-0.000383421
-0.000404845
0.00022817
-0.000473637
-0.000346633
0.000261682
-0.000611908
-0.000266387
0.000285512
-0.000775681
-0.000223844
0.000306299
-0.000956893
-0.000190717
0.000315052
-0.00112415
-0.000196742
0.000300665
-0.00124309
-0.000229557
0.000254597
-0.00126664
-0.000293533
0.000176428
-0.0011618
-0.000346522
7.20426e-05
-0.000906406
-0.000355559
-3.63832e-05
-0.000561652
-0.000216118
-0.000126946
-0.000200357
6.72134e-05
-0.000161402
-1.79269e-05
0.00039155
-0.000108798
0.000492711
-1.85426e-05
9.77638e-05
0.000984837
-5.61262e-08
0.000330641
0.00142147
-0.000165418
0.000560634
0.00166959
-0.000183443
0.000686095
0.0017732
-8.63795e-05
0.000695221
0.00179407
3.87887e-05
0.000625672
0.00176726
0.000130659
0.000502965
0.00171058
0.00020333
0.000346289
0.00162625
0.000252345
0.000167401
0.00152089
0.000289295
-1.40591e-05
0.00138285
0.000305309
-0.000193034
0.00121348
0.000308487
-0.000359624
0.00101824
0.000292866
-0.000499661
0.000800215
0.000259941
-0.000591377
0.000568662
0.000207869
-0.000625194
0.000340021
0.00015166
-0.000606053
0.000124318
0.000104663
-0.000538575
-7.07477e-05
7.0231e-05
-0.000450508
-0.000224633
4.8058e-05
-0.000354501
-0.000346482
4.80938e-05
-0.000270101
-0.000446007
6.35771e-05
-0.000216279
-0.000503607
9.44851e-05
-0.000174576
-0.000557433
0.000108652
-0.000151241
-0.000590811
0.000119099
-0.000136015
-0.000605994
0.000125095
-0.000139713
-0.000602827
0.000141217
-0.000171098
-0.00058212
0.000167038
-0.000228381
-0.000547742
0.000200181
-0.000307516
-0.000503715
0.000236216
-0.000404214
-0.00044405
0.000274361
-0.000554474
-0.000382634
0.00030905
-0.000739166
-0.00033267
0.000326645
-0.000929407
-0.000334688
0.000328187
-0.00109401
-0.000365309
0.000300355
-0.00118095
-0.000444404
0.000237817
-0.00114371
-0.000528143
0.000144384
-0.000928973
-0.000610968
4.06703e-05
-0.000596541
-0.000482787
-6.57646e-05
-0.000238742
-0.00016997
-0.000120616
-4.80427e-06
0.0002773
-0.000119685
0.000491605
-3.69634e-06
9.94187e-05
0.00084996
3.54563e-05
0.000330836
0.001328
-0.000137952
0.000575257
0.00159432
-0.000169144
0.000715189
0.00169624
-6.29717e-05
0.000730831
0.00170748
7.09501e-05
0.000659782
0.00166374
0.000174561
0.000524088
0.00159567
0.000250604
0.000350616
0.00150433
0.000295393
0.000151094
0.00139381
0.000326599
-5.27248e-05
0.00125446
0.000332199
-0.000258471
0.00109067
0.000328561
-0.000452511
0.000907273
0.000305007
-0.000611195
0.000696964
0.000261935
-0.000710411
0.000469383
0.000198494
-0.000738972
0.000235918
0.000132664
-0.000690718
-3.04876e-07
7.63691e-05
-0.00060231
-0.000185669
2.65131e-05
-0.000474821
-0.000343266
-8.85753e-06
-0.000346794
-0.000472058
-2.45079e-06
-0.000241264
-0.000580233
2.86967e-05
-0.000163538
-0.000638854
5.75235e-05
-9.42868e-05
-0.000690557
6.38741e-05
-4.49871e-05
-0.000718402
7.82939e-05
-9.90062e-06
-0.000729765
8.86873e-05
8.2858e-06
-0.000728332
0.00010732
2.92087e-06
-0.000711296
0.00013454
-3.80822e-05
-0.000675775
0.000169036
-0.000118484
-0.00063093
0.000207616
-0.000231224
-0.000582013
0.000250702
-0.000359291
-0.000545504
0.000290937
-0.000527475
-0.000498028
0.000333543
-0.000720014
-0.000500669
0.00035852
-0.000911276
-0.00052681
0.000352765
-0.00104652
-0.000619332
0.000310169
-0.00107307
-0.000728913
0.000227323
-0.000963133
-0.000835897
0.000114996
-0.000659256
-0.000793896
7.23347e-06
-0.000300647
-0.000461821
-6.67617e-05
-4.85525e-06
5.64332e-05
-7.49303e-05
0.000461222
2.55329e-05
0.000121367
0.000638193
9.03994e-05
0.000334881
0.00117418
-5.96966e-05
0.000579338
0.00145946
-0.000109594
0.000726518
0.00156747
-1.84056e-05
0.000740713
0.00158206
0.00011122
0.000660643
0.00153
0.000213818
0.000508196
0.00145165
0.000296467
0.000314332
0.00135228
0.000345921
9.58714e-05
0.00124226
0.000370009
-0.000121393
0.00110843
0.000363304
-0.000339118
0.000963271
0.000345119
-0.000543735
0.000792669
0.000319222
-0.000711889
0.000596358
0.00026876
-0.000816446
0.000380181
0.000193759
-0.000825087
0.000127646
0.000116914
-0.000768117
-9.40878e-05
3.68131e-05
-0.000658293
-0.000265893
-2.96011e-05
-0.000504836
-0.000437588
-5.91352e-05
-0.000346448
-0.000574727
-5.57171e-05
-0.000215265
-0.000686978
-2.44355e-05
-0.000109791
-0.000752943
8.61807e-06
-1.94743e-05
-0.000804994
2.41206e-05
6.17102e-05
-0.000838325
3.8739e-05
0.000125894
-0.000842511
4.85612e-05
0.000162078
-0.000831817
6.73009e-05
0.000166989
-0.000813004
9.67959e-05
0.000131419
-0.000776969
0.000136764
6.89662e-05
-0.000746879
0.000178404
-2.64123e-05
-0.000710708
0.000224072
-0.000158622
-0.000684624
0.000271329
-0.000315915
-0.000658518
0.000317784
-0.000502573
-0.000670051
0.000356037
-0.000714058
-0.000694342
0.000379018
-0.000899333
-0.000796203
0.000362147
-0.000996842
-0.000931729
0.000300327
-0.000942509
-0.00108651
0.000196274
-0.000721848
-0.00109974
8.51826e-05
-0.000324242
-0.00085623
-3.1963e-06
-3.40145e-05
-0.000209952
-2.38512e-05
0.000362865
6.4341e-05
0.000125594
0.000410232
0.000102368
0.000321121
0.00101859
-3.99357e-05
0.000558605
0.00130844
-8.64631e-05
0.000717668
0.00141197
-3.56725e-06
0.00075642
0.0014173
0.000126014
0.000693247
0.00135888
0.000234297
0.000547047
0.00127879
0.00031907
0.000341253
0.00118936
0.000368714
0.000106512
0.001098
0.000379004
-0.00013914
0.000989983
0.000364094
-0.000376099
0.000871268
0.000328962
-0.000608502
0.000721577
0.000303494
-0.000808162
0.000546985
0.000249031
-0.000926659
0.000334946
0.000163733
-0.000954252
8.94059e-05
6.58333e-05
-0.000883242
-0.000136121
-2.89781e-05
-0.000740294
-0.000306647
-0.000102194
-0.000558486
-0.000488126
-0.00013127
-0.000369084
-0.000633024
-0.000131103
-0.000196783
-0.000751908
-0.00010737
-6.37201e-05
-0.000833094
-5.29109e-05
4.23061e-05
-0.00089137
-1.96496e-05
0.000134836
-0.000924555
-6.29811e-06
0.000217169
-0.000930391
5.54717e-06
0.000279694
-0.000919286
2.49444e-05
0.000316346
-0.000902214
5.25581e-05
0.000317058
-0.000871711
9.40296e-05
0.000272728
-0.000845779
0.00014323
0.000180299
-0.000812131
0.000193852
5.424e-05
-0.00079953
0.000240963
-0.000106315
-0.000788272
0.000290309
-0.000292282
-0.000831759
0.000347674
-0.000513192
-0.000870574
0.000397145
-0.000735357
-0.00099689
0.000422851
-0.000902371
-0.0011602
0.000395491
-0.00093052
-0.00136598
0.000307625
-0.000788014
-0.00143708
0.000194835
-0.000433546
-0.0012919
8.12119e-05
-5.48773e-05
-0.000634385
4.57656e-05
0.000203086
0.000104903
8.66238e-05
0.000237844
8.5765e-05
0.000284229
0.000864196
-4.32083e-05
0.000529504
0.00115474
-9.15781e-05
0.000705604