/*--------------------------------*- C++ -*----------------------------------*\
| =========                 |                                                 |
| \\      /  F ield         | OpenFOAM: The Open Source CFD Toolbox           |
|  \\    /   O peration     | Version:  v1806                                 |
|   \\  /    A nd           | Web:      www.OpenFOAM.com                      |
|    \\/     M anipulation  |                                                 |
\*---------------------------------------------------------------------------*/
FoamFile
{
    version     2.0;
    format      ascii;
    class       volVectorField;
    location    "0.135";
    object      U;
}
// * * * * * * * * * * * * * * * * * * * * * * * * * * * * * * * * * * * * * //

dimensions      [0 1 -1 0 0 0 0];


internalField   nonuniform List<vector> 
64000
(
(-0.0157303 -0.00638079 -0.0114272)
(0.00497804 -0.0051834 -0.010625)
(0.00392526 0.0037554 -0.00107178)
(0.00284691 0.00448603 0.000357845)
(-8.04151e-05 0.00402289 0.000299422)
(-0.00251991 0.00269367 9.00203e-05)
(-0.00529607 0.00107563 -0.000579628)
(-0.0100431 0.000254943 -6.42832e-06)
(-0.0157947 -0.000764692 0.0008779)
(-0.0265999 -0.00149477 0.00171425)
(-0.0351183 -0.00461404 0.00205771)
(-0.0480029 -0.00758869 0.00312844)
(-0.0602213 -0.0118053 0.00255472)
(-0.0798479 -0.0168238 0.00170409)
(-0.0967996 -0.0182267 0.00153762)
(-0.127271 -0.0174045 0.000784658)
(-0.140275 -0.00517339 -0.00113941)
(-0.172675 -0.010839 -0.00550243)
(-0.157628 -0.0159931 0.00358216)
(-0.20588 -0.0343176 -0.0189198)
(-0.145209 -0.0191349 -0.0126669)
(-0.069004 -0.021846 -0.0323926)
(-0.103112 -0.00351309 -0.0162247)
(-0.0985599 -0.00375698 -0.0341012)
(-0.123461 0.00308366 -0.0441424)
(-0.11116 0.0109436 -0.0551459)
(-0.0991146 0.0222083 -0.0593641)
(-0.0587772 0.0339595 -0.056437)
(-0.027701 0.0411708 -0.0528334)
(0.0223922 0.0579501 -0.0337938)
(0.0748958 0.0448257 -0.0361564)
(0.114306 0.0390029 -0.0251905)
(0.129117 0.0282574 -0.0122662)
(0.128058 0.0137527 -0.00535512)
(0.111204 0.00557346 0.00319357)
(0.0881766 -0.00229078 0.00439481)
(0.0663638 -0.00558106 0.00819473)
(0.0430799 -0.00508645 0.00826347)
(0.0239238 -0.00308905 0.00742278)
(0.00508664 -0.00175756 0.00532172)
(-0.0120834 0.0273918 -0.00785797)
(-0.00420786 0.0070077 -0.00846619)
(0.00222802 0.0112498 -0.0041998)
(0.00648609 0.0127195 -0.00256745)
(0.00830342 0.0149146 -0.00299115)
(0.00705627 0.0151614 -0.00322839)
(0.00420004 0.01765 -0.00482963)
(-0.00384305 0.0196319 -0.00609209)
(-0.0160772 0.0220537 -0.00725441)
(-0.0401307 0.0226523 -0.00776635)
(-0.0658659 0.0278569 -0.00776628)
(-0.100707 0.0336415 -0.00199096)
(-0.141215 0.0449846 -0.00701863)
(-0.18965 0.0554941 -0.0092124)
(-0.235794 0.0661969 -0.0145928)
(-0.290634 0.072698 -0.0228437)
(-0.353127 0.0784865 -0.0476122)
(-0.440186 0.0771807 -0.0626492)
(-0.471423 0.0826611 -0.0796368)
(-0.536557 0.0840797 -0.0920056)
(-0.446437 0.119313 -0.0822862)
(-0.347136 0.141804 -0.120868)
(-0.367793 0.188867 -0.122793)
(-0.35053 0.206709 -0.138784)
(-0.347813 0.23052 -0.151052)
(-0.302375 0.251232 -0.159627)
(-0.254956 0.273069 -0.16191)
(-0.180626 0.289409 -0.151956)
(-0.107108 0.297517 -0.131634)
(-0.0396691 0.30554 -0.109385)
(0.0293799 0.28859 -0.0668172)
(0.105263 0.253149 -0.0483315)
(0.136462 0.203279 -0.0368044)
(0.151721 0.153889 -0.0256689)
(0.144142 0.106053 -0.0101118)
(0.120517 0.0667701 -0.00295593)
(0.0975923 0.0403492 0.00159648)
(0.069042 0.0262328 0.00253493)
(0.0413529 0.0176027 0.00321019)
(0.0106649 0.0106311 0.00398955)
(-0.00362722 0.0379684 0.000169962)
(0.00103968 0.0176367 -0.00414487)
(0.00632621 0.0197306 -0.00407138)
(0.0115646 0.0264441 -0.00549021)
(0.0111881 0.0350419 -0.00647237)
(0.0078155 0.0438017 -0.00703152)
(0.000495579 0.0564096 -0.00980048)
(-0.0169926 0.0688749 -0.00882596)
(-0.0430818 0.0830937 -0.00383536)
(-0.0780916 0.0999022 -0.00730381)
(-0.115191 0.125675 -0.0104435)
(-0.163879 0.148511 -0.0150755)
(-0.21957 0.176869 -0.023714)
(-0.296134 0.201575 -0.033667)
(-0.373 0.217915 -0.0390823)
(-0.462203 0.225975 -0.0470558)
(-0.530211 0.231712 -0.0653078)
(-0.603496 0.246998 -0.0848326)
(-0.628659 0.279176 -0.102692)
(-0.679761 0.316371 -0.112435)
(-0.568195 0.351512 -0.0932853)
(-0.442166 0.399275 -0.12237)
(-0.445189 0.451781 -0.114306)
(-0.415575 0.479946 -0.118322)
(-0.404529 0.510441 -0.123421)
(-0.353378 0.529461 -0.124139)
(-0.305573 0.543278 -0.119905)
(-0.235244 0.544449 -0.105294)
(-0.172532 0.535832 -0.082847)
(-0.1052 0.513647 -0.0592971)
(-0.0525991 0.491239 -0.0385873)
(-0.0057467 0.436244 -0.0253027)
(0.0330978 0.365798 -0.0102347)
(0.0620458 0.293181 -0.00858982)
(0.0701977 0.220118 -0.00837297)
(0.0709042 0.157772 -0.00890223)
(0.0684047 0.111608 -0.00408702)
(0.0546067 0.0793592 -0.00193735)
(0.0379506 0.0544393 0.00106276)
(0.011816 0.0309228 0.00386543)
(-0.00279984 0.0491372 0.000191293)
(0.00153447 0.0318011 -0.00355502)
(0.00802346 0.0387656 -0.0070664)
(0.0109068 0.0542391 -0.00852308)
(0.00801189 0.0739932 -0.00919522)
(0.00108956 0.0965994 -0.00947095)
(-0.012785 0.125037 -0.00813332)
(-0.0400332 0.154994 -0.00927885)
(-0.0748341 0.186731 -0.0120527)
(-0.118371 0.222339 -0.0159877)
(-0.171516 0.258953 -0.0230629)
(-0.237808 0.293071 -0.0267941)
(-0.309116 0.315732 -0.030563)
(-0.393778 0.329335 -0.0316582)
(-0.467927 0.34421 -0.0351137)
(-0.538402 0.360892 -0.04183)
(-0.59117 0.388323 -0.0590782)
(-0.650894 0.414378 -0.0698806)
(-0.663014 0.460806 -0.0807072)
(-0.704347 0.507255 -0.0753239)
(-0.573045 0.532532 -0.031563)
(-0.425444 0.57331 -0.044534)
(-0.420591 0.606846 -0.0288698)
(-0.389542 0.611381 -0.0258472)
(-0.379944 0.623602 -0.0251118)
(-0.337718 0.620618 -0.0221538)
(-0.301145 0.611954 -0.0186697)
(-0.247334 0.589479 -0.0112255)
(-0.201051 0.562049 0.000227167)
(-0.152956 0.526771 0.007242)
(-0.122532 0.48572 0.0120831)
(-0.0915967 0.442765 0.0105069)
(-0.0669678 0.387784 0.00465002)
(-0.0370992 0.324474 -0.00256222)
(-0.0139161 0.259366 -0.00569438)
(0.00596864 0.199716 -0.0047902)
(0.0253016 0.148632 -0.00696871)
(0.0296423 0.116052 -0.00513468)
(0.0285945 0.0808102 -0.000995123)
(0.0107043 0.0448437 0.00294053)
(-0.00361847 0.0661174 -0.00353368)
(0.00190195 0.0572368 -0.00974629)
(0.0131773 0.0722511 -0.0122421)
(0.0172813 0.0998368 -0.0122739)
(0.0115642 0.132674 -0.0130806)
(0.00147109 0.173211 -0.0138245)
(-0.0180892 0.218668 -0.012831)
(-0.0554089 0.26764 -0.0102887)
(-0.100013 0.3158 -0.0109351)
(-0.151873 0.359988 -0.0136748)
(-0.209214 0.393104 -0.017096)
(-0.282272 0.414398 -0.01955)
(-0.357313 0.429179 -0.0208551)
(-0.428771 0.443836 -0.0232971)
(-0.485223 0.466207 -0.0246778)
(-0.544638 0.491381 -0.0283228)
(-0.584282 0.518912 -0.0336288)
(-0.624833 0.547042 -0.0323119)
(-0.615509 0.600847 -0.0269479)
(-0.643365 0.646102 -0.0261629)
(-0.507439 0.666498 0.0218819)
(-0.351662 0.682603 0.0203709)
(-0.347784 0.68434 0.0393113)
(-0.325757 0.652093 0.0397354)
(-0.330211 0.636983 0.0392073)
(-0.306914 0.608266 0.0423746)
(-0.29041 0.57775 0.0452391)
(-0.254907 0.538186 0.0501029)
(-0.228963 0.497493 0.0427057)
(-0.199531 0.455358 0.0332039)
(-0.178137 0.410325 0.0224133)
(-0.161387 0.375843 0.0134548)
(-0.1504 0.339911 0.00752149)
(-0.126676 0.309454 -0.00340333)
(-0.100105 0.270035 -0.0103048)
(-0.0673676 0.208848 -0.0119972)
(-0.0233417 0.16237 -0.0106801)
(0.00112558 0.135106 -0.010061)
(0.0135095 0.100313 -0.00223672)
(0.00931223 0.0532741 0.00280503)
(-0.00374292 0.0805401 -0.00688491)
(0.00468669 0.0877307 -0.0141803)
(0.0211796 0.120056 -0.0149634)
(0.0251328 0.165387 -0.0154428)
(0.0198705 0.214183 -0.019506)
(0.00846909 0.272434 -0.0163178)
(-0.0144855 0.332823 -0.0120922)
(-0.0553087 0.389979 -0.00681782)
(-0.107732 0.433639 -0.00679505)
(-0.171576 0.462426 -0.010305)
(-0.244372 0.481558 -0.0129795)
(-0.314152 0.495257 -0.0133152)
(-0.370758 0.513263 -0.0120012)
(-0.424336 0.533426 -0.00949562)
(-0.462197 0.553834 -0.00457949)
(-0.502671 0.572859 -0.00189018)
(-0.520355 0.597784 -0.000568069)
(-0.53647 0.624137 0.00131633)
(-0.518843 0.679145 0.00188218)
(-0.530517 0.709482 0.0121586)
(-0.397825 0.710768 0.0570991)
(-0.263637 0.680471 0.0593104)
(-0.278484 0.64979 0.0798308)
(-0.27578 0.585125 0.0834865)
(-0.292657 0.550339 0.0833513)
(-0.288278 0.507137 0.0803732)
(-0.286686 0.470065 0.0766927)
(-0.271203 0.428481 0.0675671)
(-0.257423 0.385036 0.0607354)
(-0.242689 0.345981 0.0414704)
(-0.232359 0.305172 0.0280269)
(-0.214093 0.272439 0.0149392)
(-0.197837 0.248668 0.00164248)
(-0.175564 0.237306 -0.00524588)
(-0.171336 0.223241 -0.0166019)
(-0.139115 0.187435 -0.0135991)
(-0.0633832 0.154262 -0.0114026)
(-0.0176189 0.134244 -0.0107664)
(0.00526441 0.106004 -0.00429177)
(0.00600423 0.0548054 0.00416621)
(0.00131886 0.0847086 -0.006131)
(0.0216642 0.105457 -0.0155159)
(0.04744 0.150073 -0.0195073)
(0.0522125 0.211192 -0.0215333)
(0.0453124 0.276411 -0.0261371)
(0.032633 0.34623 -0.0209329)
(0.000992486 0.408705 -0.0118802)
(-0.0587796 0.442455 -0.00349039)
(-0.130285 0.473682 -0.00695467)
(-0.194997 0.495433 -0.00879595)
(-0.248457 0.519448 -0.00891934)
(-0.298783 0.546259 -0.00695183)
(-0.34112 0.572531 -0.0032536)
(-0.380831 0.593563 0.00114098)
(-0.408131 0.613988 0.00616915)
(-0.431187 0.626742 0.0103508)
(-0.430865 0.645123 0.0187055)
(-0.429475 0.650463 0.0220223)
(-0.399597 0.669821 0.0200394)
(-0.41404 0.679782 0.0203151)
(-0.326807 0.660387 0.0562281)
(-0.21169 0.568049 0.06219)
(-0.228059 0.529894 0.0783259)
(-0.238324 0.461127 0.0829)
(-0.266169 0.430754 0.0817155)
(-0.278271 0.393651 0.079801)
(-0.292013 0.367317 0.075112)
(-0.294231 0.336117 0.0644704)
(-0.294476 0.305348 0.0476768)
(-0.291663 0.272257 0.0298347)
(-0.287725 0.242058 0.0128846)
(-0.273564 0.216818 -0.000238123)
(-0.254386 0.197247 -0.00858806)
(-0.225704 0.186459 -0.0126634)
(-0.212776 0.186697 -0.0174389)
(-0.179951 0.183445 -0.0191856)
(-0.0959861 0.161062 -0.0169539)
(-0.0298415 0.141372 -0.0148012)
(0.00183828 0.114078 -0.00773032)
(0.00672877 0.0601427 0.00301658)
(0.00323444 0.0943528 -0.00735045)
(0.0316427 0.124077 -0.017986)
(0.0708505 0.170212 -0.0194981)
(0.0834369 0.232837 -0.0157328)
(0.078028 0.294602 -0.0210551)
(0.0541365 0.369732 -0.0115421)
(-0.00395874 0.403123 -0.000870473)
(-0.0676781 0.436834 -0.00101541)
(-0.119783 0.475006 -0.00288508)
(-0.17179 0.510503 -0.0025877)
(-0.21805 0.543925 -0.00184371)
(-0.260259 0.5691 0.00187009)
(-0.292974 0.588594 0.00787022)
(-0.319585 0.601823 0.0138839)
(-0.334275 0.611876 0.0181449)
(-0.348069 0.610836 0.0237459)
(-0.344588 0.608968 0.0276398)
(-0.342034 0.588034 0.027698)
(-0.317108 0.572466 0.0228462)
(-0.32857 0.541742 0.0117607)
(-0.290352 0.530002 0.0339265)
(-0.194999 0.409296 0.0432664)
(-0.198262 0.388054 0.0534956)
(-0.219856 0.335488 0.0631029)
(-0.252659 0.319516 0.0645601)
(-0.278693 0.295134 0.0667142)
(-0.301152 0.280678 0.0652503)
(-0.316073 0.259919 0.0537516)
(-0.329277 0.239632 0.0384505)
(-0.335844 0.213907 0.0147763)
(-0.333881 0.189807 0.00490322)
(-0.31814 0.170482 -0.00759861)
(-0.299206 0.15895 -0.0157193)
(-0.264071 0.154601 -0.0187371)
(-0.247242 0.15918 -0.0219621)
(-0.21658 0.182093 -0.0202266)
(-0.129744 0.164316 -0.01869)
(-0.0461659 0.148197 -0.0135256)
(-0.000490091 0.120307 -0.0082232)
(0.0063226 0.0633363 0.00391765)
(0.00382622 0.114197 -0.00886163)
(0.0386659 0.156037 -0.0214306)
(0.0907734 0.210139 -0.0210874)
(0.108314 0.26777 -0.0149283)
(0.110943 0.327832 -0.0165225)
(0.0688788 0.386693 -0.00944148)
(0.00731687 0.411733 0.00269176)
(-0.036875 0.453934 0.00201519)
(-0.0921534 0.496162 0.00299844)
(-0.138238 0.530006 0.00496894)
(-0.178768 0.552282 0.00796069)
(-0.214233 0.565044 0.0117828)
(-0.237101 0.572101 0.0199912)
(-0.256495 0.568177 0.0233749)
(-0.269765 0.55572 0.025849)
(-0.280228 0.529954 0.0269504)
(-0.28049 0.503909 0.0265839)
(-0.28352 0.461978 0.0222532)
(-0.274472 0.430517 0.0155346)
(-0.279933 0.380127 -0.000209876)
(-0.286475 0.375206 0.00479687)
(-0.210738 0.278346 0.0233006)
(-0.181589 0.269447 0.0276307)
(-0.212967 0.2412 0.041528)
(-0.24586 0.237368 0.0465714)
(-0.281378 0.224535 0.0547179)
(-0.310269 0.217406 0.055919)
(-0.336394 0.204337 0.0461693)
(-0.358767 0.188513 0.0291177)
(-0.370705 0.167355 0.0116247)
(-0.370102 0.150118 0.00138127)
(-0.356372 0.134758 0.000758037)
(-0.336563 0.123667 -0.00753088)
(-0.303225 0.127321 -0.0175929)
(-0.264406 0.133876 -0.0269454)
(-0.236401 0.168242 -0.0272598)
(-0.16104 0.170044 -0.0212536)
(-0.0577376 0.158241 -0.0193306)
(-0.00294624 0.127799 -0.0104884)
(0.00778212 0.0696055 0.00228478)
(0.00204795 0.137346 -0.00975841)
(0.0462906 0.196303 -0.0231363)
(0.110726 0.258632 -0.0237022)
(0.137394 0.312166 -0.0154727)
(0.135587 0.3733 -0.0162778)
(0.0855911 0.403916 -0.007642)
(0.0248546 0.444151 0.00348901)
(-0.0103185 0.471904 0.00924852)
(-0.0543817 0.505465 0.010048)
(-0.10049 0.529988 0.016584)
(-0.13958 0.543099 0.0169104)
(-0.17017 0.544119 0.0256782)
(-0.192199 0.532604 0.0307709)
(-0.211995 0.504201 0.0340391)
(-0.22637 0.468956 0.0330077)
(-0.239853 0.422782 0.0302099)
(-0.247632 0.378227 0.0250292)
(-0.253788 0.326305 0.0182655)
(-0.254613 0.290281 0.00950293)
(-0.259559 0.243468 -0.00452347)
(-0.282571 0.234008 -0.00882331)
(-0.218353 0.192149 0.00870423)
(-0.170443 0.187424 0.0116653)
(-0.204138 0.17655 0.0267178)
(-0.234311 0.17579 0.0358523)
(-0.276464 0.169146 0.0478375)
(-0.308086 0.165265 0.0515113)
(-0.341727 0.155345 0.0420822)
(-0.369089 0.142751 0.0296045)
(-0.382273 0.125529 0.0246931)
(-0.388792 0.105521 0.0209005)
(-0.381619 0.0890617 0.0180295)
(-0.361993 0.0758786 0.0141193)
(-0.328252 0.0800525 0.00481858)
(-0.2897 0.0933757 -0.00832304)
(-0.254508 0.131852 -0.0258282)
(-0.181273 0.161523 -0.0221093)
(-0.0795297 0.157874 -0.0161625)
(-0.00741475 0.13447 -0.00962133)
(0.00928686 0.0746446 0.00312435)
(0.00178636 0.163662 -0.00989848)
(0.0549438 0.24625 -0.0273304)
(0.130745 0.310034 -0.0264675)
(0.165149 0.362071 -0.0167509)
(0.15525 0.408407 -0.0144292)
(0.105345 0.430871 -0.00892777)
(0.0550916 0.468832 0.00489656)
(0.0185128 0.49295 0.0169512)
(-0.0182707 0.51027 0.0204613)
(-0.0634573 0.524952 0.0206163)
(-0.10321 0.52534 0.0293546)
(-0.134517 0.51242 0.0360282)
(-0.16105 0.484515 0.0392962)
(-0.184035 0.44019 0.0399157)
(-0.203271 0.388021 0.0371081)
(-0.22037 0.331411 0.0305767)
(-0.233699 0.280415 0.022215)
(-0.24249 0.231239 0.0134609)
(-0.249604 0.195564 0.00392612)
(-0.255758 0.159145 -0.0080579)
(-0.273176 0.147266 -0.0128488)
(-0.208485 0.139576 0.000423466)
(-0.158006 0.135436 0.00368393)
(-0.189464 0.129052 0.0183518)
(-0.216417 0.126395 0.0307596)
(-0.258862 0.121117 0.0430121)
(-0.293856 0.118551 0.0463902)
(-0.328875 0.109455 0.0407457)
(-0.359213 0.097254 0.0454758)
(-0.386216 0.0772871 0.0444886)
(-0.400331 0.0580361 0.0440807)
(-0.401833 0.0421746 0.0355751)
(-0.385523 0.034955 0.0300518)
(-0.352865 0.0367455 0.02059)
(-0.30024 0.0517059 0.00524215)
(-0.259441 0.0878255 -0.0132039)
(-0.195188 0.135498 -0.0238952)
(-0.0885841 0.152931 -0.0172867)
(-0.00796776 0.134314 -0.00973274)
(0.00986399 0.0778738 0.00256018)
(0.00330922 0.188533 -0.00991655)
(0.062005 0.292245 -0.0299877)
(0.147527 0.358799 -0.0291158)
(0.185321 0.404913 -0.0159541)
(0.171467 0.434213 -0.00904618)
(0.127439 0.458434 -0.00532531)
(0.0836535 0.484678 0.00707404)
(0.0450779 0.503163 0.0170167)
(0.0101983 0.508534 0.0282512)
(-0.0298841 0.5062 0.0333612)
(-0.072058 0.500432 0.0358497)
(-0.110239 0.47355 0.040451)
(-0.142855 0.432841 0.0428917)
(-0.170992 0.37818 0.0412644)
(-0.194383 0.320592 0.03554)
(-0.213891 0.260838 0.027361)
(-0.228926 0.209558 0.0170606)
(-0.238118 0.164356 0.00779225)
(-0.247117 0.131786 -0.000544898)
(-0.251359 0.107177 -0.009347)
(-0.255871 0.0958764 -0.0125894)
(-0.187757 0.10429 -0.00293791)
(-0.140409 0.0928842 -0.000686261)
(-0.164286 0.0845393 0.0132443)
(-0.185946 0.0754807 0.0249927)
(-0.226892 0.0698374 0.0363604)
(-0.259172 0.0661294 0.0407095)
(-0.297816 0.0589765 0.0532441)
(-0.335427 0.0478218 0.0582322)
(-0.362752 0.032522 0.0680356)
(-0.382406 0.0111092 0.0654972)
(-0.392751 -0.0107331 0.0536381)
(-0.393685 -0.0258493 0.0315211)
(-0.373812 -0.0229314 0.0214039)
(-0.334125 -0.00574257 0.0213234)
(-0.28088 0.0367745 0.0142259)
(-0.204002 0.0973544 -0.0173115)
(-0.105705 0.140008 -0.0194862)
(-0.0142054 0.135308 -0.00924605)
(0.0131753 0.0830823 0.00187979)
(0.00375617 0.212196 -0.00736969)
(0.0682813 0.335735 -0.0299861)
(0.160516 0.404939 -0.0289562)
(0.199228 0.439153 -0.0125774)
(0.189622 0.458625 -0.00270818)
(0.151149 0.479994 0.00110622)
(0.109794 0.49612 0.0112355)
(0.0702507 0.505395 0.0208676)
(0.0324845 0.505873 0.0300059)
(-0.00263743 0.492138 0.0428748)
(-0.0460522 0.472955 0.0447967)
(-0.0927737 0.437511 0.0425066)
(-0.131917 0.387609 0.0411503)
(-0.165841 0.328545 0.0371073)
(-0.193008 0.265911 0.0299617)
(-0.214871 0.206152 0.0204388)
(-0.231398 0.155936 0.0107129)
(-0.238687 0.114032 0.00328175)
(-0.241775 0.0847597 -0.00258284)
(-0.240782 0.0663531 -0.00942306)
(-0.226833 0.0555194 -0.00908585)
(-0.156928 0.0744647 -0.00365913)
(-0.118815 0.0487747 -0.00177153)
(-0.134376 0.0381932 0.00939023)
(-0.149942 0.0270925 0.0199713)
(-0.182477 0.0227668 0.0294892)
(-0.211591 0.0187797 0.0474487)
(-0.247473 0.00949501 0.0562834)
(-0.284406 -0.00416008 0.067825)
(-0.329954 -0.0238759 0.0620116)
(-0.372198 -0.0514991 0.0548222)
(-0.403002 -0.0792548 0.0459785)
(-0.406367 -0.104512 0.0326968)
(-0.389907 -0.113374 0.010305)
(-0.343236 -0.0938466 -0.00242935)
(-0.290741 -0.0434292 0.000791199)
(-0.217228 0.0425872 0.00989215)
(-0.109341 0.102962 -0.0216636)
(-0.0152079 0.122152 -0.00697425)
(0.0129481 0.079991 0.00274782)
(0.00435975 0.225982 -0.00457143)
(0.0703416 0.36748 -0.029449)
(0.163302 0.437605 -0.0288835)
(0.205366 0.462953 -0.0106116)
(0.205117 0.476324 0.00403605)
(0.172819 0.490805 0.0118031)
(0.130081 0.499106 0.01755)
(0.0920382 0.501817 0.0252171)
(0.0532358 0.496955 0.0364277)
(0.0146341 0.476985 0.0457087)
(-0.0289064 0.444068 0.0487107)
(-0.0821137 0.400462 0.0427874)
(-0.128727 0.342141 0.0345088)
(-0.16905 0.276023 0.0272694)
(-0.201861 0.214348 0.0220131)
(-0.222171 0.159668 0.0148318)
(-0.234641 0.1143 0.00656782)
(-0.236486 0.076234 0.000880682)
(-0.231876 0.0477704 -0.00341028)
(-0.222545 0.0298269 -0.00729809)
(-0.184215 0.0154915 -0.00392378)
(-0.121725 0.0203974 -0.00541457)
(-0.0970591 -0.00786162 -0.00252627)
(-0.0924889 -0.0202519 0.00365843)
(-0.0995592 -0.0334231 0.00819153)
(-0.125391 -0.036268 0.0264673)
(-0.153468 -0.0454409 0.0386265)
(-0.193699 -0.0572971 0.050428)
(-0.239532 -0.0743152 0.051763)
(-0.288896 -0.0973005 0.0514555)
(-0.3399 -0.119567 0.0472908)
(-0.38002 -0.144932 0.0364813)
(-0.403178 -0.167597 0.0214992)
(-0.39583 -0.183273 0.00992814)
(-0.361291 -0.174821 -0.0100701)
(-0.296686 -0.132484 -0.0102101)
(-0.226698 -0.0377467 -0.00709588)
(-0.132604 0.0699312 -0.00620663)
(-0.0196753 0.109663 -0.0174876)
(0.0160516 0.0843327 0.00295019)
(0.00521683 0.234514 0.000667216)
(0.0709525 0.38989 -0.0263064)
(0.162217 0.462436 -0.0279003)
(0.210038 0.484278 -0.00825118)
(0.220771 0.49012 0.010925)
(0.192063 0.494957 0.0234743)
(0.150904 0.499688 0.0301562)
(0.112425 0.500135 0.0340946)
(0.0692151 0.488577 0.0376867)
(0.0262444 0.463022 0.0459664)
(-0.0218329 0.420172 0.0499565)
(-0.0804792 0.36264 0.0367378)
(-0.13695 0.296439 0.027723)
(-0.177287 0.230093 0.0208424)
(-0.20414 0.174095 0.0163089)
(-0.223422 0.127041 0.0105715)
(-0.234425 0.0859094 0.00311641)
(-0.233314 0.0487228 -0.00100192)
(-0.220239 0.0152725 -0.00236997)
(-0.203314 -0.0122463 -0.00349869)
(-0.157335 -0.031121 0.00192442)
(-0.0935123 -0.04994 -0.000679531)
(-0.0656215 -0.0737843 -0.00255639)
(-0.0550305 -0.091394 4.21442e-05)
(-0.0532233 -0.112347 0.00862943)
(-0.0723318 -0.120594 0.0162161)
(-0.0997103 -0.125376 0.0284643)
(-0.13357 -0.133467 0.0369958)
(-0.175912 -0.144586 0.0424944)
(-0.229821 -0.158161 0.0437636)
(-0.286639 -0.177536 0.0401046)
(-0.340965 -0.203485 0.0323636)
(-0.378849 -0.231899 0.0203905)
(-0.392186 -0.25403 0.00364601)
(-0.365588 -0.25953 -0.0116222)
(-0.307247 -0.221144 -0.022136)
(-0.221661 -0.141958 -0.0162387)
(-0.128879 0.00332093 0.00357307)
(-0.0304846 0.0783335 -0.00957969)
(0.0152835 0.0783225 0.0010055)
(0.00370225 0.226574 0.00256719)
(0.0654971 0.392669 -0.0253376)
(0.155371 0.470903 -0.0273653)
(0.20802 0.494375 -0.00780552)
(0.228295 0.496557 0.01474)
(0.21172 0.496162 0.0292754)
(0.17528 0.499326 0.0382909)
(0.131431 0.491967 0.0420195)
(0.081271 0.473768 0.0418535)
(0.0298203 0.438128 0.0397148)
(-0.0290851 0.382437 0.0409391)
(-0.0943611 0.316288 0.0310154)
(-0.146727 0.251637 0.0230282)
(-0.182037 0.190666 0.0162176)
(-0.205706 0.135999 0.00958584)
(-0.223323 0.090388 0.00435122)
(-0.234359 0.0550582 -0.000286731)
(-0.232148 0.0169822 -0.00114804)
(-0.218002 -0.0257046 0.00201355)
(-0.188855 -0.064779 0.00413971)
(-0.134099 -0.0897512 0.00228062)
(-0.0721689 -0.114509 -0.00950454)
(-0.0397465 -0.141122 -0.00815085)
(-0.0256371 -0.16504 -0.0038634)
(-0.0167361 -0.182733 0.00212564)
(-0.017078 -0.192995 0.00942812)
(-0.0338237 -0.19331 0.0142901)
(-0.0681173 -0.194903 0.0235737)
(-0.108858 -0.196739 0.0316478)
(-0.158779 -0.210624 0.0360269)
(-0.218775 -0.225849 0.0365347)
(-0.280823 -0.251079 0.0326951)
(-0.333312 -0.282455 0.0220761)
(-0.365276 -0.316537 0.00727296)
(-0.359952 -0.332941 -0.0117407)
(-0.318044 -0.317453 -0.0254423)
(-0.232513 -0.235852 -0.0305831)
(-0.144575 -0.0953506 -0.014563)
(-0.0375347 0.0503325 -0.0107773)
(0.018746 0.069806 -0.00110403)
(0.00567811 0.205655 0.00980658)
(0.0653463 0.380867 -0.0172489)
(0.152488 0.465654 -0.0206508)
(0.211881 0.487943 0.000202028)
(0.243952 0.487798 0.0219347)
(0.236883 0.485629 0.0337867)
(0.199283 0.48228 0.0433856)
(0.148128 0.470943 0.0460362)
(0.0867287 0.450193 0.044879)
(0.0202762 0.412224 0.0394942)
(-0.0446789 0.353309 0.0359769)
(-0.103196 0.29066 0.0281826)
(-0.152615 0.230355 0.020132)
(-0.188558 0.167904 0.0124498)
(-0.209644 0.108857 0.00405289)
(-0.218684 0.0587823 -0.00145962)
(-0.22838 0.0174799 -0.00410432)
(-0.236093 -0.0229957 0.00251845)
(-0.22131 -0.0748228 0.0068009)
(-0.18218 -0.119111 -0.00108441)
(-0.118506 -0.145401 -0.00791974)
(-0.0535472 -0.175428 -0.010721)
(-0.0210802 -0.206296 -0.00883528)
(0.00167078 -0.230961 -0.00572959)
(0.0221196 -0.245458 -0.00243569)
(0.0287684 -0.252187 0.00139603)
(0.0205958 -0.254292 0.00604099)
(-0.00179225 -0.250087 0.012884)
(-0.0414259 -0.243863 0.0188556)
(-0.0908808 -0.248627 0.0283551)
(-0.145925 -0.261333 0.0322755)
(-0.211633 -0.289469 0.0312712)
(-0.273946 -0.325265 0.0248684)
(-0.321592 -0.367521 0.0118198)
(-0.336019 -0.397832 -0.00534846)
(-0.308566 -0.398217 -0.0216458)
(-0.23434 -0.335783 -0.0320166)
(-0.132698 -0.198064 -0.0270118)
(-0.0362158 -0.00746347 0.00263554)
(0.00330229 0.0578332 0.00425307)
(0.000362956 0.189684 0.00683543)
(0.0522904 0.368798 -0.0172605)
(0.13751 0.460415 -0.0225498)
(0.206462 0.489248 0.00194711)
(0.256852 0.48831 0.0164093)
(0.263096 0.479915 0.0335515)
(0.229481 0.470082 0.0409426)
(0.172975 0.456083 0.0419498)
(0.101884 0.432618 0.0390707)
(0.021508 0.389182 0.0324605)
(-0.0528168 0.330833 0.0335057)
(-0.113453 0.270968 0.0211861)
(-0.165139 0.208486 0.0122413)
(-0.204122 0.146689 0.00417238)
(-0.222931 0.0894784 -0.00351739)
(-0.22978 0.0336157 -0.00885896)
(-0.234953 -0.0229841 -0.00656379)
(-0.243416 -0.068724 0.00129038)
(-0.231589 -0.119081 -0.00587724)
(-0.175146 -0.163582 -0.013176)
(-0.104885 -0.183942 -0.0107212)
(-0.0465146 -0.219658 -0.0110695)
(-0.00830853 -0.252245 -0.00960967)
(0.0238224 -0.275712 -0.00729389)
(0.0543137 -0.292069 -0.00536145)
(0.0727919 -0.300214 -0.00305059)
(0.0766916 -0.301813 -0.000808002)
(0.063539 -0.299302 0.00256526)
(0.0316634 -0.293151 0.00681525)
(-0.0160332 -0.288348 0.0141767)
(-0.0755895 -0.296655 0.0213245)
(-0.142229 -0.317588 0.027012)
(-0.206605 -0.351834 0.0255302)
(-0.263153 -0.404659 0.0149298)
(-0.294611 -0.456037 -0.00441303)
(-0.29394 -0.48564 -0.0238462)
(-0.244603 -0.445444 -0.0391085)
(-0.151196 -0.305383 -0.0334723)
(-0.0393238 -0.100232 -0.0124026)
(0.00912615 0.0418047 0.0071494)
(-0.00406413 0.169958 0.0116494)
(0.0378548 0.365048 -0.00667264)
(0.122986 0.463368 -0.0108313)
(0.198781 0.493607 0.00191871)
(0.259675 0.489085 0.0151121)
(0.277938 0.473173 0.031848)
(0.250214 0.46917 0.0395253)
(0.189936 0.46714 0.0407725)
(0.102232 0.453308 0.0370957)
(0.00711605 0.412678 0.037001)
(-0.0684017 0.363777 0.041729)
(-0.12762 0.309018 0.0236214)
(-0.178973 0.245318 0.0126464)
(-0.213375 0.177864 0.00272641)
(-0.233863 0.105469 -0.00927348)
(-0.247045 0.0263013 -0.0154162)
(-0.249677 -0.0431971 -0.0141509)
(-0.251925 -0.103334 -0.0139658)
(-0.235205 -0.148321 -0.0232669)
(-0.165695 -0.187637 -0.0221338)
(-0.093723 -0.212459 -0.0172243)
(-0.0421074 -0.239241 -0.0137017)
(0.00194518 -0.26643 -0.0118835)
(0.0416697 -0.291336 -0.0102202)
(0.0802019 -0.310973 -0.00865467)
(0.106554 -0.322236 -0.00741203)
(0.117375 -0.32421 -0.00479056)
(0.11503 -0.325426 -0.0015429)
(0.0948799 -0.3234 0.00105858)
(0.0540509 -0.328689 0.004792)
(0.0022783 -0.33567 0.0115306)
(-0.060114 -0.362059 0.0132904)
(-0.136678 -0.395976 0.0128591)
(-0.212991 -0.459833 0.00674537)
(-0.266247 -0.533126 -0.00549231)
(-0.27739 -0.592852 -0.0223225)
(-0.226414 -0.582834 -0.0390851)
(-0.148149 -0.445489 -0.0465015)
(-0.0428513 -0.210575 -0.0168591)
(0.0118667 0.00649503 0.0131315)
(-0.0111737 0.26598 0.00592306)
(0.0203044 0.485507 -0.0133823)
(0.0992816 0.594139 -0.0134137)
(0.178534 0.628176 -0.00425428)
(0.25201 0.624615 0.0139621)
(0.299191 0.598845 0.0320293)
(0.298599 0.585452 0.0376789)
(0.239305 0.570707 0.0370294)
(0.131283 0.544621 0.0306803)
(0.0176723 0.498946 0.0343082)
(-0.0675547 0.450987 0.0371544)
(-0.140534 0.385394 0.0171028)
(-0.204036 0.306833 0.00354394)
(-0.253337 0.219656 -0.00764336)
(-0.287627 0.11881 -0.0191501)
(-0.295213 0.0251641 -0.0267822)
(-0.283333 -0.0555586 -0.0287365)
(-0.268422 -0.124041 -0.0311387)
(-0.237157 -0.166342 -0.0371093)
(-0.161727 -0.20347 -0.0343024)
(-0.0807176 -0.22932 -0.0284193)
(-0.0265046 -0.245438 -0.0251615)
(0.0127101 -0.263734 -0.0225036)
(0.0526439 -0.278853 -0.0152961)
(0.0988281 -0.294417 -0.00869769)
(0.139136 -0.303461 -0.00540344)
(0.160044 -0.29777 -0.00371303)
(0.161983 -0.294687 -0.00279461)
(0.142219 -0.297351 -0.000815478)
(0.108039 -0.313019 0.00475891)
(0.0563687 -0.334663 0.0091144)
(-0.00273035 -0.387783 0.0154152)
(-0.0735326 -0.443311 0.0134497)
(-0.161259 -0.515081 0.00917027)
(-0.230753 -0.595686 -0.000810678)
(-0.266604 -0.683384 -0.0171788)
(-0.227306 -0.703337 -0.0322708)
(-0.155586 -0.618255 -0.0465383)
(-0.0413771 -0.324805 -0.018551)
(0.0224255 -0.0488809 0.0132864)
(-0.0193116 0.293346 0.00225909)
(0.00483822 0.52772 -0.0239061)
(0.0865356 0.652455 -0.027683)
(0.172241 0.705535 -0.0253492)
(0.249432 0.714593 -0.0101503)
(0.305052 0.692154 0.00946182)
(0.308126 0.654496 0.0178789)
(0.235738 0.60808 0.0236593)
(0.116313 0.560148 0.0237403)
(0.000233034 0.511849 0.0330055)
(-0.0944827 0.46003 0.0352512)
(-0.183229 0.389425 0.0187465)
(-0.255646 0.307167 0.00736048)
(-0.313371 0.213866 -0.0044586)
(-0.342118 0.119998 -0.0168)
(-0.3375 0.0253897 -0.0349374)
(-0.317548 -0.0581208 -0.0444217)
(-0.283518 -0.131723 -0.0493379)
(-0.238003 -0.178338 -0.0502697)
(-0.154731 -0.217443 -0.0466802)
(-0.0639903 -0.24468 -0.0383498)
(-0.00660125 -0.262359 -0.0377951)
(0.037447 -0.275122 -0.0321032)
(0.0802332 -0.276654 -0.0232261)
(0.126623 -0.275041 -0.0164107)
(0.177705 -0.271878 -0.0109538)
(0.206577 -0.258786 -0.00370332)
(0.205528 -0.246749 0.00158217)
(0.181723 -0.239011 0.00258659)
(0.144408 -0.24558 0.00849154)
(0.0855959 -0.267878 0.0151202)
(0.0264869 -0.327604 0.0225212)
(-0.0289922 -0.40598 0.0248991)
(-0.101195 -0.53177 0.01869)
(-0.184786 -0.666115 0.0108196)
(-0.238142 -0.79631 -0.00202895)
(-0.228204 -0.851497 -0.0206674)
(-0.145066 -0.799373 -0.0300764)
(-0.042039 -0.513608 -0.0367267)
(0.00334398 -0.11677 0.0330575)
(-0.00595074 0.23671 0.0162265)
(0.0203284 0.467537 -0.0133389)
(0.0835161 0.599121 -0.0226539)
(0.162145 0.661142 -0.0185453)
(0.237249 0.6741 -0.00738343)
(0.288594 0.657491 0.0100743)
(0.29253 0.611465 0.0224828)
(0.228861 0.560935 0.0313668)
(0.116784 0.517084 0.0361373)
(-0.00236506 0.481364 0.0445069)
(-0.111223 0.435882 0.046981)
(-0.213168 0.377618 0.0324808)
(-0.297153 0.309227 0.019607)
(-0.356776 0.227778 0.00388102)
(-0.392375 0.149944 -0.0209984)
(-0.390376 0.0516677 -0.0433032)
(-0.359228 -0.0352649 -0.0659179)
(-0.310054 -0.113466 -0.0694493)
(-0.247504 -0.17022 -0.0665368)
(-0.155896 -0.211987 -0.0628573)
(-0.0561997 -0.245617 -0.0491459)
(0.0106558 -0.271447 -0.0436113)
(0.0652674 -0.283712 -0.0381735)
(0.119785 -0.284121 -0.0277082)
(0.17191 -0.274504 -0.0217659)
(0.22646 -0.264988 -0.0188894)
(0.261173 -0.253879 -0.010001)
(0.26586 -0.241662 -0.00181765)
(0.240193 -0.226475 0.00287241)
(0.196143 -0.22317 0.00665734)
(0.121552 -0.225135 0.014312)
(0.0471976 -0.259439 0.0287217)
(-0.0418808 -0.319109 0.032959)
(-0.140325 -0.423474 0.0405868)
(-0.199268 -0.585708 0.039347)
(-0.229312 -0.775463 0.0295812)
(-0.218957 -0.902952 0.0102696)
(-0.154917 -0.921053 -0.0131475)
(-0.0222758 -0.704729 -0.0266585)
(0.0357902 -0.244744 -0.000337866)
(-0.00402355 0.205776 0.0213923)
(0.0257709 0.412744 -0.00359992)
(0.0881667 0.542731 -0.0135562)
(0.161087 0.610422 -0.00937897)
(0.233287 0.629807 0.00131704)
(0.277773 0.614924 0.0184604)
(0.275999 0.572494 0.0327649)
(0.216006 0.519807 0.0436057)
(0.112195 0.473963 0.0507714)
(-0.00489152 0.438225 0.0575447)
(-0.122248 0.403238 0.0580397)
(-0.232428 0.359232 0.0483908)
(-0.325598 0.307352 0.0347448)
(-0.390703 0.245344 0.0160866)
(-0.435378 0.174995 -0.0133088)
(-0.439677 0.0892414 -0.0446057)
(-0.400666 -0.00240951 -0.0742133)
(-0.339056 -0.0780169 -0.0855014)
(-0.260726 -0.143804 -0.0795428)
(-0.158099 -0.190951 -0.0763518)
(-0.0544664 -0.228692 -0.058958)
(0.0223925 -0.265771 -0.0528901)
(0.0910353 -0.279021 -0.0434476)
(0.155805 -0.281939 -0.0292605)
(0.213239 -0.273591 -0.022163)