/*--------------------------------*- C++ -*----------------------------------*\
| =========                 |                                                 |
| \\      /  F ield         | OpenFOAM: The Open Source CFD Toolbox           |
|  \\    /   O peration     | Version:  v1806                                 |
|   \\  /    A nd           | Web:      www.OpenFOAM.com                      |
|    \\/     M anipulation  |                                                 |
\*---------------------------------------------------------------------------*/
FoamFile
{
    version     2.0;
    format      ascii;
    class       vectorField;
    location    "0.0495";
    object      currentcloudofpoints;
}
// * * * * * * * * * * * * * * * * * * * * * * * * * * * * * * * * * * * * * //


2409
(
(0.771035 1.33799 1.00177)
(0.765695 0.883525 1.0002)
(1.24254 1.3545 0.999553)
(0.983582 1.06731 0.753948)
(0.987602 1.06853 1.24659)
(1.09272 1.09799 1.00013)
(0.674057 1.45829 0.999362)
(0.670258 0.705834 1.00123)
(1.36044 1.5265 0.999854)
(1.00094 1.07838 0.57627)
(0.988767 1.08405 1.41449)
(1.23032 1.33872 1.08502)
(1.19439 1.29832 1.15701)
(1.13547 1.23969 1.21279)
(1.06279 1.15656 1.25596)
(1.23706 1.3482 1.04285)
(1.21379 1.31845 1.12164)
(1.16564 1.26946 1.18399)
(1.0985 1.20162 1.23522)
(1.02646 1.10858 1.25885)
(0.781269 0.889824 1.05083)
(0.82306 0.906073 1.09667)
(0.876442 0.940586 1.14247)
(0.931251 1.00048 1.18807)
(0.772485 0.887996 1.02519)
(0.803142 0.898719 1.07143)
(0.851548 0.92061 1.11847)
(0.907259 0.969079 1.16069)
(0.956935 1.03576 1.21411)
(1.22915 1.33862 0.913724)
(1.19216 1.29823 0.84232)
(1.13307 1.2388 0.788346)
(1.06123 1.15364 0.745375)
(1.23679 1.34773 0.956015)
(1.21182 1.31865 0.877476)
(1.16326 1.26934 0.815757)
(1.09715 1.19912 0.766609)
(1.02191 1.1066 0.74281)
(0.931677 0.998992 0.811756)
(0.87695 0.940206 0.857755)
(0.82084 0.907928 0.902321)
(0.782795 0.890084 0.949495)
(0.956451 1.03464 0.785986)
(0.907489 0.967446 0.838754)
(0.85054 0.921547 0.881425)
(0.802504 0.899602 0.928018)
(0.774637 0.888326 0.975396)
(0.93584 1.13151 1.1885)
(0.867206 1.20808 1.15429)
(0.812865 1.27139 1.10858)
(0.781801 1.31663 1.07681)
(0.963279 1.09842 1.20749)
(0.903872 1.16657 1.17105)
(0.837852 1.24323 1.12596)
(0.795614 1.29316 1.09149)
(0.774345 1.3294 1.04154)
(0.781793 1.31716 0.925452)
(0.811223 1.27358 0.887121)
(0.865116 1.20973 0.844215)
(0.933278 1.13129 0.814631)
(0.77433 1.32869 0.962151)
(0.795236 1.29535 0.906178)
(0.835627 1.24483 0.871685)
(0.901499 1.16808 0.828458)
(0.960395 1.09701 0.79521)
(0.706875 0.998153 1.0002)
(0.676311 1.09326 0.999915)
(0.673279 1.17885 0.999835)
(0.702834 1.2675 0.999704)
(0.739462 0.94365 1.00132)
(0.694646 1.04806 0.999199)
(0.676714 1.13512 1.00021)
(0.68541 1.22246 0.999533)
(0.734949 1.30292 1.00068)
(0.861135 1.38754 1.00417)
(0.958653 1.41106 1.00486)
(1.06314 1.41166 1.00033)
(1.16338 1.39609 0.99945)
(0.815021 1.36211 1.00251)
(0.910455 1.39923 1.00539)
(1.00907 1.41017 1.00231)
(1.11741 1.40244 0.999521)
(1.20363 1.38053 0.999431)
(0.686196 0.722792 1.12161)
(0.71945 0.748404 1.22684)
(0.754028 0.778971 1.29833)
(0.791291 0.819059 1.34572)
(0.84102 0.868018 1.36877)
(0.889247 0.932782 1.3977)
(0.946788 1.0063 1.41425)
(0.673786 0.715713 1.0629)
(0.703725 0.733575 1.17616)
(0.737269 0.766407 1.26499)
(0.772997 0.798194 1.32298)
(0.816609 0.843714 1.35693)
(0.865227 0.8979 1.38111)
(0.920663 0.969563 1.40416)
(0.970484 1.04523 1.41354)
(1.05618 1.14966 1.4194)
(1.13405 1.2147 1.3958)
(1.19811 1.2809 1.36157)
(1.25184 1.34775 1.31735)
(1.30402 1.40952 1.25314)
(1.33533 1.4709 1.17688)
(1.35455 1.51318 1.09178)
(1.01767 1.11786 1.41706)
(1.09644 1.18242 1.40762)
(1.16896 1.24584 1.37704)
(1.224 1.31452 1.33912)
(1.27891 1.37654 1.28614)
(1.32069 1.43965 1.21466)
(1.34582 1.49268 1.13515)
(1.35814 1.52069 1.04618)
(0.687094 0.719793 0.877107)
(0.717061 0.746745 0.770747)
(0.75153 0.775458 0.698087)
(0.788164 0.817278 0.653969)
(0.836832 0.866614 0.626232)
(0.887957 0.932295 0.60302)
(0.945671 1.00516 0.584978)
(0.676261 0.709338 0.93853)
(0.701817 0.736463 0.822093)
(0.735679 0.760482 0.730999)
(0.770243 0.797168 0.675641)
(0.813378 0.841206 0.641369)
(0.861842 0.897754 0.615031)
(0.918871 0.968774 0.597589)
(0.975202 1.04151 0.580146)
(1.35419 1.51322 0.908274)
(1.33565 1.4716 0.823076)
(1.30426 1.40951 0.746986)
(1.25273 1.3471 0.682456)
(1.19873 1.28064 0.637153)
(1.13394 1.21566 0.604756)
(1.06251 1.148 0.583092)
(1.35776 1.5206 0.953625)
(1.34579 1.4931 0.864976)
(1.32106 1.44021 0.785228)
(1.27944 1.37604 0.714101)
(1.22493 1.31388 0.659967)
(1.16904 1.24627 0.622198)
(1.09722 1.18262 0.595476)
(1.03106 1.1136 0.578995)
(0.678135 1.44994 1.11519)
(0.686875 1.42988 1.21281)
(0.71596 1.3908 1.29974)
(0.774206 1.33018 1.36486)
(0.831094 1.2742 1.38074)
(0.883792 1.21788 1.3955)
(0.932431 1.15734 1.3944)
(0.676043 1.4559 1.06053)
(0.684669 1.43987 1.16915)
(0.700315 1.41183 1.2595)
(0.746976 1.35976 1.33778)
(0.804198 1.30071 1.37605)
(0.859011 1.24719 1.38125)
(0.905484 1.18774 1.3967)
(0.962593 1.1232 1.40374)
(0.678852 1.44904 0.884035)
(0.684911 1.43086 0.790975)
(0.720872 1.38896 0.698918)
(0.772166 1.33088 0.634234)
(0.832492 1.27389 0.622436)
(0.882772 1.21936 0.610368)
(0.945441 1.15422 0.594239)
(0.678854 1.45378 0.93783)
(0.681979 1.44088 0.833343)
(0.702807 1.41114 0.740827)
(0.747548 1.3599 0.662228)
(0.804579 1.3002 0.624688)
(0.860074 1.24744 0.622078)
(0.906953 1.18712 0.604954)
(0.978722 1.11851 0.57944)
(0.60569 0.78654 1.00086)
(0.566419 0.864039 1.0001)
(0.536755 0.950715 1.00029)
(0.522745 1.04796 0.999958)
(0.523108 1.14844 0.999865)
(0.540891 1.24898 0.999625)
(0.592352 1.3532 0.999724)
(0.634159 0.749919 1.0011)
(0.584288 0.826235 1.00047)
(0.552022 0.905971 0.99998)
(0.528296 0.998701 1.00015)
(0.522169 1.09761 0.999822)
(0.53029 1.19858 0.999644)
(0.56398 1.29996 0.999792)
(0.631859 1.4067 0.999522)
(0.762126 1.54019 0.998869)
(0.843725 1.59424 0.999377)
(0.933638 1.62726 1.00022)
(1.03015 1.6314 1.00081)
(1.11368 1.6179 1.00027)
(1.18896 1.5986 0.999709)
(1.27056 1.5688 0.999924)
(0.72098 1.50239 0.999236)
(0.806201 1.56907 0.99902)
(0.89012 1.61226 0.999674)
(0.984757 1.6304 1.00062)
(1.07439 1.62281 1.00064)
(1.15087 1.60478 0.999827)
(1.22776 1.58292 0.999801)
(1.3157 1.54664 0.99988)
(0.980631 1.07792 0.672106)
(0.997634 1.07808 0.615093)
(0.980395 1.06985 0.714262)
(0.988937 1.07394 1.32982)
(0.989308 1.06783 1.28901)
(0.990605 1.07991 1.37806)
(0.71248 0.797991 0.997853)
(0.739304 0.841496 0.998322)
(0.678713 0.746903 1.00021)
(1.30577 1.42534 0.999598)
(1.27149 1.38888 0.99968)
(1.33985 1.47093 0.999604)
(0.910741 1.53293 1.26292)
(0.92585 1.59409 1.17404)
(1.01488 1.3259 1.39482)
(1.10957 1.58805 1.15973)
(0.79243 1.55736 1.08791)
(1.04566 1.24472 1.415)
(1.26207 1.54609 1.13761)
(1.18155 1.54388 1.22018)
(0.821372 1.55135 1.18279)
(1.01615 1.57749 1.21658)
(1.00766 1.61691 1.11598)
(0.80926 1.45531 1.3048)
(1.08805 1.51816 1.27683)
(1.18048 1.58098 1.13189)
(1.00302 1.49189 1.31742)
(1.21984 1.58388 1.0655)
(1.10199 1.31129 1.40119)
(1.1497 1.60058 1.07415)
(0.740772 1.50731 1.14408)
(0.957156 1.24151 1.39413)
(0.920926 1.32962 1.39199)
(1.06784 1.4146 1.35998)
(1.24942 1.48016 1.24105)
(0.899569 1.60939 1.08487)
(0.74718 1.47923 1.22746)
(0.986959 1.40041 1.37382)
(1.22305 1.41716 1.30648)
(1.16189 1.46761 1.30829)
(0.730596 1.51267 1.07037)
(0.995707 1.18159 1.41253)
(1.29404 1.55396 1.05969)
(0.913874 1.44139 1.34893)
(0.849826 1.36526 1.37377)
(1.16503 1.37813 1.3562)
(0.968719 1.62766 1.05064)
(1.08461 1.61376 1.07164)
(1.04471 1.19979 1.41963)
(1.08289 1.22984 1.4121)
(0.987549 1.1343 1.41339)
(1.01954 1.16717 1.42096)
(1.0209 1.21375 1.41325)
(1.11736 1.263 1.39925)
(1.15046 1.29536 1.38001)
(1.07629 1.27698 1.40856)
(1.18158 1.32928 1.35655)
(1.20817 1.36211 1.33331)
(1.13334 1.34375 1.37867)
(1.23705 1.38135 1.30988)
(1.26376 1.41005 1.27638)
(1.19347 1.3983 1.33221)
(1.27804 1.44216 1.24417)
(1.29013 1.47285 1.20627)
(1.23971 1.44588 1.27369)
(1.29902 1.50781 1.15847)
(1.30729 1.52773 1.11424)
(1.25556 1.51471 1.19255)
(1.32477 1.53407 1.07582)
(1.32841 1.53979 1.02985)
(1.27732 1.54984 1.09863)
(1.28241 1.5612 1.02996)
(0.823121 1.5767 1.0434)
(0.779265 1.54993 1.04621)
(0.762849 1.53635 1.08064)
(0.747559 1.52764 1.03473)
(0.704174 1.48755 1.03878)
(0.919953 1.61784 1.04279)
(0.875169 1.6018 1.0442)
(0.849733 1.58469 1.08837)
(1.00152 1.62884 1.02636)
(0.95228 1.62769 1.02577)
(0.935699 1.61946 1.0678)
(1.09913 1.61429 1.03613)
(1.05931 1.62068 1.0363)
(1.03204 1.61875 1.0628)
(1.16867 1.59787 1.03741)
(1.13146 1.60638 1.03718)
(1.11745 1.60477 1.07361)
(1.24448 1.57557 1.03352)
(1.20396 1.59046 1.03235)
(1.18356 1.59055 1.07039)
(1.25519 1.56772 1.06378)
(0.866375 1.5434 1.22562)
(0.874843 1.57368 1.18055)
(0.917555 1.56531 1.219)
(0.972275 1.58733 1.1965)
(0.96366 1.55819 1.24014)
(0.864793 1.58353 1.13482)
(0.914428 1.60329 1.12973)
(0.969181 1.60819 1.14488)
(1.01366 1.59898 1.16714)
(0.955586 1.61599 1.10077)
(1.03546 1.28597 1.39792)
(1.06039 1.31952 1.3964)
(1.00652 1.24447 1.39794)
(0.98789 1.28464 1.39179)
(1.04224 1.36783 1.37972)
(1.08483 1.3622 1.38115)
(0.968072 1.32919 1.39222)
(0.93903 1.28654 1.39274)
(1.00088 1.36124 1.38528)
(0.954913 1.36443 1.38439)
(1.02805 1.40694 1.36512)
(1.09699 1.59927 1.11648)
(1.1294 1.59198 1.11821)
(1.06224 1.59861 1.14103)
(1.04915 1.61241 1.09592)
(1.13418 1.52678 1.25167)
(1.10079 1.55521 1.22123)
(1.14433 1.565 1.19106)
(1.14465 1.58195 1.14721)
(1.18198 1.56354 1.17694)
(1.16436 1.59 1.10281)
(1.06729 1.57937 1.19093)
(1.05392 1.5473 1.24795)
(0.782393 1.53059 1.16622)
(0.767744 1.53409 1.11647)
(0.808876 1.55551 1.1381)
(0.736995 1.51029 1.10947)
(0.711257 1.47955 1.13307)
(0.715367 1.46913 1.18162)
(0.704914 1.48267 1.09397)
(0.717613 1.45505 1.22205)
(0.731085 1.43574 1.2672)
(0.744689 1.49387 1.18824)
(0.763921 1.42324 1.30486)
(0.792784 1.39056 1.34146)
(0.777561 1.46919 1.26867)
(0.840937 1.31823 1.37948)
(0.812525 1.34794 1.36925)
(0.831473 1.40842 1.34608)
(0.875677 1.30359 1.38338)
(0.900751 1.27568 1.38826)
(0.886714 1.34698 1.38208)
(0.917418 1.23071 1.39603)
(0.943011 1.20041 1.39225)
(0.965067 1.17109 1.39933)
(0.979337 1.21246 1.39664)
(0.862757 1.4935 1.28725)
(0.913904 1.48754 1.30995)
(0.86394 1.448 1.32934)
(0.960341 1.46712 1.33494)
(0.959795 1.51315 1.29272)
(0.817041 1.50485 1.24877)
(1.0084 1.53638 1.2683)
(1.24023 1.56509 1.10252)
(0.882245 1.40288 1.36293)
(0.919059 1.38145 1.37518)
(0.952657 1.42108 1.36273)
(0.995549 1.44538 1.34978)
(0.989723 1.62169 1.08337)
(1.21995 1.56308 1.13773)
(1.22161 1.54332 1.18205)
(1.21475 1.5121 1.23631)
(1.19925 1.58069 1.09953)
(1.17189 1.50373 1.26753)
(1.12293 1.49131 1.29411)
(1.20812 1.47147 1.27776)
(0.786328 1.51584 1.20744)
(1.04621 1.50485 1.29604)
(1.03701 1.45125 1.341)
(1.07912 1.46562 1.32319)
(1.11381 1.44057 1.33532)
(1.11634 1.39606 1.36025)
(1.16477 1.42218 1.3353)
(1.19355 1.44213 1.31061)
(0.650839 1.08617 1.34778)
(0.566153 1.17253 1.217)
(0.592878 0.939802 1.2044)
(0.62274 0.877275 1.21214)
(0.59533 1.21668 1.27585)
(0.723109 1.13911 1.37025)
(0.651974 0.797386 1.17907)
(0.62991 1.37246 1.17422)
(0.855461 1.03503 1.39295)
(0.594603 1.13532 1.28703)
(0.646447 0.930141 1.29495)
(0.575826 1.26931 1.18226)
(0.662152 1.18996 1.34902)
(0.788053 0.970506 1.37139)
(0.746131 1.24004 1.37251)
(0.669657 1.27775 1.33217)
(0.679814 0.841856 1.2631)
(0.862301 1.13117 1.39491)
(0.589318 0.856582 1.11849)
(0.535195 1.14701 1.12273)
(0.784994 1.08205 1.37435)
(0.628729 1.32348 1.25513)
(0.80698 1.18936 1.37446)
(0.53529 1.05095 1.11322)
(0.711308 0.95242 1.34609)
(0.720599 0.870522 1.32507)
(0.598641 1.02975 1.27606)
(0.656772 1.00252 1.33783)
(0.766597 0.896959 1.35748)
(0.712273 1.03843 1.36287)
(0.565367 1.01978 1.18118)
(0.567348 1.09451 1.21019)
(0.630173 0.773919 1.08875)
(0.919598 1.08432 1.39894)
(0.549314 0.956818 1.09281)
(0.59483 1.34338 1.08469)
(0.54187 1.23018 1.0803)
(0.617296 0.830861 1.15029)
(0.60553 0.868567 1.16906)
(0.636301 0.838871 1.19517)
(0.639253 0.787973 1.13595)
(0.607699 0.816896 1.10448)
(0.651506 0.859892 1.23766)
(0.668158 0.818862 1.22313)
(0.667554 0.761469 1.15183)
(0.686277 0.773261 1.20259)
(0.656517 0.75076 1.10589)
(0.700007 0.797207 1.2459)
(0.87878 0.983959 1.39572)
(0.91006 1.02119 1.4017)
(0.816961 0.920855 1.37128)
(0.841381 0.949228 1.38363)
(0.821103 1.00038 1.37983)
(0.936715 1.04578 1.40747)
(0.957429 1.08607 1.40694)
(0.890103 1.059 1.39632)
(0.570259 1.22027 1.20304)
(0.589388 1.24347 1.2369)
(0.582531 1.19478 1.25021)
(0.605309 1.29671 1.22555)
(0.61295 1.26863 1.27067)
(0.628773 1.20399 1.31772)
(0.631385 1.24789 1.30764)
(0.667809 1.23242 1.34235)
(0.59634 1.17542 1.2837)
(0.626284 1.16316 1.32163)
(0.647489 1.30205 1.29789)
(0.584153 1.15432 1.2569)
(0.607877 0.908189 1.20901)
(0.590916 0.899256 1.1634)
(0.569456 0.907323 1.10542)
(0.571718 0.949745 1.15241)
(0.57575 0.859743 1.05969)
(0.594607 0.820701 1.06096)
(0.615894 0.779473 1.04522)
(0.55683 0.909533 1.04642)
(0.602442 1.3201 1.18338)
(0.630416 1.34827 1.21963)
(0.584857 1.30623 1.13835)
(0.614177 1.35867 1.13391)
(0.553677 1.20242 1.15726)
(0.559593 1.2507 1.13623)
(0.566206 1.28561 1.085)
(0.70593 1.21507 1.36194)
(0.711078 1.25778 1.35726)
(0.73557 1.19006 1.36802)
(0.695657 1.16459 1.36243)
(0.65824 1.13837 1.34813)
(0.688411 1.11272 1.36092)
(0.622081 1.11095 1.32223)
(0.805522 0.882848 1.36438)
(0.778774 0.934321 1.36323)
(0.78368 1.02501 1.36989)
(0.818986 1.05808 1.37959)
(0.749173 1.00534 1.36242)
(0.747797 1.0599 1.36774)
(0.749796 0.962336 1.35704)
(0.738323 0.926076 1.34906)
(0.711263 0.995204 1.35271)
(0.760889 1.28376 1.36975)
(0.725145 1.30376 1.35031)
(0.789188 1.2575 1.37476)
(0.818601 1.23206 1.37476)
(0.777487 1.21519 1.37109)
(0.765028 1.16421 1.36909)
(0.695171 1.33181 1.32145)
(0.673254 1.35716 1.28258)
(0.895542 1.14382 1.39572)
(0.873458 1.17481 1.39511)
(0.837979 1.16026 1.38129)
(0.847412 1.20347 1.38172)
(0.92358 1.12118 1.39416)
(0.886153 1.10767 1.39493)
(0.855396 1.08341 1.39085)
(0.825635 1.10557 1.37991)
(0.796614 1.13643 1.37144)
(0.621486 0.935648 1.25359)
(0.636927 0.90519 1.25484)
(0.598606 0.985382 1.24268)
(0.62157 0.979742 1.28801)
(0.556334 0.988071 1.13842)
(0.579253 0.980044 1.1931)
(0.585867 1.02634 1.23248)
(0.664235 0.887777 1.27804)
(0.659801 1.4013 1.19783)
(0.654527 1.41066 1.14756)
(0.636949 1.39739 1.10565)
(0.631446 1.40195 1.04415)
(0.658629 1.37534 1.24004)
(0.716514 1.08923 1.36558)
(0.683586 1.06302 1.35685)
(0.621037 1.05843 1.31717)
(0.59886 1.08264 1.28385)
(0.653718 1.04452 1.34288)
(0.624114 1.01714 1.31193)
(0.685443 1.02078 1.35089)
(0.646872 0.740979 1.0454)
(0.541906 0.952999 1.04642)
(0.531935 1.00034 1.04688)
(0.526649 1.14644 1.06054)
(0.525613 1.09577 1.06126)
(0.526302 1.04788 1.05568)
(0.541478 1.00331 1.10373)
(0.534926 1.09854 1.11976)
(0.540944 1.23896 1.03967)
(0.530138 1.18885 1.0397)
(0.537101 1.18873 1.10306)
(0.593216 1.34821 1.04308)
(0.565829 1.29539 1.04326)
(0.716591 0.814424 1.28194)
(0.756942 0.845207 1.33687)
(0.738104 0.826204 1.31254)
(0.700237 0.858539 1.29585)
(0.779892 0.858487 1.35279)
(0.743641 0.883591 1.34177)
(0.754105 1.11156 1.36977)
(0.682668 0.903256 1.30868)
(0.567912 1.13358 1.21587)
(0.585304 1.11588 1.2533)
(0.587065 1.06243 1.24611)
(0.715893 0.912395 1.33463)
(0.677704 0.941797 1.32417)
(0.650676 0.966189 1.31795)
(0.684562 0.97778 1.34141)
(0.551194 1.12101 1.17139)
(0.552327 1.16074 1.17461)
(0.550385 1.0354 1.14965)
(0.552168 1.07338 1.16581)
(0.56722 1.05707 1.19714)
(0.632207 0.990077 0.68911)
(0.626408 1.18721 0.677276)
(0.626038 0.938239 0.730953)
(0.617624 0.883509 0.795943)
(0.566816 1.22621 0.811617)
(0.765484 1.09644 0.629655)
(0.600998 1.32043 0.814094)
(0.851423 1.12781 0.612259)
(0.603731 1.01755 0.726393)
(0.580102 1.16468 0.74412)
(0.738495 0.946255 0.651802)
(0.674135 1.27788 0.665129)
(0.694059 1.133 0.637698)
(0.61094 1.08535 0.688745)
(0.721041 1.04711 0.641464)
(0.599037 1.2525 0.738048)
(0.788498 1.18448 0.625943)
(0.665628 0.843852 0.739046)
(0.855074 1.03378 0.607167)
(0.646266 0.800361 0.831863)
(0.549319 0.92316 0.924242)
(0.539978 1.13704 0.862279)
(0.536452 1.01846 0.888122)
(0.587679 0.848587 0.898414)
(0.645051 1.33514 0.732962)
(0.574499 1.06825 0.775036)
(0.687044 0.905907 0.68015)
(0.580997 0.958741 0.81424)
(0.735137 1.23342 0.626402)
(0.552353 1.26163 0.912149)
(0.789417 0.985684 0.626786)
(0.62988 0.76932 0.919259)
(0.621775 1.38144 0.887746)
(0.6676 1.01831 0.653672)
(0.677265 1.20776 0.644291)
(0.923651 1.08132 0.593376)
(0.607843 1.05161 0.705737)
(0.622411 1.03788 0.687228)
(0.618373 1.00414 0.706123)
(0.630417 0.964574 0.708832)
(0.616293 0.977842 0.72779)
(0.647765 1.00394 0.669218)
(0.638074 1.05277 0.667875)
(0.655027 0.922887 0.701744)
(0.659754 0.948263 0.68351)
(0.677954 0.962072 0.667491)
(0.811292 1.06559 0.624343)
(0.811238 1.11145 0.625917)
(0.850448 1.08105 0.611542)
(0.77599 1.14085 0.629364)
(0.822667 1.15707 0.625208)
(0.82193 1.00762 0.617044)
(0.777622 1.04114 0.632506)
(0.743261 1.07148 0.636377)
(0.707646 1.09087 0.641709)
(0.731089 1.11527 0.635289)
(0.741099 1.15863 0.632206)
(0.756001 1.01742 0.639552)
(0.934326 1.11778 0.593452)
(0.968298 1.08173 0.579943)
(0.937883 1.04374 0.588419)
(0.602053 1.28625 0.771139)
(0.584351 1.2398 0.770125)
(0.583959 1.27215 0.809176)
(0.622652 1.29294 0.732129)
(0.624352 1.32878 0.769248)
(0.578919 1.29147 0.855943)
(0.561622 1.24429 0.857976)
(0.666056 1.3822 0.757075)
(0.644809 1.37534 0.793856)
(0.610901 1.35105 0.847264)
(0.656795 1.40745 0.829951)
(0.584214 1.3208 0.89519)
(0.881585 1.104 0.60465)
(0.888675 1.0573 0.602937)
(0.837661 1.20175 0.624452)
(0.866158 1.17396 0.613002)
(0.892823 1.1405 0.604069)
(0.590056 1.0438 0.749451)
(0.595346 1.07878 0.727129)
(0.606225 0.949134 0.769845)
(0.595631 0.989518 0.766675)
(0.579304 1.01388 0.792468)
(0.876817 0.982456 0.605788)
(0.907801 1.02035 0.599317)
(0.838818 0.955879 0.614196)
(0.620883 1.13579 0.681638)
(0.59902 1.12556 0.712694)
(0.602668 1.17674 0.70758)
(0.579723 1.11631 0.756005)
(0.589702 1.20784 0.737898)
(0.574053 1.19573 0.772763)
(0.613526 1.21988 0.70305)
(0.564156 1.15261 0.793796)
(0.554761 1.18203 0.832538)
(0.557598 1.10304 0.812276)
(0.695443 1.03288 0.648446)
(0.729478 0.996669 0.649329)
(0.704638 0.982623 0.654964)
(0.764618 0.966363 0.641793)
(0.78746 0.908665 0.641668)
(0.765227 0.884446 0.656623)
(0.714447 0.926153 0.665104)
(0.74096 0.865306 0.672982)
(0.813436 0.927688 0.627259)
(0.651534 1.23179 0.669049)
(0.637129 1.26636 0.696684)
(0.661089 1.3064 0.694381)
(0.724747 1.30481 0.64781)
(0.70045 1.3308 0.677088)
(0.684688 1.36175 0.712133)
(0.70498 1.25546 0.641162)
(0.754676 1.28085 0.629027)
(0.67604 1.24211 0.652823)
(0.652903 1.19752 0.65923)
(0.706477 1.22073 0.634282)
(0.662387 1.16054 0.652906)
(0.652215 1.10991 0.658796)
(0.682413 1.07634 0.648877)
(0.763993 1.209 0.627415)
(0.714455 1.18345 0.633597)
(0.687116 1.17023 0.640275)
(0.81049 1.22949 0.627046)
(0.785056 1.25396 0.626154)
(0.644961 0.892287 0.735853)
(0.640396 0.865446 0.766365)
(0.622477 0.911542 0.761921)
(0.630414 0.843367 0.814583)
(0.656045 0.823429 0.782958)
(0.690475 0.796529 0.753962)
(0.709127 0.811184 0.716567)
(0.679977 0.776308 0.800031)
(0.676893 0.875572 0.706801)
(0.720158 0.844826 0.691376)
(0.545985 1.19869 0.883977)
(0.599519 0.921062 0.805672)
(0.616002 0.826886 0.865453)
(0.603176 0.867873 0.846298)
(0.582538 0.904601 0.856919)
(0.650402 1.41554 0.883705)
(0.647992 1.41984 0.94141)
(0.57313 0.853142 0.948227)
(0.593394 0.815338 0.947935)
(0.615273 0.776968 0.959854)
(0.64728 0.736963 0.959566)
(0.607374 0.81051 0.908379)
(0.541221 0.934586 0.961781)
(0.556822 0.890493 0.961237)
(0.568047 0.885385 0.911017)
(0.527058 1.02959 0.944417)
(0.532541 0.980655 0.944566)
(0.541337 0.970239 0.906086)
(0.527422 1.09014 0.931783)
(0.529048 1.14068 0.931623)
(0.537634 1.07797 0.873019)
(0.545112 1.25522 0.955924)
(0.534476 1.20471 0.956139)
(0.568518 1.30628 0.954017)
(0.606698 1.36803 0.940766)
(0.657541 0.745649 0.89759)
(0.66528 0.76189 0.853282)
(0.637748 0.785252 0.874318)
(0.563879 0.94177 0.867518)
(0.559682 0.987933 0.847827)
(0.557657 1.0454 0.826761)
(0.963422 1.59326 0.817047)
(0.888245 1.5494 0.764214)
(1.18937 1.57125 0.842092)
(0.966793 1.40532 0.623233)
(0.760173 1.52304 0.866925)
(1.27168 1.54165 0.864677)
(1.04706 1.25521 0.581913)
(1.05519 1.36468 0.616359)
(0.857107 1.58075 0.862741)
(0.972523 1.51816 0.710641)
(0.866212 1.45948 0.674316)
(0.965594 1.62144 0.918619)
(1.0621 1.48131 0.679171)
(0.990427 1.31961 0.602291)
(1.05803 1.56192 0.77121)
(0.960102 1.24488 0.601555)
(1.24265 1.50537 0.779681)
(0.923377 1.30682 0.609324)
(0.800892 1.5622 0.930869)
(1.22489 1.58207 0.933122)
(1.13416 1.60645 0.914824)
(1.14546 1.52564 0.744204)
(1.12781 1.3211 0.608914)
(0.784051 1.49632 0.759445)
(0.874792 1.60396 0.942082)
(1.11764 1.58359 0.826883)
(1.18149 1.37366 0.650878)
(1.12589 1.42449 0.655349)
(0.737652 1.51148 0.929485)
(1.29689 1.55233 0.940391)
(1.00512 1.18088 0.580515)
(1.04794 1.60855 0.862275)
(1.06228 1.6236 0.939062)
(1.21568 1.43181 0.698488)
(0.782037 1.42464 0.683955)
(0.872785 1.35479 0.622141)
(1.28389 1.56022 0.969989)
(1.32963 1.53906 0.970027)
(1.3259 1.53326 0.924259)
(0.911067 1.5877 0.837077)
(0.872366 1.56791 0.812417)
(0.927673 1.5728 0.789371)
(0.932662 1.53391 0.734655)
(0.970106 1.5583 0.761167)
(0.965878 1.6061 0.867445)
(0.916195 1.6011 0.88853)
(1.01692 1.53912 0.739729)
(1.01435 1.57898 0.791891)
(1.00794 1.60092 0.838464)
(1.0085 1.61361 0.88911)
(1.05432 1.58842 0.816121)
(0.784431 1.55183 0.962467)
(0.825251 1.57939 0.965222)
(0.708218 1.48636 0.960803)
(0.751831 1.52679 0.964264)
(0.771431 1.53825 0.929151)
(0.860752 1.59972 0.969923)
(0.906045 1.61649 0.97087)
(0.839705 1.58435 0.936113)
(0.951805 1.625 0.958909)
(1.00026 1.62736 0.959223)
(0.922213 1.61396 0.929227)
(1.08936 1.62006 0.969326)
(1.04706 1.62734 0.969692)
(1.01671 1.62235 0.927814)
(1.1243 1.61076 0.957417)
(1.16126 1.59886 0.95602)
(1.09947 1.61287 0.926484)
(1.20674 1.58927 0.966796)
(1.24713 1.57426 0.965869)
(1.17789 1.59069 0.922131)
(1.25917 1.56584 0.935669)
(1.00156 1.13075 0.574652)
(0.979025 1.16832 0.588352)
(1.02805 1.16575 0.575202)
(0.722594 1.47883 0.825427)
(0.722062 1.4874 0.871318)
(0.750898 1.51713 0.895444)
(0.70961 1.48095 0.905282)
(0.736656 1.4643 0.770903)
(0.770804 1.51238 0.811512)
(0.83137 1.57178 0.894678)
(0.783289 1.54323 0.89812)
(0.81085 1.55418 0.86295)
(0.822601 1.54277 0.808561)
(1.22902 1.55523 0.85021)
(1.21492 1.54033 0.807405)
(1.25688 1.52393 0.821368)
(1.28736 1.48566 0.803582)
(1.30429 1.50631 0.843282)
(1.24748 1.56248 0.897496)
(1.2839 1.54714 0.902562)
(1.20651 1.57577 0.886521)
(1.31249 1.52599 0.887178)
(0.75334 1.44286 0.724727)
(0.777925 1.37622 0.655181)
(0.752394 1.40677 0.690365)
(0.783094 1.46117 0.718614)
(0.853088 1.31348 0.623125)
(0.823758 1.34253 0.628578)
(0.829123 1.38818 0.644595)
(0.903079 1.26409 0.612478)
(0.878407 1.29157 0.62099)
(0.899863 1.33046 0.617902)
(0.951066 1.20025 0.601606)
(0.918538 1.23268 0.605638)
(0.940424 1.2763 0.605427)
(0.986886 1.21387 0.596778)
(1.05633 1.41842 0.64568)
(1.01491 1.44305 0.650475)
(1.01152 1.38405 0.620921)
(0.979345 1.35977 0.61072)
(1.02403 1.34223 0.609586)
(0.956962 1.31401 0.605453)
(0.946444 1.35365 0.613112)
(0.921126 1.38126 0.623004)
(0.921304 1.48954 0.690554)
(0.919779 1.43175 0.646396)
(0.970027 1.46229 0.661328)
(1.01936 1.49901 0.693988)
(0.86976 1.40516 0.641204)
(0.837072 1.52353 0.758938)
(0.878012 1.50452 0.715573)
(0.825748 1.47899 0.711867)
(1.02281 1.28896 0.599421)
(1.05754 1.30999 0.602247)
(1.0899 1.28715 0.593529)
(1.09191 1.34341 0.611896)
(0.976348 1.28302 0.602611)
(1.00915 1.25178 0.596959)
(1.02564 1.21921 0.584229)
(1.08407 1.23619 0.586297)
(1.13339 1.26822 0.606791)
(1.04833 1.20429 0.579624)
(1.08906 1.39251 0.63666)
(1.09359 1.45113 0.666823)
(1.12535 1.37148 0.630799)
(0.869821 1.59154 0.901548)
(1.06 1.51997 0.722781)
(0.824453 1.44247 0.677921)
(1.05543 1.6141 0.900278)
(1.10035 1.5397 0.757336)
(1.10449 1.50213 0.710636)
(1.13975 1.47566 0.694343)
(1.13035 1.55321 0.784867)
(1.08848 1.57156 0.798072)
(1.08414 1.59565 0.844069)
(1.18235 1.47974 0.713586)
(1.2327 1.46651 0.737818)
(1.19418 1.51414 0.75691)
(1.25992 1.41695 0.726612)
(1.27556 1.45455 0.765385)
(1.1674 1.54707 0.791242)
(1.17103 1.42867 0.673557)
(1.19814 1.40216 0.674313)
(1.15323 1.39868 0.650607)
(1.23413 1.38766 0.692915)
(1.21744 1.35957 0.66993)
(1.16046 1.58841 0.878512)
(1.12591 1.59517 0.870407)
(1.09291 1.6042 0.886948)
(1.15284 1.57491 0.832888)
(1.15427 1.3473 0.629739)
(1.16446 1.30078 0.625101)
(1.19129 1.32743 0.645873)
(0.854615 1.03609 1.15071)
(0.741284 1.00178 1.06925)
(0.6971 1.12623 1.05412)
(0.854436 1.11886 1.1581)
(0.69923 1.22248 1.06061)
(0.794619 1.10292 1.12742)
(0.807903 0.995542 1.11934)
(0.747318 1.08914 1.0848)
(0.740853 1.18505 1.09325)
(0.912305 1.06767 1.17354)
(0.69872 1.04047 1.03056)
(0.801847 1.18242 1.12904)
(0.749389 1.24955 1.09176)
(0.727829 0.964789 1.03218)
(0.732427 1.2875 1.05572)
(0.749374 1.31406 1.02908)
(0.755675 1.30175 1.06517)
(0.763368 1.2827 1.08341)
(0.779663 1.25985 1.09747)
(0.739328 1.26822 1.07536)
(0.779163 0.994608 1.09221)
(0.780013 1.0408 1.10197)
(0.7496 1.04314 1.07497)
(0.727829 1.06399 1.05448)
(0.725061 1.10773 1.06485)
(0.70363 1.08314 1.03868)
(0.721407 1.02176 1.04846)
(0.735202 0.984032 1.05029)
(0.714072 1.00384 1.03055)
(0.818257 0.94944 1.1076)
(0.786186 0.950113 1.08305)
(0.763057 0.947075 1.06025)
(0.755549 0.927466 1.04154)
(0.722247 1.15376 1.06767)
(0.719845 1.20372 1.07576)
(0.697365 1.17272 1.05373)
(0.684117 1.20222 1.02868)
(0.684305 1.1537 1.02938)
(0.743332 1.21691 1.09064)
(0.723826 1.23621 1.07589)
(0.69866 1.24615 1.03237)
(0.713985 1.25469 1.0578)
(0.71621 1.27905 1.02818)
(0.896403 1.01526 1.15997)
(0.921985 1.03347 1.1768)
(0.884204 1.05124 1.16021)
(0.950141 1.06739 1.19959)
(0.885718 1.09227 1.16383)
(0.855079 1.07794 1.15304)
(0.924335 1.10047 1.17846)
(0.89688 1.12425 1.16912)
(0.804357 1.04789 1.12249)
(0.772771 1.09459 1.10457)
(0.745539 1.13663 1.08415)
(0.769154 1.14483 1.10433)
(0.703757 1.01999 1.01495)
(0.690264 1.0682 1.01488)
(0.718334 0.982288 1.01594)
(0.689342 1.11081 1.02575)
(0.867984 0.987181 1.14409)
(0.832482 1.0142 1.13482)
(0.826019 1.0685 1.14024)
(0.84418 0.964913 1.12924)
(0.824477 1.11043 1.14349)
(0.860601 1.16259 1.15672)
(0.804774 1.22767 1.11439)
(0.833851 1.19552 1.14156)
(0.828559 1.15118 1.14554)
(0.77353 1.21635 1.09978)
(0.748246 0.926329 1.01671)
(0.771502 1.18327 1.10632)
(0.797919 1.14291 1.12776)
(0.866455 1.34102 1.1)
(1.13825 1.36307 1.10926)
(1.10223 1.39618 1.05969)
(1.07635 1.3282 1.14547)
(0.992799 1.31664 1.15418)
(1.02774 1.23565 1.1985)
(1.04255 1.37007 1.11968)
(1.00595 1.39995 1.06858)
(0.954589 1.22185 1.18202)
(1.18077 1.38282 1.05461)
(0.958511 1.36092 1.11664)
(0.915995 1.30007 1.13662)
(0.908344 1.38958 1.06725)
(0.832934 1.36435 1.05667)
(0.994079 1.15416 1.22433)
(1.05436 1.39827 1.06263)
(1.07233 1.38414 1.08999)
(1.0247 1.38533 1.09394)
(0.981637 1.3809 1.09416)
(1.0004 1.3663 1.11805)
(1.09134 1.36534 1.1118)
(1.1086 1.34527 1.12743)
(1.06109 1.34953 1.1323)
(1.12084 1.37982 1.08512)
(1.03337 1.32285 1.14875)
(1.0185 1.34477 1.13755)
(0.978151 1.34018 1.1348)
(0.806593 1.34041 1.06625)
(0.800801 1.35195 1.02898)
(0.83903 1.30688 1.1008)
(0.822853 1.32841 1.08537)
(0.848583 1.35276 1.07991)
(1.16594 1.3332 1.12959)
(1.18509 1.35532 1.09758)
(1.15999 1.3735 1.08303)
(1.20598 1.36444 1.06926)
(1.21362 1.3732 1.02721)
(1.04085 1.19298 1.22955)
(1.07457 1.23817 1.20778)
(1.09976 1.28294 1.17078)
(1.13314 1.31458 1.14774)
(1.04978 1.28559 1.1661)
(1.02351 1.15131 1.24358)
(0.991331 1.10991 1.23442)
(1.00965 1.19315 1.21362)
(0.913485 1.21337 1.16718)
(0.945511 1.17349 1.18785)
(0.975152 1.18543 1.19906)
(0.96619 1.14146 1.20517)
(0.935075 1.26473 1.15611)
(0.890073 1.25637 1.14218)
(0.991286 1.22564 1.18868)
(0.97217 1.27248 1.16349)
(0.955652 1.30844 1.14511)
(1.00957 1.27686 1.16759)
(0.846414 1.37737 1.03103)
(0.864246 1.28668 1.11784)
(0.891557 1.32063 1.11228)
(0.886941 1.36514 1.08502)
(0.870767 1.37695 1.06114)
(0.93254 1.37346 1.09085)
(0.913443 1.35013 1.1043)
(0.93918 1.33137 1.12499)
(1.17274 1.3899 1.0273)
(1.14267 1.38782 1.05685)
(1.13497 1.39588 1.03003)
(0.884802 1.39024 1.03657)
(0.933645 1.4022 1.03689)
(1.03477 1.40693 1.03442)
(0.982505 1.40649 1.03708)
(0.957035 1.39377 1.0671)
(1.08432 1.40463 1.02954)
(0.956824 1.23942 0.823582)
(1.15566 1.3534 0.880315)
(0.946847 1.38059 0.913007)
(1.03914 1.23673 0.797728)
(0.954765 1.33356 0.869937)
(1.06379 1.36784 0.879431)
(0.892461 1.27058 0.857541)
(1.02349 1.31114 0.842235)
(0.862854 1.33315 0.889883)
(1.09769 1.31443 0.839347)
(1.14818 1.39027 0.938304)
(0.99358 1.15586 0.780331)
(1.03471 1.40443 0.943987)
(0.858996 1.37514 0.947654)
(0.820708 1.32543 0.909758)
(0.836323 1.30459 0.890374)
(0.813845 1.35725 0.976202)
(0.819411 1.34667 0.93708)
(0.8598 1.3545 0.915172)
(0.877662 1.30399 0.879389)
(0.85071 1.274 0.87496)
(0.87745 1.24114 0.851163)
(0.9439 1.18247 0.815703)
(0.976104 1.19602 0.806059)
(0.964233 1.1421 0.799702)
(1.01548 1.19429 0.786761)
(0.998652 1.23528 0.81323)
(0.989959 1.32239 0.858892)
(0.989446 1.27655 0.836114)
(0.957072 1.29072 0.855745)
(1.03122 1.2756 0.824791)
(0.912319 1.22271 0.834131)
(0.925795 1.25466 0.842457)
(0.925073 1.30287 0.867847)
(0.859858 1.38212 0.9761)
(0.909969 1.33312 0.883679)
(0.906448 1.35692 0.901325)
(0.951706 1.35752 0.890705)
(0.902858 1.37766 0.930606)
(0.98793 1.10962 0.768138)
(1.02207 1.15059 0.759924)
(1.04626 1.19154 0.770717)
(1.08418 1.34185 0.862458)
(1.06037 1.31333 0.84198)
(1.04547 1.34093 0.8611)
(1.06717 1.27902 0.820639)
(1.00886 1.35124 0.875)
(1.12828 1.33401 0.859619)
(1.1115 1.36008 0.882775)
(1.17361 1.32747 0.862621)
(1.14299 1.30835 0.840428)
(1.11027 1.27691 0.816202)
(1.08057 1.23822 0.790864)
(1.10674 1.38021 0.909018)
(1.15137 1.37283 0.909534)
(1.18787 1.3689 0.926976)
(1.19282 1.34911 0.896181)
(0.909356 1.3934 0.977611)