/*--------------------------------*- C++ -*----------------------------------*\
| =========                 |                                                 |
| \\      /  F ield         | OpenFOAM: The Open Source CFD Toolbox           |
|  \\    /   O peration     | Version:  v1806                                 |
|   \\  /    A nd           | Web:      www.OpenFOAM.com                      |
|    \\/     M anipulation  |                                                 |
\*---------------------------------------------------------------------------*/
FoamFile
{
    version     2.0;
    format      ascii;
    class       vectorField;
    location    "0.0455";
    object      currentcloudofpoints;
}
// * * * * * * * * * * * * * * * * * * * * * * * * * * * * * * * * * * * * * //


2409
(
(0.757138 1.31564 1.00091)
(0.799479 0.846633 0.999773)
(1.22742 1.35624 0.999574)
(0.989765 1.06296 0.743365)
(0.992768 1.06349 1.25746)
(1.08479 1.09418 1.00009)
(0.635017 1.42771 0.999583)
(0.689542 0.683316 1.00106)
(1.33209 1.53263 0.999894)
(0.993286 1.06889 0.566828)
(0.985534 1.07381 1.42583)
(1.21686 1.34001 1.0862)
(1.18408 1.29883 1.16079)
(1.12984 1.239 1.21931)
(1.06196 1.15462 1.26178)
(1.22268 1.34955 1.04322)
(1.20182 1.31942 1.12397)
(1.15766 1.26946 1.18937)
(1.09531 1.20016 1.24162)
(1.02828 1.10584 1.26549)
(0.812862 0.85483 1.05094)
(0.846942 0.882109 1.10085)
(0.891792 0.929382 1.1554)
(0.941314 0.992833 1.20572)
(0.805981 0.851435 1.02492)
(0.831418 0.868638 1.07331)
(0.870549 0.904441 1.12695)
(0.919239 0.961055 1.17681)
(0.965223 1.02843 1.23001)
(1.21604 1.34004 0.912888)
(1.18257 1.29859 0.838968)
(1.12819 1.2377 0.782)
(1.06126 1.1523 0.739541)
(1.22247 1.34928 0.95581)
(1.20049 1.31959 0.875508)
(1.15599 1.26893 0.810855)
(1.0946 1.19776 0.760171)
(1.02527 1.10466 0.736131)
(0.941953 0.991808 0.794223)
(0.892197 0.928574 0.844789)
(0.843963 0.882399 0.897648)
(0.813691 0.855662 0.94868)
(0.965017 1.02773 0.770182)
(0.919558 0.959735 0.822705)
(0.869216 0.904044 0.872746)
(0.829748 0.869197 0.925422)
(0.807824 0.852352 0.974837)
(0.936803 1.12074 1.20513)
(0.865131 1.18904 1.16145)
(0.80581 1.24822 1.10819)
(0.769783 1.29421 1.07238)
(0.966681 1.09001 1.2238)
(0.903046 1.15237 1.18375)
(0.834015 1.22094 1.12972)
(0.786247 1.27012 1.08831)
(0.761232 1.30676 1.03868)
(0.77054 1.29452 0.929118)
(0.804691 1.24967 0.889167)
(0.863761 1.18938 0.837917)
(0.934131 1.12033 0.797443)
(0.761825 1.30611 0.963467)
(0.786403 1.27182 0.910012)
(0.832534 1.22108 0.869716)
(0.900909 1.15328 0.815714)
(0.963977 1.0889 0.778669)
(0.731838 0.956737 0.999907)
(0.687847 1.05633 0.999607)
(0.674407 1.14925 0.99991)
(0.697534 1.242 0.999687)
(0.770334 0.903776 1.00061)
(0.713463 1.00817 0.999073)
(0.682716 1.10174 0.999961)
(0.683713 1.19506 0.999722)
(0.726012 1.2788 1.00019)
(0.838903 1.36974 1.00234)
(0.934572 1.39988 1.00325)
(1.03814 1.40638 1.00031)
(1.14262 1.39548 0.999395)
(0.796886 1.34141 1.00134)
(0.886556 1.38475 1.0033)
(0.985782 1.40206 1.00166)
(1.09311 1.39975 0.999607)
(1.18598 1.38057 0.999389)
(0.703627 0.697836 1.111)
(0.728953 0.721694 1.212)
(0.762336 0.752101 1.28358)
(0.797711 0.794325 1.33468)
(0.843775 0.847123 1.36665)
(0.887581 0.914461 1.40124)
(0.941856 0.991998 1.42237)
(0.693209 0.691224 1.05675)
(0.717264 0.708593 1.163)
(0.745816 0.738993 1.25004)
(0.780901 0.772258 1.30955)
(0.821051 0.820894 1.35028)
(0.866249 0.878757 1.38214)
(0.916785 0.953411 1.41028)
(0.966373 1.03288 1.42458)
(1.04562 1.14482 1.4274)
(1.11765 1.21461 1.40372)
(1.18133 1.28573 1.36883)
(1.233 1.35629 1.32253)
(1.28154 1.41981 1.25586)
(1.30934 1.47958 1.17775)
(1.32653 1.51989 1.09186)
(1.01194 1.11053 1.4263)
(1.08215 1.17928 1.41574)
(1.1525 1.24836 1.38481)
(1.20659 1.32119 1.34566)
(1.25854 1.38642 1.29014)
(1.29646 1.44935 1.21642)
(1.31872 1.50038 1.13547)
(1.32987 1.52702 1.0462)
(0.703334 0.695741 0.887669)
(0.729161 0.721204 0.788066)
(0.760901 0.749529 0.71358)
(0.794149 0.792894 0.663913)
(0.839692 0.845 0.62928)
(0.886239 0.91396 0.599134)
(0.940631 0.991114 0.577736)
(0.695256 0.687046 0.944148)
(0.71578 0.71099 0.836518)
(0.746536 0.734786 0.747945)
(0.777802 0.771913 0.68837)
(0.817826 0.818383 0.647876)
(0.862647 0.877871 0.614407)
(0.915602 0.952774 0.591391)
(0.968706 1.02977 0.571357)
(1.32629 1.51997 0.908162)
(1.30959 1.48013 0.822198)
(1.28159 1.41959 0.74429)
(1.23352 1.35569 0.677472)
(1.18184 1.28588 0.629913)
(1.11753 1.21546 0.596713)
(1.05036 1.14352 0.573566)
(1.32961 1.52699 0.953654)
(1.31872 1.50075 0.864603)
(1.29672 1.4497 0.783496)
(1.25876 1.38579 0.710199)
(1.20725 1.32087 0.653615)
(1.15262 1.249 0.614358)
(1.08273 1.17948 0.58656)
(1.02105 1.10696 0.569375)
(0.640497 1.42067 1.1035)
(0.656074 1.40149 1.19995)
(0.68978 1.36476 1.28759)
(0.74778 1.31064 1.35106)
(0.80686 1.25674 1.37407)
(0.865191 1.20189 1.39537)
(0.924925 1.1446 1.40269)
(0.63751 1.4255 1.05339)
(0.650144 1.4114 1.15549)
(0.672579 1.38418 1.24714)
(0.720658 1.33705 1.3239)
(0.778375 1.28306 1.36495)
(0.837766 1.22967 1.37898)
(0.892138 1.17324 1.39981)
(0.958321 1.11205 1.415)
(0.642046 1.41966 0.895635)
(0.653283 1.40296 0.803146)
(0.694235 1.36339 0.711927)
(0.745092 1.31191 0.646758)
(0.808646 1.25644 0.628534)
(0.865279 1.20278 0.610435)
(0.933801 1.14159 0.589767)
(0.640768 1.42362 0.945258)
(0.647658 1.41237 0.846223)
(0.674328 1.38398 0.753581)
(0.720754 1.33755 0.675764)
(0.778439 1.28304 0.634693)
(0.839396 1.2299 0.624292)
(0.893725 1.17225 0.602925)
(0.96911 1.10775 0.572431)
(0.617816 0.760674 1.00082)
(0.570649 0.837545 0.999914)
(0.536918 0.923815 0.99981)
(0.518454 1.02032 1.00004)
(0.516735 1.12132 0.999975)
(0.528741 1.22271 0.999751)
(0.568537 1.32562 0.999639)
(0.650919 0.724905 1.00099)
(0.592814 0.799283 1.00042)
(0.554426 0.879768 0.999597)
(0.526241 0.971097 0.999934)
(0.517131 1.07 0.999976)
(0.52215 1.17157 0.999832)
(0.546412 1.27372 0.999735)
(0.600806 1.37698 0.999605)
(0.713966 1.51184 0.999267)
(0.795808 1.5717 0.999689)
(0.88809 1.61026 1.0003)
(0.987824 1.62339 1.00072)
(1.07703 1.61622 1.00026)
(1.15601 1.59859 0.999772)
(1.23984 1.5715 0.999934)
(0.676247 1.47206 0.99953)
(0.757208 1.54356 0.999402)
(0.843427 1.59234 0.999917)
(0.940555 1.61769 1.00057)
(1.03484 1.61907 1.00057)
(1.11631 1.60428 0.999878)
(1.19614 1.58416 0.999838)
(1.28573 1.55086 0.999908)
(0.978743 1.07173 0.663192)
(0.992555 1.07025 0.607445)
(0.981651 1.06514 0.704833)
(0.984255 1.06855 1.33827)
(0.988256 1.06319 1.29813)
(0.98722 1.07222 1.38711)
(0.730923 0.775601 0.998358)
(0.763333 0.812387 0.998541)
(0.702088 0.722287 1.00027)
(1.28458 1.43175 0.99969)
(1.2535 1.39265 0.999713)
(1.31431 1.47864 0.999706)
(0.873635 1.51291 1.25866)
(0.885192 1.57331 1.17173)
(0.991218 1.3239 1.39671)
(1.07324 1.58524 1.15764)
(0.746285 1.53058 1.08317)
(1.02843 1.24294 1.42075)
(1.23146 1.54889 1.13644)
(1.14935 1.54342 1.21725)
(0.782051 1.52563 1.17753)
(0.977366 1.56578 1.21483)
(0.965381 1.60489 1.11397)
(0.776746 1.43215 1.2967)
(1.05711 1.51578 1.2753)
(1.14723 1.58034 1.13046)
(0.969372 1.48158 1.31452)
(1.18823 1.58459 1.06508)
(1.08031 1.31278 1.40366)
(1.11542 1.59981 1.07324)
(0.699765 1.47888 1.13489)
(0.940052 1.23221 1.39902)
(0.893591 1.31799 1.38529)
(1.04207 1.4145 1.35939)
(1.22066 1.48587 1.23973)
(0.854537 1.58847 1.08312)
(0.712689 1.45191 1.21839)
(0.957563 1.39371 1.3693)
(1.19758 1.42306 1.30697)
(1.13366 1.46842 1.30519)
(0.685684 1.48316 1.06406)
(0.985515 1.17403 1.41994)
(1.2638 1.55739 1.05943)
(0.881187 1.42547 1.34123)
(0.820371 1.34904 1.36281)
(1.14139 1.38071 1.35619)
(0.924155 1.613 1.04979)
(1.04619 1.61069 1.07024)
(1.03191 1.19607 1.4262)
(1.06598 1.22858 1.41816)
(0.982522 1.1252 1.42289)
(1.01049 1.16103 1.42853)
(1.00698 1.20905 1.41989)
(1.0974 1.26345 1.40434)
(1.12985 1.29707 1.38442)
(1.05618 1.27746 1.41308)
(1.16109 1.33275 1.36068)
(1.18671 1.36747 1.33672)
(1.1109 1.34538 1.37972)
(1.215 1.38874 1.31321)
(1.24008 1.41871 1.27892)
(1.16891 1.40225 1.33232)
(1.25232 1.4506 1.24553)
(1.26301 1.48034 1.20661)
(1.21254 1.45233 1.27343)
(1.27022 1.51359 1.15811)
(1.27779 1.53249 1.11389)
(1.22559 1.51894 1.19062)
(1.29531 1.53888 1.0757)
(1.29881 1.54447 1.02981)
(1.247 1.55299 1.09796)
(1.25192 1.5643 1.02979)
(0.774834 1.55207 1.04127)
(0.731387 1.52249 1.04305)
(0.716803 1.50801 1.07476)
(0.700662 1.49844 1.03172)
(0.661434 1.45699 1.0345)
(0.874111 1.59927 1.04188)
(0.82834 1.58038 1.04293)
(0.803656 1.56074 1.08509)
(0.957818 1.61788 1.02582)
(0.907082 1.6119 1.0253)
(0.890629 1.60149 1.06648)
(1.06168 1.61235 1.03542)
(1.01881 1.61594 1.03548)
(0.990034 1.61102 1.06128)
(1.13511 1.59769 1.03698)
(1.09618 1.60561 1.03657)
(1.08146 1.6034 1.07227)
(1.21343 1.57737 1.03328)
(1.17175 1.5909 1.03212)
(1.15067 1.59049 1.06965)
(1.22436 1.56992 1.06327)
(0.828423 1.52063 1.22073)
(0.834764 1.55016 1.17677)
(0.879089 1.54466 1.21588)
(0.932506 1.57052 1.19435)
(0.925999 1.54115 1.2377)
(0.821779 1.5594 1.13108)
(0.871494 1.58206 1.12737)
(0.927212 1.59123 1.14264)
(0.972963 1.58694 1.16472)
(0.911793 1.5987 1.09886)
(1.015 1.28469 1.40333)
(1.03842 1.32021 1.39974)
(0.989621 1.23982 1.40475)
(0.967046 1.27923 1.39577)
(1.01793 1.36738 1.38038)
(1.06193 1.3634 1.38211)
(0.942269 1.32217 1.38969)
(0.916494 1.27586 1.39178)
(0.974603 1.35742 1.38356)
(0.926232 1.35558 1.37839)
(1.00078 1.40418 1.36354)
(1.05971 1.59652 1.11424)
(1.0941 1.59061 1.11626)
(1.02285 1.59279 1.13832)
(1.00848 1.60592 1.09376)
(1.10309 1.5259 1.24868)
(1.06623 1.5527 1.21868)
(1.11018 1.56368 1.18821)
(1.11001 1.58065 1.14511)
(1.14878 1.56297 1.17437)
(1.13064 1.58933 1.10157)
(1.02919 1.57383 1.18843)
(1.01883 1.54108 1.24658)
(0.742053 1.50332 1.15864)
(0.723825 1.50597 1.10923)
(0.766227 1.52885 1.1323)
(0.693748 1.48127 1.1009)
(0.671244 1.45067 1.12186)
(0.678922 1.44094 1.16994)
(0.663334 1.45295 1.08465)
(0.684775 1.42704 1.21103)
(0.701015 1.40869 1.25658)
(0.7071 1.46613 1.1786)
(0.734054 1.39864 1.2945)
(0.763468 1.36954 1.32955)
(0.744268 1.44356 1.26018)
(0.813866 1.30196 1.36977)
(0.78434 1.33014 1.35697)
(0.8007 1.38907 1.33564)
(0.850144 1.2881 1.37681)
(0.878438 1.26119 1.38546)
(0.858032 1.33284 1.37288)
(0.899865 1.21747 1.39778)
(0.930984 1.18915 1.39878)
(0.956681 1.16094 1.40801)
(0.96608 1.20456 1.40392)
(0.827204 1.47209 1.28082)
(0.878785 1.46921 1.3039)
(0.831022 1.42856 1.3211)
(0.926726 1.45326 1.32922)
(0.923995 1.49719 1.2889)
(0.780775 1.4806 1.24185)
(0.972757 1.52504 1.26666)
(1.209 1.56679 1.10146)
(0.851131 1.38692 1.35334)
(0.888801 1.3688 1.36667)
(0.921055 1.40948 1.35587)
(0.964185 1.43674 1.34557)
(0.946206 1.60845 1.08175)
(1.18794 1.56398 1.13592)
(1.1899 1.54463 1.17943)
(1.18407 1.51451 1.23315)
(1.16683 1.58088 1.09847)
(1.14191 1.50431 1.26398)
(1.09429 1.49064 1.29154)
(1.17913 1.47494 1.27516)
(0.748772 1.48954 1.19998)
(1.01416 1.49939 1.29475)
(1.0075 1.44712 1.33896)
(1.05087 1.46428 1.32157)
(1.08737 1.44073 1.33319)
(1.09205 1.39712 1.35936)
(1.13871 1.42403 1.33315)
(1.16618 1.44528 1.30858)
(0.643754 1.05531 1.33173)
(0.555382 1.14213 1.19841)
(0.590989 0.907428 1.18839)
(0.624808 0.846317 1.19758)
(0.585382 1.1873 1.25872)
(0.708968 1.11331 1.35991)
(0.661382 0.768411 1.16582)
(0.603578 1.34455 1.15866)
(0.850576 1.01619 1.39486)
(0.586833 1.10363 1.26897)
(0.645992 0.895832 1.28016)
(0.560281 1.24169 1.16565)
(0.649334 1.16344 1.33202)
(0.78443 0.94608 1.36969)
(0.724872 1.21899 1.35978)
(0.652506 1.25249 1.31556)
(0.68352 0.809895 1.24982)
(0.849998 1.11295 1.39616)
(0.596186 0.826254 1.10736)
(0.527943 1.11737 1.10984)
(0.774552 1.05818 1.37371)
(0.610088 1.29568 1.23928)
(0.788783 1.16858 1.37292)
(0.530703 1.02089 1.10126)
(0.709428 0.922316 1.33594)
(0.723587 0.839799 1.31272)
(0.593877 0.995693 1.25763)
(0.653286 0.969571 1.32292)
(0.767208 0.869898 1.34932)
(0.70554 1.00968 1.35332)
(0.558458 0.987803 1.1638)
(0.557265 1.06228 1.19042)
(0.645065 0.745873 1.08006)
(0.914921 1.07001 1.4081)
(0.548956 0.92798 1.08341)
(0.570698 1.31661 1.07529)
(0.530575 1.20297 1.07235)
(0.626145 0.800308 1.13728)
(0.610173 0.837346 1.15507)
(0.641952 0.808768 1.18195)
(0.652573 0.758685 1.12402)
(0.618366 0.787614 1.09436)
(0.654027 0.828566 1.2242)
(0.6734 0.789209 1.20994)
(0.681632 0.73439 1.13949)
(0.695657 0.745735 1.18921)
(0.673352 0.723745 1.09586)
(0.706546 0.767698 1.23205)
(0.874954 0.965831 1.39868)
(0.904694 1.0054 1.40757)
(0.816134 0.898036 1.36895)
(0.839609 0.928643 1.38362)
(0.817025 0.978921 1.38059)
(0.931608 1.03161 1.41679)
(0.953707 1.07379 1.41892)
(0.884818 1.04267 1.40146)
(0.557708 1.19139 1.18506)
(0.575948 1.21478 1.21838)
(0.572168 1.16471 1.23153)
(0.587596 1.26885 1.20765)
(0.598975 1.24049 1.2534)
(0.617937 1.1758 1.29991)
(0.618615 1.22039 1.29034)
(0.652613 1.20706 1.32501)
(0.587393 1.14501 1.26551)
(0.616944 1.13372 1.30374)
(0.630471 1.27498 1.2817)
(0.574401 1.12293 1.23736)
(0.608072 0.876593 1.19352)
(0.59314 0.86749 1.14966)
(0.571813 0.878093 1.09533)
(0.569556 0.918438 1.13868)
(0.581732 0.832164 1.05392)
(0.604285 0.793152 1.05508)
(0.629298 0.75312 1.04079)
(0.559451 0.882836 1.04155)
(0.581851 1.29246 1.16634)
(0.608012 1.32046 1.20302)
(0.565314 1.27922 1.12396)
(0.588507 1.33101 1.11984)
(0.542595 1.17317 1.14119)
(0.545586 1.2231 1.12219)
(0.548653 1.25946 1.07606)
(0.688165 1.19127 1.34674)
(0.691028 1.23507 1.34129)
(0.717945 1.16645 1.3572)
(0.681239 1.13849 1.34789)
(0.647879 1.10962 1.33137)
(0.677458 1.08438 1.34704)
(0.615047 1.07955 1.30466)
(0.806878 0.858846 1.35874)
(0.776975 0.908599 1.35888)
(0.77751 1.00097 1.36935)
(0.811208 1.03662 1.38101)
(0.744403 0.978736 1.35806)
(0.739755 1.03363 1.36302)
(0.747091 0.935148 1.35167)
(0.737645 0.897409 1.34063)
(0.707277 0.965846 1.3431)
(0.736971 1.26394 1.35608)
(0.702298 1.28146 1.33442)
(0.766318 1.23823 1.36569)
(0.79789 1.21268 1.37129)
(0.757798 1.19388 1.3644)
(0.749059 1.14084 1.36417)
(0.673203 1.3067 1.30591)
(0.650758 1.33008 1.26775)
(0.88619 1.12835 1.40011)
(0.85807 1.15776 1.396)
(0.822105 1.14083 1.38216)
(0.828804 1.18497 1.38148)
(0.918594 1.10766 1.40368)
(0.878846 1.09134 1.39961)
(0.847462 1.06472 1.39287)
(0.813923 1.08476 1.38138)
(0.782096 1.1141 1.37116)
(0.620632 0.902799 1.23686)
(0.637539 0.872526 1.24005)
(0.594991 0.952203 1.22431)
(0.619334 0.945473 1.27065)
(0.552553 0.957374 1.12473)
(0.574738 0.947734 1.1765)
(0.579519 0.993271 1.21329)
(0.665405 0.854425 1.26434)
(0.631059 1.37301 1.18287)
(0.622659 1.3822 1.13336)
(0.606277 1.36872 1.09378)
(0.600789 1.37248 1.03858)
(0.63412 1.34742 1.22485)
(0.706338 1.06158 1.35581)
(0.675963 1.03302 1.34342)
(0.616153 1.02525 1.29978)
(0.591775 1.04948 1.26506)
(0.648456 1.01243 1.32725)
(0.620844 0.983046 1.295)
(0.680358 0.990027 1.33812)
(0.664524 0.715703 1.04083)
(0.542498 0.925488 1.04146)
(0.530835 0.971977 1.04196)
(0.521117 1.11823 1.05447)
(0.521708 1.06713 1.05488)
(0.523375 1.01927 1.04995)
(0.53914 0.973607 1.09297)
(0.529044 1.06843 1.10685)
(0.5292 1.21242 1.03595)
(0.522622 1.16142 1.036)
(0.528959 1.15994 1.0924)
(0.569208 1.32112 1.03804)
(0.547681 1.26951 1.03867)
(0.722748 0.784319 1.26786)
(0.761698 0.81746 1.32468)
(0.744151 0.797229 1.29896)
(0.703898 0.826524 1.28307)
(0.783281 0.83249 1.34291)
(0.745733 0.854796 1.33114)
(0.742136 1.08641 1.36511)
(0.683515 0.870197 1.29596)
(0.557176 1.10202 1.1961)
(0.575681 1.08342 1.23324)
(0.579039 1.02926 1.22629)
(0.716275 0.881827 1.32372)
(0.676502 0.909008 1.31096)
(0.648763 0.932238 1.30301)
(0.681685 0.946207 1.32876)
(0.541592 1.08985 1.15369)
(0.541935 1.13038 1.15719)
(0.544147 1.00422 1.13418)
(0.543913 1.04185 1.14852)
(0.558484 1.02483 1.17803)
(0.628773 0.954918 0.706287)
(0.617042 1.15819 0.695227)
(0.62526 0.902403 0.749599)
(0.620316 0.850762 0.811122)
(0.552641 1.1982 0.828222)
(0.754346 1.07158 0.631962)
(0.579352 1.2933 0.829866)
(0.840084 1.10861 0.609992)
(0.598884 0.981585 0.746112)
(0.57155 1.13358 0.76327)
(0.735687 0.918687 0.659191)
(0.656566 1.25246 0.681794)
(0.680795 1.106 0.65004)
(0.605216 1.05197 0.706511)
(0.712879 1.01936 0.648605)
(0.58686 1.22386 0.7552)
(0.771148 1.16233 0.629539)
(0.671877 0.811073 0.756591)
(0.849985 1.01539 0.604614)
(0.656109 0.770587 0.844805)
(0.550834 0.894553 0.930712)
(0.531329 1.10652 0.876146)
(0.534065 0.987481 0.898727)
(0.593952 0.818406 0.906308)
(0.624916 1.30762 0.748566)
(0.566588 1.03458 0.794835)
(0.685191 0.873981 0.693203)
(0.578541 0.925213 0.829341)
(0.714168 1.21196 0.639283)
(0.538516 1.23438 0.921455)
(0.784644 0.961488 0.628478)
(0.644241 0.742493 0.926189)
(0.593887 1.353 0.900184)
(0.661656 0.986602 0.667524)
(0.661945 1.18249 0.660378)
(0.9157 1.06738 0.587668)
(0.602378 1.01662 0.724706)
(0.617565 1.00338 0.705208)
(0.614486 0.968359 0.724985)
(0.627957 0.928836 0.726981)
(0.613182 0.941871 0.747335)
(0.643177 0.970397 0.684858)
(0.63214 1.0199 0.684409)
(0.65384 0.888432 0.717892)
(0.656543 0.91453 0.698721)
(0.673544 0.930232 0.680852)
(0.802201 1.0434 0.622759)
(0.799245 1.08922 0.624455)
(0.842524 1.06214 0.608749)
(0.76196 1.11709 0.631916)
(0.808022 1.13597 0.624336)
(0.816771 0.986431 0.616316)
(0.769655 1.01659 0.633358)
(0.733856 1.04528 0.640758)
(0.696801 1.06314 0.651077)
(0.718607 1.08919 0.642377)
(0.725657 1.1341 0.639947)
(0.749814 0.99142 0.642779)
(0.92461 1.10448 0.588484)
(0.959756 1.06975 0.572138)
(0.930964 1.02991 0.581407)
(0.584636 1.25883 0.788357)
(0.570866 1.21149 0.78803)
(0.566466 1.24495 0.8258)
(0.606794 1.26514 0.749112)
(0.603203 1.30156 0.785528)
(0.560636 1.26419 0.870488)
(0.546708 1.21662 0.872216)
(0.640044 1.35473 0.771521)
(0.617897 1.34789 0.809154)
(0.586225 1.32329 0.862305)
(0.625881 1.37932 0.844376)
(0.564524 1.2931 0.906833)
(0.873277 1.08755 0.601306)
(0.882757 1.04139 0.59834)
(0.820178 1.18218 0.624984)
(0.852158 1.15591 0.611632)
(0.882664 1.12472 0.601381)
(0.583397 1.00865 0.769447)
(0.587991 1.04433 0.747107)
(0.604492 0.914456 0.787806)
(0.591417 0.954419 0.78554)
(0.573706 0.979977 0.810529)
(0.873355 0.964733 0.602099)
(0.902697 1.00486 0.593506)
(0.836572 0.935514 0.613896)
(0.612854 1.10475 0.699933)
(0.591204 1.09301 0.73211)
(0.594387 1.14623 0.726447)
(0.57092 1.08355 0.776484)
(0.579733 1.17805 0.756697)
(0.562983 1.16616 0.791594)
(0.603719 1.19078 0.721341)
(0.553855 1.12177 0.813056)
(0.542948 1.15246 0.848943)
(0.548981 1.07095 0.830805)
(0.688261 1.0034 0.658985)
(0.724416 0.968997 0.656087)
(0.699793 0.953204 0.665043)
(0.761293 0.940396 0.646006)
(0.787595 0.883929 0.646941)
(0.765857 0.858614 0.664325)
(0.711441 0.896978 0.675275)
(0.741866 0.837939 0.683039)
(0.812651 0.904819 0.629663)
(0.637975 1.2048 0.686891)
(0.623251 1.2386 0.714506)
(0.643081 1.27961 0.711094)
(0.701424 1.28264 0.662835)
(0.677952 1.30589 0.69294)
(0.661215 1.3351 0.727186)
(0.685181 1.23237 0.656549)
(0.730508 1.26107 0.642085)
(0.65962 1.21707 0.669579)
(0.640454 1.17031 0.676573)
(0.687948 1.19736 0.648724)
(0.650162 1.13276 0.669333)
(0.642822 1.07972 0.674988)
(0.672938 1.04688 0.661433)
(0.744624 1.18712 0.635534)
(0.697435 1.15902 0.64593)
(0.672362 1.14419 0.654759)
(0.790331 1.20953 0.631467)
(0.762362 1.23445 0.635164)
(0.647518 0.857716 0.753335)
(0.645412 0.832171 0.783074)
(0.623478 0.877035 0.779628)
(0.636843 0.81203 0.828091)
(0.664532 0.792566 0.799157)
(0.700605 0.767564 0.771375)
(0.71662 0.781977 0.732916)
(0.691881 0.748577 0.815752)
(0.678737 0.842746 0.7223)
(0.72311 0.815793 0.704499)
(0.535197 1.16972 0.895987)
(0.599639 0.887906 0.820479)
(0.623697 0.796639 0.875772)
(0.60749 0.836385 0.857612)
(0.584722 0.872655 0.867787)
(0.61811 1.38657 0.896065)
(0.615166 1.39008 0.948655)
(0.578844 0.825114 0.952517)
(0.603454 0.787694 0.952388)
(0.629112 0.75094 0.963486)
(0.664969 0.712902 0.963336)
(0.617356 0.781836 0.915878)
(0.542421 0.907456 0.964911)
(0.559665 0.863498 0.964456)
(0.571104 0.855981 0.91826)
(0.523765 1.00115 0.949725)
(0.53186 0.952444 0.949478)
(0.541524 0.940352 0.914626)
(0.522308 1.06127 0.938663)
(0.522389 1.11206 0.938429)
(0.532268 1.0467 0.885805)
(0.532797 1.22826 0.96056)
(0.525928 1.17693 0.960635)
(0.551022 1.27933 0.959192)
(0.581437 1.33941 0.94795)
(0.673214 0.720175 0.906566)
(0.678528 0.734702 0.865362)
(0.64967 0.756573 0.884403)
(0.563785 0.910325 0.87888)
(0.557024 0.955622 0.861741)
(0.551626 1.01268 0.843499)
(0.922975 1.57564 0.819805)
(0.850604 1.52674 0.768708)
(1.15634 1.57059 0.844087)
(0.936288 1.39567 0.629493)
(0.717189 1.49524 0.874632)
(1.24134 1.54494 0.865607)
(1.02761 1.25323 0.576955)
(1.0319 1.36454 0.616011)
(0.813629 1.55821 0.8661)
(0.936469 1.50341 0.713977)
(0.833217 1.4394 0.682368)
(0.922212 1.60675 0.920323)
(1.03214 1.47846 0.68046)
(0.965685 1.31426 0.603266)
(1.02129 1.55534 0.772989)
(0.941196 1.23487 0.598358)
(1.21308 1.50952 0.78183)
(0.897797 1.29497 0.613735)
(0.753149 1.53668 0.935028)
(1.19308 1.58291 0.933644)
(1.0988 1.60458 0.915706)
(1.1147 1.52502 0.746993)
(1.10528 1.32211 0.607056)
(0.749393 1.46987 0.76653)
(0.828474 1.5836 0.944052)
(1.0824 1.58035 0.828669)
(1.15808 1.37692 0.649906)
(1.10103 1.4258 0.6568)
(0.692412 1.48232 0.936167)
(1.26669 1.556 0.94064)
(0.99224 1.17342 0.573944)
(1.00831 1.6003 0.863959)
(1.02212 1.61813 0.939806)
(1.18945 1.4369 0.69901)
(0.751814 1.40136 0.694382)
(0.843272 1.34062 0.630709)
(1.25339 1.56347 0.97018)
(1.30013 1.54387 0.970114)
(1.29659 1.53824 0.924355)
(0.869471 1.56745 0.840376)
(0.832059 1.54476 0.816434)
(0.888054 1.55234 0.793187)
(0.895564 1.51478 0.73913)
(0.931485 1.54162 0.764639)
(0.924119 1.59028 0.870096)
(0.872472 1.58282 0.891419)
(0.980312 1.52891 0.741964)
(0.975005 1.56665 0.794569)
(0.967561 1.58801 0.840874)
(0.967027 1.60221 0.891197)
(1.01587 1.5804 0.818124)
(0.735974 1.52483 0.965541)
(0.776647 1.55543 0.967421)
(0.665517 1.45607 0.965411)
(0.704777 1.49778 0.967855)
(0.724317 1.51057 0.934739)
(0.813407 1.57833 0.971351)
(0.859912 1.59778 0.971939)
(0.792153 1.56154 0.939154)
(0.907063 1.60939 0.95998)
(0.956956 1.61608 0.960024)
(0.877312 1.59636 0.93126)
(1.05087 1.61705 0.969744)
(1.00576 1.62087 0.970088)
(0.974545 1.61246 0.929172)
(1.0882 1.60926 0.95801)
(1.127 1.59833 0.956655)
(1.06195 1.60996 0.927486)
(1.17432 1.58976 0.967137)
(1.21593 1.57625 0.966165)
(1.14439 1.59022 0.923146)
(1.22825 1.56829 0.936203)
(0.991987 1.12203 0.566958)
(0.966841 1.15846 0.582716)
(1.01647 1.15994 0.567388)
(0.685349 1.45053 0.835782)
(0.681399 1.4585 0.881696)
(0.706468 1.48878 0.903471)
(0.668389 1.45141 0.914733)
(0.703063 1.43689 0.780818)
(0.732334 1.48498 0.818835)
(0.785353 1.54818 0.899033)
(0.737374 1.51647 0.904303)
(0.767116 1.52875 0.868232)
(0.783093 1.51717 0.813892)
(1.19733 1.5565 0.852121)
(1.18337 1.54153 0.810138)
(1.22674 1.52762 0.823088)
(1.25956 1.49222 0.803699)
(1.27566 1.51223 0.843423)
(1.2163 1.56445 0.898517)
(1.25368 1.55063 0.903105)
(1.17404 1.57595 0.88793)
(1.28318 1.53101 0.887361)
(0.722316 1.41687 0.735089)
(0.749263 1.35549 0.66723)
(0.723681 1.38237 0.702102)
(0.751027 1.43606 0.727528)
(0.826398 1.29796 0.630383)
(0.795025 1.32634 0.638684)
(0.798769 1.37028 0.65484)
(0.881786 1.24973 0.614208)
(0.854098 1.27619 0.625521)
(0.872208 1.31721 0.624695)
(0.936695 1.18859 0.597383)
(0.900834 1.21902 0.604677)
(0.91818 1.2653 0.606073)
(0.97127 1.20551 0.591033)
(1.03053 1.41763 0.646308)
(0.984761 1.43685 0.653206)
(0.984908 1.37997 0.623919)
(0.951977 1.35288 0.61563)
(1.00016 1.33987 0.609636)
(0.931509 1.30518 0.608569)
(0.91803 1.34367 0.619724)
(0.890635 1.36877 0.631013)
(0.88647 1.47128 0.696411)
(0.887225 1.41656 0.653817)
(0.936827 1.44969 0.666072)
(0.985858 1.4907 0.696077)
(0.838421 1.38864 0.650166)
(0.800815 1.49882 0.76494)
(0.843034 1.48279 0.721996)
(0.792454 1.45549 0.719912)
(1.00083 1.28571 0.595551)
(1.03527 1.30918 0.599108)
(1.06823 1.28704 0.59009)
(1.06941 1.34402 0.610636)
(0.953964 1.2755 0.601092)
(0.989813 1.24628 0.591375)
(1.00951 1.21438 0.577776)
(1.06574 1.23475 0.580439)
(1.1129 1.26871 0.601663)
(1.03374 1.20072 0.57258)
(1.06548 1.39336 0.636612)
(1.06711 1.45134 0.66807)
(1.10202 1.37263 0.630759)
(0.824375 1.57069 0.904624)
(1.0269 1.5156 0.724332)
(0.792695 1.42085 0.687268)
(1.01552 1.60761 0.901787)
(1.0674 1.53732 0.759314)
(1.07496 1.50107 0.712622)
(1.11222 1.47638 0.697016)
(1.09706 1.55154 0.787402)
(1.05246 1.56731 0.800163)
(1.0468 1.59047 0.84582)
(1.15398 1.48179 0.716659)
(1.20474 1.47177 0.739252)
(1.16385 1.51568 0.760377)
(1.23552 1.42495 0.724514)
(1.24915 1.46213 0.764595)
(1.13492 1.54647 0.794315)
(1.1452 1.43113 0.675455)
(1.17349 1.40632 0.674066)
(1.12892 1.40055 0.65154)
(1.21124 1.3945 0.690149)
(1.196 1.36548 0.666186)
(1.12649 1.58702 0.880039)
(1.0906 1.59265 0.872)
(1.05553 1.60045 0.888556)
(1.11883 1.57329 0.8352)
(1.1314 1.34913 0.628358)
(1.14377 1.30313 0.620467)
(1.17077 1.33161 0.641322)
(0.863145 1.02006 1.16508)
(0.760725 0.965923 1.071)
(0.703243 1.09265 1.05268)
(0.858762 1.0997 1.1703)
(0.697117 1.19533 1.05653)
(0.80102 1.07746 1.13404)
(0.821719 0.973222 1.12685)
(0.754576 1.05818 1.08904)
(0.741781 1.15667 1.09278)
(0.91781 1.05633 1.19254)
(0.71746 1.00058 1.03012)
(0.803871 1.15761 1.1328)
(0.744981 1.2242 1.0879)
(0.75582 0.924635 1.03186)
(0.724563 1.26312 1.05193)
(0.738718 1.29042 1.02689)
(0.745993 1.27824 1.06113)
(0.755618 1.25877 1.07917)
(0.774286 1.23512 1.09538)
(0.733349 1.24337 1.071)
(0.795406 0.966637 1.09643)
(0.790461 1.01398 1.10786)
(0.761787 1.01087 1.07895)
(0.739131 1.02929 1.05683)
(0.731631 1.07519 1.06681)
(0.715767 1.04657 1.03867)
(0.740269 0.983416 1.04937)
(0.759131 0.945878 1.05091)
(0.737388 0.963383 1.03053)
(0.83676 0.927811 1.11345)
(0.808587 0.920855 1.0856)
(0.789734 0.911966 1.06095)
(0.786233 0.889668 1.04128)
(0.725427 1.12317 1.06781)
(0.719237 1.17548 1.07266)
(0.699213 1.14232 1.05123)
(0.68372 1.17376 1.0267)
(0.688256 1.12176 1.02772)
(0.741933 1.18985 1.08849)
(0.720709 1.20984 1.07162)
(0.694985 1.21982 1.03)
(0.709383 1.22897 1.05383)
(0.709562 1.25394 1.02605)
(0.90543 1.00488 1.17682)
(0.929679 1.02428 1.19542)
(0.891286 1.03797 1.17727)
(0.955787 1.05868 1.2174)
(0.890457 1.07738 1.18078)
(0.861474 1.06006 1.16699)
(0.927607 1.08897 1.19725)
(0.899211 1.10983 1.18534)
(0.813654 1.0247 1.13087)
(0.779386 1.06669 1.11011)
(0.749689 1.10707 1.08722)
(0.773278 1.11702 1.10832)
(0.725972 0.979124 1.01471)
(0.706071 1.02943 1.01437)
(0.745056 0.941247 1.0156)
(0.698792 1.07551 1.02481)
(0.879756 0.974834 1.15804)
(0.843382 0.996014 1.14598)
(0.833672 1.0475 1.15105)
(0.858969 0.949159 1.13945)
(0.830339 1.08801 1.1526)
(0.862354 1.14329 1.16641)
(0.803075 1.20301 1.11672)
(0.834471 1.17318 1.147)
(0.832357 1.12866 1.1528)
(0.772764 1.18995 1.1005)
(0.780435 0.887219 1.01606)
(0.773279 1.15618 1.10856)
(0.802554 1.11759 1.13306)
(0.849987 1.32288 1.0967)
(1.12308 1.36117 1.11126)
(1.08092 1.39307 1.0595)
(1.06443 1.32231 1.14991)
(0.981621 1.30506 1.15564)
(1.02458 1.22814 1.20426)
(1.02634 1.36221 1.11938)
(0.985604 1.39139 1.06783)
(0.950201 1.21059 1.18883)
(1.16377 1.38237 1.05445)
(0.941418 1.34925 1.11538)
(0.903803 1.28544 1.14019)
(0.886783 1.37483 1.06403)
(0.814321 1.34446 1.05314)
(0.993767 1.14809 1.23397)
(1.03326 1.39233 1.06255)
(1.05383 1.37876 1.08987)
(1.00669 1.37721 1.09327)
(0.96337 1.37066 1.09289)
(0.98429 1.35621 1.1172)
(1.07525 1.36066 1.11318)
(1.09456 1.34187 1.13111)
(1.04693 1.34247 1.13384)
(1.1031 1.37739 1.08542)
(1.02268 1.31327 1.15125)
(1.00487 1.33493 1.1377)
(0.963671 1.32882 1.13482)
(0.79128 1.31903 1.06237)
(0.784275 1.33052 1.02672)
(0.827266 1.28595 1.09933)
(0.808653 1.30734 1.08148)
(0.831067 1.33341 1.07582)
(1.15355 1.33259 1.13366)
(1.17114 1.35474 1.09939)
(1.1442 1.37246 1.08375)
(1.19102 1.3643 1.06992)
(1.19719 1.37334 1.02719)
(1.03937 1.1894 1.23633)
(1.07049 1.23483 1.21538)
(1.0921 1.27993 1.17908)
(1.12241 1.31306 1.15438)
(1.04335 1.27748 1.17183)
(1.0233 1.14788 1.25085)
(0.993565 1.10442 1.24568)
(1.00853 1.18682 1.22082)
(0.90931 1.19896 1.17585)
(0.943976 1.16305 1.19969)
(0.973757 1.17681 1.20823)
(0.966729 1.13301 1.21885)
(0.926997 1.25092 1.16201)
(0.883058 1.23903 1.14834)
(0.988491 1.21602 1.19437)
(0.965007 1.26012 1.16782)
(0.943607 1.29581 1.148)
(1.00387 1.26584 1.17145)
(0.82578 1.35837 1.02839)
(0.854582 1.2671 1.12039)
(0.877349 1.30404 1.11308)
(0.867905 1.34868 1.08144)
(0.850213 1.3593 1.05754)
(0.913367 1.36052 1.0885)
(0.896212 1.33576 1.10271)
(0.924123 1.31838 1.12606)
(1.1538 1.38954 1.02699)
(1.12383 1.38663 1.05663)
(1.11341 1.39442 1.0298)
(0.862302 1.37382 1.03367)
(0.910391 1.38924 1.03454)
(1.01198 1.40011 1.03426)
(0.96001 1.39665 1.03591)
(0.936064 1.38241 1.06523)
(1.06031 1.40046 1.0296)
(0.951375 1.22845 0.816722)
(1.14167 1.35217 0.877937)
(0.926683 1.36822 0.915268)
(1.03539 1.23087 0.790699)
(0.938846 1.32125 0.869711)
(1.04645 1.36138 0.879023)
(0.884387 1.25231 0.854097)
(1.01234 1.30165 0.838563)
(0.847955 1.31296 0.895342)
(1.08612 1.31025 0.833543)
(1.12859 1.38865 0.938532)
(0.993719 1.1507 0.770041)
(1.01291 1.39758 0.943992)
(0.83881 1.35669 0.949409)
(0.807817 1.30327 0.914484)
(0.825718 1.28202 0.894286)
(0.796451 1.33633 0.976359)
(0.803613 1.3254 0.939981)
(0.842517 1.33477 0.920093)
(0.866124 1.28396 0.880752)
(0.843779 1.2514 0.874803)
(0.873161 1.22129 0.846313)
(0.942291 1.17201 0.804154)
(0.974355 1.18799 0.796738)
(0.964886 1.13405 0.785299)
(1.01428 1.18933 0.778679)
(0.995055 1.22677 0.806644)
(0.976711 1.31166 0.856336)
(0.981831 1.2659 0.830678)
(0.946492 1.2785 0.850656)
(1.02456 1.26703 0.819197)
(0.908409 1.2075 0.826247)
(0.918874 1.24015 0.836024)
(0.912584 1.28789 0.865312)
(0.838327 1.36408 0.975675)
(0.894134 1.31662 0.886166)
(0.888274 1.34055 0.905619)
(0.933718 1.34502 0.892496)
(0.88226 1.36188 0.933348)
(0.991122 1.10494 0.7571)
(1.02273 1.14807 0.75232)
(1.04491 1.18899 0.763392)
(1.06932 1.33654 0.859511)
(1.04913 1.30598 0.837234)
(1.03094 1.33303 0.859299)
(1.05982 1.27297 0.813975)
(0.993254 1.34172 0.874546)
(1.11518 1.3318 0.855427)
(1.09519 1.35644 0.880734)
(1.16228 1.32717 0.859189)
(1.13315 1.307 0.834906)
(1.10298 1.27435 0.808861)
(1.07663 1.23519 0.7832)
(1.08774 1.37632 0.908709)
(1.13503 1.3713 0.908626)
(1.17252 1.36847 0.926407)