/*--------------------------------*- C++ -*----------------------------------*\
| =========                 |                                                 |
| \\      /  F ield         | OpenFOAM: The Open Source CFD Toolbox           |
|  \\    /   O peration     | Version:  v1806                                 |
|   \\  /    A nd           | Web:      www.OpenFOAM.com                      |
|    \\/     M anipulation  |                                                 |
\*---------------------------------------------------------------------------*/
FoamFile
{
    version     2.0;
    format      ascii;
    class       volScalarField;
    location    "0.0455";
    object      p;
}
// * * * * * * * * * * * * * * * * * * * * * * * * * * * * * * * * * * * * * //

dimensions      [0 2 -2 0 0 0 0];


internalField   nonuniform List<scalar> 
64000
(
-1.3476e-05
-0.106381
-0.237432
-0.262666
-0.265161
-0.308699
-0.328639
-0.360716
-0.381417
-0.415551
-0.424613
-0.469714
-0.485945
-0.530373
-0.554613
-0.586184
-0.586677
-0.643868
-0.554291
-0.828606
-0.443216
-1.00724
-0.814497
-0.972491
-0.873618
-0.822727
-0.777312
-0.679405
-0.727854
-0.633057
-0.729672
-0.743524
-0.842722
-0.874503
-0.940112
-0.952091
-0.999795
-0.993827
-1.01856
-1.01283
-0.108872
-0.203768
-0.285128
-0.290087
-0.275667
-0.30579
-0.324261
-0.348802
-0.363314
-0.393877
-0.403018
-0.437352
-0.446506
-0.457782
-0.466375
-0.468717
-0.544639
-0.57756
-0.508664
-0.689451
-0.403106
-0.894035
-0.788277
-0.897749
-0.813973
-0.754524
-0.725732
-0.645005
-0.667655
-0.637866
-0.699383
-0.709225
-0.808524
-0.833871
-0.908476
-0.914174
-0.969778
-0.973302
-1.00872
-1.00846
-0.234097
-0.272771
-0.305907
-0.310865
-0.282567
-0.307679
-0.322077
-0.34217
-0.364916
-0.392981
-0.407876
-0.429454
-0.436084
-0.51357
-0.571051
-0.618944
-0.636166
-0.681579
-0.62875
-0.828619
-0.617868
-1.13139
-1.121
-1.26573
-1.23896
-1.20948
-1.21162
-1.13481
-1.13704
-1.05401
-1.05893
-1.00504
-1.02741
-0.985021
-0.984463
-0.974027
-1.00227
-1.00077
-1.02758
-1.02723
-0.313768
-0.323359
-0.338991
-0.33711
-0.328268
-0.307936
-0.350465
-0.359856
-0.382078
-0.384668
-0.400341
-0.486365
-0.574099
-0.639565
-0.674065
-0.708633
-0.766775
-0.826705
-0.820844
-1.02865
-0.877757
-1.40386
-1.46304
-1.62269
-1.63503
-1.61925
-1.62677
-1.55449
-1.53108
-1.43574
-1.3766
-1.25607
-1.18452
-1.11128
-1.06205
-1.01269
-1.05632
-1.02569
-1.05457
-1.05291
-0.351719
-0.341135
-0.366643
-0.350821
-0.331343
-0.302831
-0.324838
-0.32137
-0.397123
-0.504329
-0.656629
-0.757415
-0.778422
-0.879781
-0.925825
-0.991025
-1.04037
-1.08984
-1.1005
-1.30423
-1.19006
-1.6918
-1.80484
-1.95481
-1.99888
-1.98404
-1.99732
-1.91703
-1.90047
-1.79478
-1.73203
-1.59927
-1.47568
-1.29589
-1.12492
-1.09349
-1.10281
-1.08248
-1.09876
-1.0934
-0.396682
-0.395103
-0.402301
-0.436153
-0.472259
-0.44324
-0.503237
-0.63884
-0.810493
-0.901001
-0.949467
-1.00156
-1.04274
-1.08631
-1.1257
-1.16251
-1.19041
-1.2822
-1.30306
-1.4847
-1.3933
-1.91423
-2.01424
-2.16076
-2.19115
-2.17946
-2.17965
-2.12099
-2.08088
-2.00183
-1.91248
-1.80856
-1.6786
-1.60906
-1.33171
-1.18465
-1.18881
-1.13292
-1.14879
-1.14383
-0.451542
-0.465772
-0.463929
-0.526929
-0.616241
-0.642013
-0.908593
-0.913096
-1.04123
-1.10177
-1.18427
-1.24627
-1.29495
-1.3524
-1.38207
-1.40593
-1.43407
-1.42013
-1.45527
-1.57581
-1.5654
-1.83007
-2.15708
-2.22927
-2.30868
-2.28871
-2.30336
-2.25933
-2.23896
-2.16746
-2.07709
-1.95387
-1.82161
-1.67973
-1.4503
-1.23766
-1.22499
-1.17557
-1.19774
-1.19079
-0.472391
-0.480965
-0.515853
-0.618543
-0.707749
-0.854993
-1.0398
-1.10585
-1.23435
-1.31227
-1.3856
-1.45012
-1.49753
-1.53421
-1.5721
-1.57974
-1.595
-1.57221
-1.54865
-1.66952
-1.70816
-1.72117
-2.14387
-2.25301
-2.34143
-2.35067
-2.37285
-2.35623
-2.34908
-2.28881
-2.21487
-2.09033
-1.96321
-1.79704
-1.63962
-1.32265
-1.28927
-1.23425
-1.24539
-1.24895
-0.562177
-0.524059
-0.57743
-0.693696
-0.814532
-1.04499
-1.16784
-1.26278
-1.36975
-1.46855
-1.55317
-1.62407
-1.68259
-1.73133
-1.77139
-1.78453
-1.78782
-1.7439
-1.65221
-1.73211
-1.76822
-1.65266
-1.89493
-2.24022
-2.32722
-2.3981
-2.42282
-2.43603
-2.44866
-2.40458
-2.32425
-2.20358
-2.07126
-1.88122
-1.73683
-1.4312
-1.32402
-1.29151
-1.28997
-1.3035
-0.565154
-0.560298
-0.641616
-0.771707
-0.990327
-1.15425
-1.29583
-1.3893
-1.4986
-1.5835
-1.69664
-1.75597
-1.8133
-1.85804
-1.89902
-1.92007
-1.94201
-1.85677
-1.84208
-1.80442
-1.7791
-1.59344
-1.51462
-2.09455
-2.30581
-2.40229
-2.48308
-2.49953
-2.53695
-2.48718
-2.45067
-2.32049
-2.18752
-2.01551
-1.85218
-1.59263
-1.39923
-1.36854
-1.3498
-1.37241
-0.639471
-0.626694
-0.714609
-0.906264
-1.1044
-1.27101
-1.40691
-1.51307
-1.6161
-1.71317
-1.77942
-1.84557
-1.92507
-1.95567
-1.99321
-2.01815
-2.0253
-1.92248
-1.97123
-1.79337
-1.59378
-1.32932
-1.15976
-1.76344
-2.2919
-2.45249
-2.53274
-2.57569
-2.59153
-2.58863
-2.51802
-2.42808
-2.27476
-2.09315
-1.91027
-1.71765
-1.4722
-1.42434
-1.40731
-1.43364
-0.677965
-0.6754
-0.804968
-0.996743
-1.19294
-1.35598
-1.49304
-1.60306
-1.70798
-1.78307
-1.85831
-1.91869
-1.95439
-2.01072
-2.02636
-2.07854
-2.08419
-2.01555
-2.09891
-1.75946
-1.2628
-0.95591
-0.922094
-1.46328
-2.13725
-2.44248
-2.56834
-2.63044
-2.65411
-2.65265
-2.62366
-2.50927
-2.39294
-2.22266
-2.02427
-1.83299
-1.57532
-1.50175
-1.47467
-1.50212
-0.774382
-0.782262
-0.90535
-1.08662
-1.27513
-1.44133
-1.57795
-1.68375
-1.77936
-1.84973
-1.90541
-1.94673
-1.98469
-2.00998
-2.04054
-2.12143
-2.08431
-2.12013
-2.06339
-1.52039
-1.15733
-0.926303
-0.853068
-1.29818
-1.93912
-2.57402
-2.6275
-2.72471
-2.72507
-2.73338
-2.67783
-2.63073
-2.48816
-2.3457
-2.13646
-1.94918
-1.68853
-1.58269
-1.54739
-1.57932
-0.829017
-0.836586
-0.96027
-1.13039
-1.31522
-1.49429
-1.62169
-1.7155
-1.79246
-1.84999
-1.90074
-1.95174
-1.97289
-2.01336
-2.00301
-2.07401
-1.97516
-2.17983
-1.71387
-1.43178
-1.23258
-1.10822
-0.97243
-1.1953
-1.68099
-2.2619
-2.65431
-2.69915
-2.78075
-2.78272
-2.78355
-2.70623
-2.59059
-2.4201
-2.23926
-2.02887
-1.80926
-1.65002
-1.61209
-1.64734
-0.918723
-0.926355
-1.04561
-1.19806
-1.37581
-1.52636
-1.65253
-1.74039
-1.82072
-1.86673
-1.90348
-1.92005
-1.93305
-1.91221
-1.95885
-1.96096
-2.03273
-1.80493
-1.57204
-1.4126
-1.31328
-1.22994
-1.18026
-1.21518
-1.59457
-1.9452
-2.58467
-2.67658
-2.76703
-2.85881
-2.8325
-2.80652
-2.70542
-2.57321
-2.3672
-2.17756
-1.95544
-1.79524
-1.69877
-1.74341
-0.984665
-0.984989
-1.09597
-1.24126
-1.41415
-1.55253
-1.67561
-1.74364
-1.76293
-1.76673
-1.78399
-1.84607
-1.88744
-1.9179
-1.92337
-1.61353
-1.56348
-1.26429
-1.23672
-1.22058
-1.23691
-1.25113
-1.2851
-1.27773
-1.55182
-1.84837
-2.14492
-2.69918
-2.77985
-2.85302
-2.86087
-2.80747
-2.72989
-2.59625
-2.40962
-2.2138
-1.99989
-1.8992
-1.78606
-1.82552
-0.832298
-0.883683
-1.00392
-1.13276
-1.29406
-1.41596
-1.56523
-1.63751
-1.72027
-1.75649
-1.79108
-1.75869
-1.54097
-1.26693
-1.07562
-0.963796
-0.953308
-0.985005
-1.0745
-1.11349
-1.18423
-1.21841
-1.29254
-1.31079
-1.53658
-1.78616
-2.03819
-2.25652
-2.63592
-2.77741
-2.85395
-2.9329
-2.897
-2.78126
-2.61889
-2.41973
-2.19694
-2.02335
-1.87843
-1.89017
-1.08703
-1.01136
-1.06695
-1.15788
-1.31123
-1.42099
-1.54045
-1.59341
-1.43226
-1.1307
-0.878488
-0.723618
-0.678935
-0.707347
-0.771035
-0.806992
-0.849448
-0.892255
-0.95146
-1.04927
-1.10517
-1.16031
-1.24909
-1.28681
-1.489
-1.77577
-1.94065
-2.21878
-2.36193
-2.65451
-2.6466
-2.63407
-2.7082
-2.64319
-2.51928
-2.25932
-2.10034
-2.1137
-2.03378
-2.07452
0.155956
0.0835382
-0.0358416
-0.132016
-0.298805
-0.389306
-0.543801
-0.484844
-0.522207
-0.578278
-0.633164
-0.656227
-0.666187
-0.661526
-0.673973
-0.697074
-0.750991
-0.795112
-0.87518
-0.959229
-1.0733
-1.11357
-1.22199
-1.2639
-1.45429
-1.70647
-1.89368
-1.99969
-2.18255
-2.21971
-2.6026
-2.98431
-2.88696
-2.78389
-2.6732
-2.60134
-2.40631
-2.09482
-1.98659
-1.94562
-0.429139
-0.246873
-0.241306
-0.246276
-0.346962
-0.396702
-0.487595
-0.515302
-0.566624
-0.578309
-0.581138
-0.57674
-0.576356
-0.587471
-0.615361
-0.640001
-0.669777
-0.730364
-0.806131
-0.883186
-1.03291
-1.05496
-1.17627
-1.24927
-1.37471
-1.64893
-1.80492
-2.02706
-2.14258
-2.18564
-2.17449
-2.04726
-2.24024
-2.63825
-2.85073
-2.80653
-2.70145
-2.57079
-2.43529
-2.37051
-0.121904
-0.106443
-0.114793
-0.136433
-0.230573
-0.287489
-0.380475
-0.423064
-0.499301
-0.538749
-0.562242
-0.563151
-0.562277
-0.565456
-0.575067
-0.595503
-0.632706
-0.667818
-0.750708
-0.842198
-0.942721
-1.04505
-1.10242
-1.1757
-1.34936
-1.54993
-1.78483
-1.9536
-2.09951
-2.13686
-2.17845
-2.18916
-2.12628
-1.93481
-1.79576
-1.79246
-1.80345
-1.80618
-1.79367
-1.8592
-0.224099
-0.165691
-0.176941
-0.185524
-0.261191
-0.311658
-0.378334
-0.443854
-0.517845
-0.555472
-0.578744
-0.574419
-0.570852
-0.576202
-0.586837
-0.612084
-0.621409
-0.66537
-0.736735
-0.80684
-0.927744
-1.0061
-1.1265
-1.21752
-1.33702
-1.54802
-1.73356
-1.90432
-2.0385
-2.11384
-2.17702
-2.14778
-2.18496
-2.135
-2.11063
-1.99686
-1.93275
-1.82088
-1.83936
-1.94979
-0.229024
-0.204303
-0.206427
-0.212208
-0.275576
-0.320652
-0.388462
-0.463087
-0.539306
-0.588415
-0.612055
-0.611073
-0.61943
-0.635628
-0.640246
-0.632255
-0.622187
-0.621698
-0.688763
-0.764476
-0.879359
-0.996115
-1.1031
-1.2333
-1.3463
-1.50871
-1.66811
-1.80635
-1.92891
-1.99672
-2.07149
-2.08041
-2.11203
-2.04461
-2.04951
-1.95841
-1.92815
-1.77922
-1.72203
-1.75217
-0.279285
-0.241134
-0.268408
-0.263899
-0.330061
-0.36981
-0.436992
-0.506529
-0.57951
-0.632862
-0.663206
-0.675516
-0.691625
-0.706337
-0.675584
-0.670373
-0.646954
-0.670114
-0.818209
-0.802988
-0.927683
-0.999599
-1.14311
-1.26484
-1.39306
-1.50495
-1.65413
-1.77495
-1.9029
-1.97752
-2.08342
-2.09961
-2.18395
-2.14001
-2.20419
-2.10497
-2.11842
-1.95343
-1.92826
-2.00145
-0.323828
-0.289448
-0.324465
-0.314792
-0.379658
-0.411402
-0.484092
-0.550274
-0.632371
-0.688167
-0.72758
-0.74736
-0.774225
-0.797512
-0.781953
-0.798387
-0.783948
-0.851384
-0.917355
-0.768685
-0.933911
-1.02165
-1.12934
-1.26212
-1.37912
-1.54084
-1.60699
-1.71661
-1.82088
-1.86942
-1.95719
-1.95003
-2.02054
-1.95016
-2.0118
-1.89741
-1.93017
-1.78786
-1.79267
-1.87096
-0.380983
-0.336527
-0.377509
-0.369784
-0.431199
-0.472667
-0.53259
-0.593485
-0.662787
-0.731377
-0.781323
-0.829513
-0.872086
-0.897375
-0.885677
-0.91482
-0.905158
-0.94841
-1.0282
-0.772109
-0.977527
-1.04008
-1.16011
-1.28553
-1.40219
-1.52483
-1.69256
-1.7432
-1.87549
-1.92594
-2.08089
-2.11297
-2.25781
-2.19716
-2.3153
-2.17001
-2.21787
-2.01082
-1.96239
-1.90473
-0.441775
-0.405986
-0.433829
-0.439132
-0.492122
-0.54217
-0.614553
-0.676692
-0.758973
-0.820504
-0.877217
-0.91796
-0.945388
-0.997947
-1.03207
-1.06555
-1.07354
-1.07795
-1.08611
-0.802178
-1.00856
-1.07489
-1.17429
-1.29793
-1.40695
-1.52401
-1.66821
-1.77027
-1.88323
-1.9652
-2.09177
-2.07702
-2.198
-2.12083
-2.27111
-2.14985
-2.28393
-2.11829
-2.19656
-2.17748
-0.483418
-0.457707
-0.448689
-0.484808
-0.525647
-0.583236
-0.625351
-0.722355
-0.80411
-0.879114
-0.948083
-1.01393
-1.05444
-1.10485
-1.10637
-1.16556
-1.19314
-1.12017
-1.21615
-0.810072
-1.03064
-1.06609
-1.16885
-1.29776
-1.39691
-1.49825
-1.684
-1.75651
-1.91915
-1.97724
-2.08427
-2.0252
-2.15697
-2.00399
-2.17948
-1.96677
-2.12819
-1.8735
-1.944
-1.83257
-0.559974
-0.543122
-0.529459
-0.548088
-0.60994
-0.65738
-0.737319
-0.811042
-0.889761
-0.960219
-1.02784
-1.09728
-1.14305
-1.20327
-1.23289
-1.25774
-1.31772
-1.21149
-1.31764
-0.866793
-1.04937
-1.08656
-1.15574
-1.28085
-1.35542
-1.43391
-1.62948
-1.73384
-1.88407
-1.88403
-2.00171
-1.91777
-2.06055
-1.88
-2.05731
-1.80037
-1.95263
-1.62317
-1.64441
-1.52389
-0.575419
-0.560571
-0.54116
-0.53032
-0.618923
-0.641394
-0.742193
-0.817221
-0.904943
-0.979157
-1.05338
-1.12297
-1.18135
-1.23871
-1.26966
-1.29498
-1.32601
-1.23135
-1.34273
-0.858753
-1.01747
-1.05264
-1.12192
-1.22767
-1.30339
-1.25887
-1.84532
-1.67716
-1.9441
-1.88604
-2.0449
-1.88842
-2.08319
-1.81454
-2.07961
-1.69272
-1.91357
-1.46625
-1.48549
-1.30866
-0.672309
-0.661026
-0.653403
-0.618396
-0.702749
-0.750599
-0.838041
-0.908183
-0.993557
-1.06887
-1.13869
-1.21589
-1.26346
-1.32284
-1.37697
-1.34201
-1.4413
-1.29555
-1.4994
-0.968507
-1.05858
-1.05541
-1.09483
-1.18664
-1.24553
-1.15561
-1.97799
-1.6332
-1.96574
-1.84123
-2.03088
-1.86325
-2.04508
-1.74854
-1.98384
-1.57672
-1.79557
-1.27991
-1.25423
-0.950061
-0.645134
-0.621571
-0.636471
-0.561548
-0.616628
-0.692373
-0.775448
-0.846207
-0.938331
-1.01834
-1.11089
-1.18519
-1.26009
-1.32004
-1.35711
-1.33801
-1.47372
-1.28227
-1.5246
-0.969721
-1.02464
-0.997814
-1.02456
-1.11197
-1.19267
-1.02714
-2.05765
-1.61837
-1.99263
-1.81056
-2.06449
-1.78523
-2.10314
-1.65055
-2.01372
-1.39495
-1.74297
-1.05171
-1.03336
-0.539565
-0.76754
-0.768478
-0.747756
-0.73345
-0.696972
-0.810434
-0.877552
-0.937896
-1.01987
-1.10101
-1.18237
-1.27871
-1.34308
-1.38584
-1.4649
-1.42331
-1.58724
-1.3684
-1.62421
-1.03462
-1.0057
-0.96641
-0.977811
-1.04432
-1.16551
-0.872196
-2.14906
-1.59504
-2.13458
-1.79223
-2.12008
-1.76895
-2.08858
-1.65306
-2.0023
-1.35107
-1.63626
-0.868994
-0.73733
-0.0415838
-0.674006
-0.653611
-0.658963
-0.617617
-0.586178
-0.632066
-0.743776
-0.784755
-0.892261
-0.971841
-1.09975
-1.17344
-1.27456
-1.34095
-1.45594
-1.41177
-1.61989
-1.366
-1.64336
-1.01312
-0.900946
-0.856919
-0.86026
-0.895859
-1.09121
-0.702584
-2.1397
-1.61601
-2.13509
-1.76544
-2.15326
-1.68838
-2.1256
-1.4728
-2.01824
-1.12926
-1.54904
-0.402793
-0.347928
0.768531
-0.8373
-0.855228
-0.82221
-0.805275
-0.783931
-0.725717
-0.86634
-0.869202
-0.972059
-1.03953
-1.12367
-1.24269
-1.34197
-1.42181
-1.55174
-1.49237
-1.73174
-1.46188
-1.74193
-1.07213
-0.864678
-0.785329
-0.784502
-0.771919
-1.01976
-0.594877
-2.12337
-1.65901
-2.27014
-1.79856
-2.23404
-1.70081
-2.2111
-1.46067
-2.0504
-1.15317
-1.52913
-0.186933
0.0888601
1.68964
-0.719701
-0.643345
-0.69491
-0.571744
-0.61382
-0.499272
-0.648857
-0.641934
-0.758376
-0.834547
-0.982842
-1.09874
-1.25172
-1.34307
-1.52127
-1.49038
-1.73862
-1.47853
-1.71673
-1.01794
-0.717393
-0.600839
-0.603321
-0.523499
-0.851005
-0.48266
-2.04396
-1.69289
-2.34261
-1.81509
-2.29855
-1.57478
-2.22301
-1.31038
-1.92104
-0.830369
-1.29475
0.548241
0.975345
3.55473
-0.890567
-0.968899
-0.861783
-0.86457
-0.765926
-0.713079
-0.715458
-0.70869
-0.809824
-0.884331
-1.01091
-1.14234
-1.28744
-1.40526
-1.58361
-1.5872
-1.84434
-1.58938
-1.8048
-1.03837
-0.672138
-0.460745
-0.446959
-0.330685
-0.655238
-0.408657
-1.97679
-1.7442
-2.43492
-1.91285
-2.46292
-1.63737
-2.34561
-1.25521
-2.16741
-0.798586
-1.44124
0.945825
1.6873
5.37493
-1.18191
-0.725307
-0.834719
-0.467758
-0.561237
-0.318984
-0.484293
-0.443526
-0.574812
-0.651274
-0.812386
-0.952087
-1.13585
-1.27733
-1.49501
-1.53017
-1.81638
-1.6183
-1.73996
-0.914165
-0.478903
-0.123798
-0.151686
0.0052753
-0.384614
-0.348691
-1.90803
-1.80041
-2.56277
-1.9338
-2.48373
-1.58987
-2.22656
-1.11153
-1.86359
-0.238347
-0.755437
2.13102
3.93418
10.1441
-1.01151
-1.27863
-1.07701
-1.02303
-0.615118
-0.536425
-0.505759
-0.477739
-0.574136
-0.647613
-0.780943
-0.922917
-1.10142
-1.2526
-1.47943
-1.54483
-1.88454
-1.75443
-1.79916
-0.963355
-0.457463
0.0649702
0.106454
0.24718
-0.193814
-0.309924
-1.83645
-1.79732
-2.59676
-2.00669
-2.57629
-1.61448
-2.32829
-1.18865
-2.03373
-0.573168
-0.983031
2.83535
4.96983
13.6807
-3.52
-0.764935
-1.09191
-0.581966
-0.502486
-0.26105
-0.345957
-0.330239
-0.451556
-0.536989
-0.69682
-0.841784
-1.03534
-1.19538
-1.44063
-1.55987
-1.95664
-1.89587
-1.75594
-0.828953
-0.307499
0.369478
0.454231
0.495376
-0.097304
-0.389968
-1.87366
-1.94358
-2.81677
-2.05253
-2.55128
-1.50409
-2.1822
-1.0359
-1.67291
0.0818646
0.628511
6.54749
11.8228
25.5917
-0.110659
-0.215657
-0.283235
-0.284464
-0.277743
-0.312424
-0.334936
-0.365534
-0.393753
-0.420742
-0.443878
-0.479861
-0.50143
-0.535818
-0.56966
-0.591453
-0.60242
-0.633387
-0.642599
-0.829647
-0.547596
-1.00373
-0.941909
-1.04963
-0.973724
-0.921184
-0.890659
-0.810835
-0.821782
-0.770974
-0.817342
-0.815954
-0.89438
-0.908573
-0.960731
-0.964389
-1.00724
-1.00167
-1.02712
-1.01613
-0.223429
-0.271571
-0.317277
-0.304555
-0.285453
-0.307933
-0.32443
-0.353122
-0.354469
-0.392547
-0.391906
-0.458495
-0.457294
-0.468681
-0.474124
-0.500943
-0.538092
-0.579885
-0.527703
-0.699793
-0.568044
-0.978801
-0.951356
-1.05815
-0.998056
-0.961464
-0.949529
-0.888167
-0.898013
-0.839409
-0.868182
-0.862436
-0.8815
-0.8859
-0.947855
-0.942628
-0.991016
-0.98606
-1.01544
-1.00644
-0.287272
-0.309934
-0.329386
-0.321076
-0.290265
-0.302368
-0.319089
-0.331554
-0.383683
-0.41214
-0.424743
-0.432496
-0.447636
-0.497698
-0.568037
-0.651243
-0.66477
-0.707827
-0.673408
-0.859705
-0.802636
-1.25015
-1.32527
-1.47133
-1.45782
-1.43823
-1.44498
-1.38332
-1.37978
-1.2842
-1.22102
-1.12173
-1.09704
-1.05049
-1.01466
-0.988083
-1.02053
-1.01208
-1.03517
-1.02806
-0.350438
-0.361622
-0.370165
-0.338445
-0.344742
-0.309905
-0.34634
-0.373623
-0.378317
-0.385178
-0.399727
-0.477184
-0.575033
-0.647688
-0.698856
-0.770707
-0.807675
-0.878383
-0.878523
-1.0869
-1.10671
-1.58826
-1.69889
-1.85343
-1.85492
-1.83521
-1.8338
-1.75522
-1.72461
-1.60303
-1.52465
-1.34912
-1.24503
-1.1335
-1.0876
-1.02686
-1.07242
-1.03855
-1.06252
-1.0563
-0.3736
-0.352686
-0.36595
-0.347334
-0.354494
-0.311438
-0.346445
-0.335735
-0.414418
-0.522584
-0.677589
-0.777459
-0.828221
-0.884913
-0.956094
-1.03274
-1.07113
-1.14439
-1.1642
-1.33199
-1.35227
-1.79992
-1.97895
-2.10226
-2.12771
-2.11498
-2.11715
-2.05361
-2.00208
-1.87801
-1.7889
-1.65236
-1.50215
-1.30143
-1.12429
-1.09961
-1.10871
-1.08803
-1.09968
-1.0969
-0.415112
-0.426109
-0.443182
-0.448909
-0.454082
-0.406466
-0.446971
-0.645676
-0.813062
-0.915492
-0.965207
-1.0188
-1.06882
-1.10394
-1.1659
-1.23684
-1.25949
-1.33139
-1.34245
-1.51613
-1.54183
-2.01415
-2.15179
-2.2972
-2.31377
-2.28409
-2.28151
-2.19174
-2.1758
-2.04089
-1.9583
-1.84358
-1.70895
-1.60357
-1.31459
-1.20805
-1.20235
-1.15134
-1.15782
-1.15425
-0.48317
-0.467623
-0.504344
-0.538228
-0.617429
-0.610565
-0.880857
-0.948538
-1.05801
-1.12504
-1.20679
-1.26749
-1.32238
-1.36485
-1.42727
-1.44829
-1.46918
-1.47609
-1.4748
-1.54361
-1.58599
-1.87545
-2.2258
-2.32179
-2.38592
-2.3594
-2.3681
-2.30933
-2.25749
-2.16385
-2.07807
-1.94548
-1.81155
-1.67038
-1.44475
-1.25291
-1.22982
-1.18921
-1.19373
-1.19476
-0.499489
-0.520905
-0.563231
-0.648922
-0.733537
-0.824774
-1.06189
-1.13956
-1.25118
-1.33333
-1.40179
-1.47406
-1.52306
-1.57978
-1.61688
-1.62568
-1.62143
-1.59612
-1.58346
-1.61367
-1.64142
-1.72556
-2.13616
-2.30828
-2.40622
-2.41701
-2.45191
-2.39914
-2.38887
-2.27733
-2.19747
-2.08576
-1.94603
-1.79477
-1.61624
-1.3558
-1.31554
-1.26303
-1.25991
-1.26258
-0.572869
-0.5734
-0.624088
-0.7366
-0.82274
-1.04608
-1.17559
-1.28494
-1.40113
-1.48671
-1.57518
-1.64093
-1.70679
-1.77344
-1.81005
-1.82447
-1.81641
-1.76916
-1.70414
-1.67262
-1.65106
-1.56951
-1.84719
-2.25961
-2.39751
-2.47417
-2.5157
-2.48883
-2.44384
-2.37909
-2.29376
-2.18597
-2.06107
-1.85354
-1.71031
-1.41491
-1.33736
-1.29753
-1.29542
-1.30707
-0.599963
-0.619814
-0.704388
-0.807803
-1.03221
-1.13606
-1.31483
-1.41125
-1.50862
-1.62496
-1.69023
-1.78166
-1.83323
-1.91022
-1.94927
-1.97942
-1.98844
-1.94369
-1.8917
-1.7695
-1.63574
-1.42829
-1.47565
-2.04073
-2.37646
-2.49128
-2.59329
-2.54412
-2.55581
-2.45657
-2.41798
-2.34604
-2.22769
-2.07633
-1.86167
-1.59233
-1.42227
-1.39375
-1.36788
-1.38477
-0.670082
-0.685645
-0.770089
-0.966889
-1.1481
-1.26868
-1.41776
-1.51073
-1.6155
-1.71863
-1.8007
-1.88199
-1.93907
-2.00971
-2.06004
-2.09132
-2.10502
-2.06867
-2.00429
-1.76495
-1.45938
-1.13703
-1.08752
-1.67567
-2.33816
-2.55876
-2.64745
-2.67143
-2.59846
-2.6082
-2.54368
-2.42361
-2.28488
-2.09964
-1.93565
-1.6879
-1.45358
-1.43747
-1.4135
-1.43588
-0.723069
-0.74426
-0.877653
-1.07596
-1.24609
-1.37771
-1.49164
-1.61867
-1.69628
-1.78854
-1.86615
-1.95524
-1.99129
-2.06819
-2.11212
-2.16051
-2.17674
-2.16505
-2.09702
-1.67605
-1.16725
-0.817102
-0.824413
-1.3611
-2.10381
-2.53413
-2.65371
-2.6616
-2.73011
-2.72022
-2.62122
-2.55675
-2.4333
-2.29698
-2.11876
-1.8879
-1.55808
-1.49588
-1.48985
-1.5094
-0.826428
-0.860728
-0.995342
-1.17772
-1.34336
-1.47772
-1.60576
-1.6794
-1.80573
-1.86264
-1.93227
-1.96681
-2.05141
-2.08954
-2.16481
-2.19879
-2.20194
-2.23191
-1.99226
-1.47689
-1.04188
-0.76526
-0.755274
-1.2037
-1.84312
-2.5634
-2.65713
-2.8132
-2.83915
-2.79817
-2.80018
-2.69001
-2.5398
-2.3552
-2.13449
-1.99684
-1.72721
-1.54481
-1.561
-1.58234
-0.896249
-0.925488
-1.05682
-1.22899
-1.39995
-1.54796
-1.66179
-1.74889
-1.81539
-1.87387
-1.94921
-2.01984
-2.06223
-2.13804
-2.1528
-2.16073
-2.16938
-2.15058
-1.7142
-1.36205
-1.07857
-0.908159
-0.841499
-1.1448
-1.60164
-2.17163
-2.58394
-2.77294
-2.83907
-2.91721
-2.84332
-2.77053
-2.63088
-2.47226
-2.23743
-2.03522
-1.85081
-1.64697
-1.59703
-1.66354
-0.978901
-1.00922
-1.13607
-1.29306
-1.45936
-1.60032
-1.74033
-1.80904
-1.88972
-1.93459
-1.99166
-1.97841
-2.03975
-1.98735
-2.106
-2.08895
-2.07443
-1.77848
-1.49091
-1.2834
-1.17757
-1.14036
-1.07632
-1.19243
-1.52299
-1.82229
-2.54988
-2.71592
-2.87547
-2.93606
-2.91832
-2.85876
-2.74613
-2.59247
-2.36739
-2.16429
-1.95003
-1.8504
-1.65013
-1.7622
-1.04375
-1.06963
-1.19857
-1.34503
-1.51273
-1.64486
-1.75983
-1.82196
-1.86266
-1.87408
-1.89148
-1.90913
-1.94049
-1.87931
-1.99704
-1.68839
-1.4953
-1.24818
-1.15385
-1.14104
-1.18455
-1.22153
-1.2166
-1.25026
-1.53725
-1.9093
-2.26849
-2.86488
-2.93835
-2.96229
-2.95071
-2.89887
-2.80159
-2.64992
-2.44317
-2.2223
-2.02523
-1.91199
-1.76534
-1.82053
-0.943273
-1.00525
-1.12535
-1.27398
-1.43349
-1.55253
-1.673
-1.7342
-1.79349
-1.7973
-1.79858
-1.71288
-1.51743
-1.21866
-1.16957
-0.964687
-0.980464
-0.959823
-1.00911
-1.04955
-1.13743
-1.19413
-1.24111
-1.27785
-1.5415
-1.74806
-2.05584
-2.28318
-2.76413
-2.93698
-2.98117
-2.99106
-2.94493
-2.82397
-2.63035
-2.42795
-2.1737
-2.05767
-1.90862
-1.87297
-1.0757
-1.02365
-1.07973
-1.19511
-1.32579
-1.43833
-1.54475
-1.56905
-1.46264
-1.19421
-0.964048
-0.788966
-0.725715
-0.688123
-0.764238
-0.753407
-0.785524
-0.827942
-0.887444
-0.964616
-1.05458
-1.12967
-1.19572
-1.25828
-1.47587
-1.72922
-1.93411
-2.10044
-2.27601
-2.60337
-2.80643
-2.8625
-2.86426
-2.77146
-2.62507
-2.45339
-2.22205
-2.08717
-2.09382
-2.07508
-0.0127881
-0.121458
-0.213585
-0.339578
-0.459384
-0.572037
-0.670851
-0.61893
-0.594485
-0.601748
-0.600279
-0.588361
-0.577854
-0.566169
-0.597955
-0.639212
-0.684387
-0.733418
-0.806371
-0.881875
-0.988357
-1.07397
-1.16343
-1.2419
-1.42853
-1.68868
-1.87445
-1.98911
-2.11186
-2.19263
-2.42187
-2.74034
-2.89227
-2.90735
-2.823
-2.60737
-2.35351
-2.11462
-1.99173
-1.98193
-0.290999
-0.19629
-0.204263
-0.237916
-0.316208
-0.379354
-0.455677
-0.473477
-0.4981
-0.495984
-0.499851
-0.485773
-0.488143
-0.495721
-0.526531
-0.558559
-0.610563
-0.670179
-0.734857
-0.814088
-0.914681
-1.01595
-1.11793
-1.1973
-1.39505
-1.63225
-1.82288
-1.9662
-2.06347
-2.11002
-2.15296
-2.11827
-2.21855
-2.48637
-2.70235
-2.61524
-2.50779
-2.38745
-2.34671
-2.40502
-0.171754
-0.0938803
-0.0972931
-0.1138
-0.184095
-0.232205
-0.302463
-0.36752
-0.433943
-0.465905
-0.486666
-0.486293
-0.474696
-0.478538
-0.477412
-0.508118
-0.536744
-0.597019
-0.686791
-0.764758
-0.855089
-0.9724
-1.07431
-1.16989
-1.33876
-1.55978
-1.77047
-1.93352
-2.03435
-2.07332
-2.09913
-2.09453
-2.08093
-1.96679
-1.87914
-1.81564
-1.8168
-1.74919
-1.76159
-1.8409
-0.229577
-0.160277
-0.166002
-0.172021
-0.2427
-0.276431
-0.351265
-0.412422
-0.478856
-0.505587
-0.518418
-0.499284
-0.472292
-0.458279
-0.451461
-0.471716
-0.492841
-0.568445
-0.644896
-0.759154
-0.865734
-0.938957
-1.09793
-1.18518
-1.32258
-1.52138
-1.71905
-1.88552
-2.0147
-2.08052
-2.12259
-2.10311
-2.13344
-2.06123
-2.02001
-1.91046
-1.8667
-1.73253
-1.72811
-1.87129
-0.23813
-0.182354
-0.186745
-0.193579
-0.263913
-0.294214
-0.369674
-0.439051
-0.510343
-0.548861
-0.560197
-0.535122
-0.504594
-0.486375
-0.488825
-0.524429
-0.532065
-0.552803
-0.631678
-0.717682
-0.817316
-0.97494
-0.999274
-1.18624
-1.31239
-1.48297
-1.64304
-1.78564
-1.90435
-1.97207
-2.0418
-2.04063
-2.06508
-1.98398
-1.99529
-1.89912
-1.87731
-1.72179
-1.66518
-1.77538
-0.281799
-0.244336
-0.25099
-0.249985
-0.316274
-0.345698
-0.419606
-0.489583
-0.56082
-0.60388
-0.617754
-0.600954
-0.569707
-0.574368
-0.579377
-0.58504
-0.565675
-0.611907
-0.728602
-0.752647
-0.859772
-0.962384
-1.10355
-1.24592
-1.32372
-1.4808
-1.62661
-1.74498
-1.87609
-1.94842
-2.05384
-2.06411
-2.14851
-2.09975
-2.17625
-2.08158
-2.10345
-1.92038
-1.86926
-1.96743
-0.326225
-0.299383
-0.303227
-0.299455
-0.359085
-0.399922
-0.468229
-0.543196
-0.614855
-0.666238
-0.692578
-0.691995
-0.682097
-0.7021
-0.69605
-0.714563
-0.727733
-0.821618
-0.864478
-0.747493
-0.856504
-0.976866
-1.07202
-1.24236
-1.34729
-1.50159
-1.57864
-1.6884
-1.78398
-1.83102
-1.91409
-1.90388
-1.97732
-1.90074
-1.97674
-1.85641
-1.90025
-1.73429
-1.72847
-1.80477
-0.375736
-0.348633
-0.368888
-0.367927
-0.421329
-0.45965
-0.533913
-0.599343
-0.67228
-0.73236
-0.775954
-0.805773
-0.825088
-0.856395
-0.865199
-0.9166
-0.948801
-0.982007
-0.985822
-0.756027
-0.886429
-0.957072
-1.12816
-1.25752
-1.38702
-1.49021
-1.68111
-1.68217
-1.82866
-1.87864
-2.03746
-2.04987
-2.20089
-2.13125
-2.26764
-2.12036
-2.18594
-1.98608
-1.94359
-1.87539
-0.448738
-0.418468
-0.427423
-0.439994
-0.490817
-0.541593
-0.609911
-0.682641
-0.762122
-0.830596
-0.889332
-0.937989
-0.973981
-1.02139
-1.04346
-1.0919
-1.09471
-1.08935
-1.08752
-0.799656
-0.93253
-1.01191
-1.1151
-1.27415
-1.38178
-1.51569
-1.62148
-1.75487
-1.82469
-1.92872
-2.05911
-2.05401
-2.18575
-2.09902
-2.25815
-2.11471
-2.25193
-2.06979
-2.09012
-2.09596
-0.491357
-0.466039
-0.459441
-0.480276
-0.52983
-0.577506
-0.650349
-0.734828
-0.821019
-0.901629
-0.976667
-1.04367
-1.09051
-1.1423
-1.15792
-1.20235
-1.21066
-1.16375
-1.18016
-0.819317
-0.963738
-0.995492
-1.10627
-1.25368
-1.36324
-1.47672
-1.63353
-1.76227
-1.86026
-1.94273
-2.08594
-2.03085
-2.18374
-2.02561
-2.22401
-2.00271
-2.18021
-1.899
-1.95222
-1.82063
-0.567743
-0.550052
-0.539757
-0.547531
-0.614029
-0.661872
-0.740333
-0.814188
-0.907835
-0.996033
-1.07352
-1.14555
-1.19042
-1.24134
-1.25694
-1.28382
-1.30969
-1.24585
-1.29321
-0.869299
-1.00372
-1.0473
-1.10176
-1.22067
-1.31081
-1.37621
-1.58825
-1.76862
-1.89556
-1.89318
-2.00871
-1.92078
-2.09928
-1.90913
-2.11304
-1.85042
-2.03149
-1.67238
-1.71691
-1.48743
-0.586912
-0.563855
-0.556129
-0.530783
-0.621108
-0.65647
-0.750525
-0.82832
-0.908814
-0.998816
-1.09061
-1.16767
-1.22125
-1.27028
-1.28902
-1.30648
-1.33916
-1.2606
-1.31519
-0.899129
-0.993323
-1.01161
-1.06767
-1.15971
-1.24506
-1.25774
-1.76954
-1.74687
-1.96197
-1.85169
-2.06091
-1.89703
-2.10463
-1.84836
-2.15518
-1.75944
-2.0493
-1.56299
-1.56897
-1.27319
-0.683495
-0.66877
-0.662797
-0.63093
-0.702708
-0.761628
-0.846351
-0.922148
-1.00203
-1.08036
-1.1582
-1.24154
-1.29626
-1.35448
-1.3816
-1.38361
-1.44351
-1.33982
-1.47473
-0.974691
-0.999046
-0.997608
-1.05845
-1.10979
-1.20139
-1.18237
-1.88803
-1.7463
-1.98863
-1.83465
-2.02774
-1.85837
-2.10278
-1.7685
-2.06622
-1.68342
-1.97389
-1.4473
-1.42438
-1.01786
-0.655643
-0.633255
-0.637532
-0.577065
-0.624083
-0.697822
-0.786509
-0.85237
-0.951223
-1.02846
-1.1203
-1.19979
-1.27215
-1.32752
-1.3896
-1.38418
-1.49964
-1.30355
-1.51212
-0.976277
-1.0092
-0.929042
-0.991805
-1.02328
-1.13935
-1.07476
-1.95533
-1.76624
-2.01386
-1.82029
-2.04282
-1.80595
-2.10563
-1.72814
-2.10721
-1.49802
-2.00695
-1.29088
-1.3609
-0.744118
-0.780335
-0.782395
-0.753105
-0.742384
-0.709849
-0.814121
-0.888809
-0.950684
-1.04225
-1.11803
-1.20695
-1.2912
-1.36917
-1.44155
-1.51226
-1.49785
-1.60291
-1.44281
-1.62008
-1.06862
-0.988482
-0.890398
-0.945744
-0.946392
-1.09717
-0.961568
-2.01242
-1.75493
-2.12547
-1.80858
-2.12292
-1.73956
-2.15972
-1.65076
-2.13429
-1.50903
-1.9205
-1.24063
-1.28616
-0.418261
-0.687103
-0.665307
-0.681597
-0.602054
-0.61143
-0.617867
-0.758154
-0.79356
-0.903421
-0.989542
-1.10373
-1.19816
-1.31481
-1.3623
-1.49349
-1.49091
-1.67202
-1.43879
-1.67275
-1.04915
-0.900186
-0.770176
-0.82548
-0.793892
-0.992054
-0.812084
-1.98321
-1.75804
-2.20046
-1.84107
-2.15131
-1.69898
-2.13751
-1.5182
-2.09571
-1.29863
-1.97786
-0.846813
-1.11664
0.18792
-0.848952
-0.869072
-0.83913
-0.834842
-0.759525
-0.739845
-0.879849
-0.89204
-0.995339
-1.07005
-1.18567
-1.29584
-1.38137
-1.4678
-1.59313
-1.51055
-1.78799
-1.55388
-1.78083
-1.13057
-0.880383
-0.703812
-0.746659
-0.667722
-0.894999
-0.698672
-1.97016
-1.77094
-2.32086
-1.87216
-2.26789
-1.70775
-2.23896
-1.50206
-2.14044
-1.28962
-1.94805
-0.90357
-0.782948
0.892663
-0.71647
-0.665662
-0.727782
-0.574529
-0.674867
-0.441786
-0.68614
-0.656837
-0.799639
-0.872549
-1.02666
-1.12745
-1.28907
-1.39021
-1.60493
-1.55601
-1.84514
-1.56061
-1.79574
-1.0665
-0.737057
-0.487851
-0.54149
-0.423774
-0.726806
-0.558645
-1.9019
-1.77824
-2.38925
-1.90331
-2.37284
-1.63822
-2.24566
-1.33044
-2.07156
-0.951024
-1.69131
-0.189443
-0.337577
2.62366
-0.885921
-0.988512
-0.891571
-0.897157
-0.809283
-0.694675
-0.783134
-0.770115
-0.876406
-0.9512
-1.07014
-1.20878
-1.34847
-1.47291
-1.62145
-1.67454
-1.91846
-1.7561
-1.89497
-1.15812
-0.761515
-0.367645
-0.393994
-0.218777
-0.5667
-0.464006
-1.86071
-1.80023
-2.49923
-1.97127
-2.51796
-1.70571
-2.37873
-1.37832
-2.22028
-1.00383
-1.74572
0.0999433
0.293649
4.4894
-1.11337
-0.699124
-0.847363
-0.5064
-0.601784
-0.362762
-0.527802
-0.489074
-0.64244
-0.717293
-0.892682
-1.02946
-1.22056
-1.37798
-1.60169
-1.69987
-1.9894
-1.81544
-1.91857
-1.07333
-0.578283
-0.0975581
-0.107713
0.0639201
-0.326905
-0.359318
-1.8018
-1.83632
-2.63909
-1.99477
-2.57632
-1.62798
-2.31189
-1.21068
-2.03995
-0.581432
-1.0912
1.43189
2.87612
9.89023
-0.784749
-1.23457
-1.11328
-1.09134
-0.814017
-0.569524
-0.610883
-0.566387
-0.661068
-0.73151
-0.868755
-1.03056
-1.22141
-1.38726
-1.63573
-1.72688
-2.10989
-2.00747
-2.01421
-1.1739
-0.605523
0.0476902
0.127782
0.310024
-0.135341
-0.274074
-1.75667
-1.81835
-2.67284
-2.07893
-2.64802