/*--------------------------------*- C++ -*----------------------------------*\
| =========                 |                                                 |
| \\      /  F ield         | OpenFOAM: The Open Source CFD Toolbox           |
|  \\    /   O peration     | Version:  v1806                                 |
|   \\  /    A nd           | Web:      www.OpenFOAM.com                      |
|    \\/     M anipulation  |                                                 |
\*---------------------------------------------------------------------------*/
FoamFile
{
    version     2.0;
    format      ascii;
    class       vectorField;
    location    "0.045";
    object      currentcloudofpoints;
}
// * * * * * * * * * * * * * * * * * * * * * * * * * * * * * * * * * * * * * //


2409
(
(0.755657 1.31253 1.00082)
(0.803418 0.842597 0.999749)
(1.22547 1.35641 0.999576)
(0.990509 1.06254 0.742304)
(0.993373 1.063 1.25852)
(1.08374 1.09365 1.00009)
(0.630515 1.42395 0.999599)
(0.691992 0.680491 1.00103)
(1.32851 1.53329 0.999898)
(0.992411 1.0677 0.565765)
(0.98513 1.07247 1.42717)
(1.2151 1.34014 1.08633)
(1.18269 1.29886 1.16122)
(1.12903 1.23882 1.21999)
(1.06184 1.15432 1.26231)
(1.22082 1.34967 1.04327)
(1.20023 1.3195 1.12424)
(1.15656 1.26939 1.18995)
(1.09486 1.19987 1.24224)
(1.02848 1.10553 1.26607)
(0.816536 0.851049 1.05117)
(0.84969 0.87958 1.10164)
(0.893549 0.92813 1.15706)
(0.942482 0.991949 1.20774)
(0.809854 0.847468 1.02501)
(0.834667 0.865466 1.07381)
(0.872734 0.902719 1.12821)
(0.920623 0.960116 1.17879)
(0.966184 1.02766 1.23171)
(1.21431 1.34017 0.91279)
(1.18126 1.2986 0.83859)
(1.12747 1.23749 0.781329)
(1.06123 1.15208 0.739)
(1.22061 1.34942 0.955784)
(1.19897 1.31967 0.875281)
(1.15496 1.26882 0.810322)
(1.09421 1.19749 0.759538)
(1.02566 1.10445 0.735514)
(0.943132 0.990981 0.792209)
(0.893954 0.9273 0.843116)
(0.846679 0.879714 0.896827)
(0.817328 0.851947 0.948399)
(0.966006 1.02702 0.768506)
(0.92095 0.95884 0.820727)
(0.871402 0.902207 0.871493)
(0.832936 0.865977 0.924871)
(0.811684 0.848457 0.974693)
(0.936803 1.1196 1.20707)
(0.864911 1.18684 1.16257)
(0.805148 1.24536 1.10849)
(0.768517 1.29122 1.07193)
(0.967007 1.08916 1.22556)
(0.90286 1.15083 1.18536)
(0.833688 1.21828 1.13052)
(0.785325 1.26716 1.08815)
(0.759853 1.30366 1.03836)
(0.769347 1.29151 0.929484)
(0.804068 1.24673 0.889033)
(0.863614 1.18708 0.836829)
(0.934145 1.11918 0.79543)
(0.760513 1.30301 0.963621)
(0.785513 1.2688 0.910231)
(0.832295 1.21829 0.869054)
(0.900745 1.15169 0.814084)
(0.964364 1.0881 0.776867)
(0.735033 0.951767 0.999876)
(0.689671 1.05155 0.999586)
(0.674782 1.14511 0.999919)
(0.697045 1.23838 0.999688)
(0.774032 0.899216 1.00054)
(0.715993 1.00325 0.999066)
(0.683819 1.09728 0.999942)
(0.683693 1.19118 0.999743)
(0.7251 1.27541 1.00013)
(0.836427 1.36728 1.00214)
(0.931745 1.39834 1.00306)
(1.03523 1.40558 1.0003)
(1.13997 1.39525 0.999396)
(0.794922 1.33858 1.0012)
(0.883825 1.38276 1.00306)
(0.983065 1.40091 1.00158)
(1.09013 1.39926 0.999622)
(1.18373 1.38048 0.999386)
(0.70582 0.694735 1.10985)
(0.730337 0.718425 1.21027)
(0.763518 0.748869 1.2819)
(0.798735 0.791361 1.33348)
(0.844303 0.844603 1.36647)
(0.88753 0.912257 1.40167)
(0.941314 0.990226 1.42324)
(0.695659 0.688161 1.05609)
(0.719081 0.705505 1.1615)
(0.747041 0.735662 1.24831)
(0.782061 0.769143 1.30805)
(0.821833 0.818146 1.34957)
(0.866532 0.876454 1.38232)
(0.916414 0.951433 1.41096)
(0.965876 1.03131 1.4258)
(1.04439 1.14423 1.42838)
(1.11565 1.21459 1.40469)
(1.17919 1.28625 1.36967)
(1.23057 1.35725 1.32312)
(1.27865 1.42097 1.25619)
(1.30605 1.48053 1.17786)
(1.32299 1.52062 1.09187)
(1.01127 1.10958 1.42743)
(1.08047 1.17892 1.41671)
(1.15041 1.24863 1.38573)
(1.20435 1.32193 1.3464)
(1.25592 1.38753 1.29059)
(1.29338 1.45044 1.21663)
(1.31529 1.50122 1.13551)
(1.32631 1.5277 1.0462)
(0.705427 0.692762 0.888828)
(0.730726 0.718056 0.790004)
(0.762264 0.746405 0.715371)
(0.795158 0.789953 0.664998)
(0.840265 0.842418 0.629565)
(0.886189 0.91175 0.59867)
(0.940112 0.989377 0.576924)
(0.697663 0.684268 0.944749)
(0.717582 0.707812 0.838108)
(0.748007 0.731664 0.749893)
(0.77901 0.768848 0.68983)
(0.818616 0.815639 0.648542)
(0.862949 0.875491 0.614298)
(0.915302 0.950816 0.590682)
(0.967973 1.02831 0.570381)
(1.32277 1.5207 0.908143)
(1.30629 1.48107 0.822089)
(1.27869 1.42072 0.743969)
(1.23105 1.35665 0.676903)
(1.17967 1.28644 0.629083)
(1.11552 1.21541 0.595738)
(1.04893 1.14298 0.572436)
(1.32606 1.52768 0.953655)
(1.3153 1.50158 0.864552)
(1.29362 1.45076 0.783287)
(1.2561 1.38688 0.709751)
(1.20498 1.32164 0.652894)
(1.15054 1.24929 0.613437)
(1.08102 1.17913 0.585477)
(1.01991 1.10612 0.568285)
(0.636157 1.41702 1.10223)
(0.652479 1.39791 1.19843)
(0.686762 1.36142 1.28604)
(0.744744 1.30801 1.34939)
(0.804055 1.2544 1.37338)
(0.862983 1.19975 1.39552)
(0.923973 1.14285 1.40375)
(0.633079 1.42174 1.05263)
(0.646119 1.40782 1.15392)
(0.669358 1.38067 1.24558)
(0.717615 1.33407 1.32213)
(0.775393 1.28066 1.36365)
(0.835257 1.22736 1.37886)
(0.890549 1.17128 1.40032)
(0.957742 1.11051 1.41635)
(0.637768 1.41602 0.896908)
(0.649597 1.39943 0.804555)
(0.691153 1.36009 0.713569)
(0.741997 1.30932 0.648313)
(0.805865 1.2541 0.629159)
(0.863174 1.20058 0.610265)
(0.932338 1.13988 0.589165)
(0.636361 1.4199 0.946052)
(0.643657 1.40879 0.847694)
(0.671 1.38052 0.755161)
(0.717673 1.33459 0.677497)
(0.775407 1.28068 0.635881)
(0.836933 1.22759 0.624402)
(0.892113 1.17028 0.602532)
(0.967884 1.1063 0.571609)
(0.619447 0.757429 1.00081)
(0.571321 0.834198 0.999912)
(0.53706 0.920473 0.999772)
(0.517993 1.01689 1.00003)
(0.515982 1.11792 0.999982)
(0.527422 1.21943 0.999764)
(0.56583 1.32229 0.99963)
(0.653076 0.721779 1.00097)
(0.594035 0.795908 1.00041)
(0.554826 0.876467 0.999579)
(0.526096 0.967686 0.999905)
(0.516545 1.06656 0.999982)
(0.52123 1.16821 0.999848)
(0.544478 1.27042 0.999732)
(0.597273 1.37334 0.999608)
(0.708252 1.50823 0.999306)
(0.789928 1.5687 0.999716)
(0.882458 1.60788 1.00031)
(0.982479 1.62198 1.00071)
(1.07236 1.6158 1.00025)
(1.15191 1.5985 0.99978)
(1.23603 1.57174 0.999936)
(0.671007 1.46828 0.999558)
(0.75132 1.54022 0.999439)
(0.837679 1.58966 0.999943)
(0.935038 1.61574 1.00057)
(1.02979 1.61825 1.00056)
(1.11199 1.6041 0.999885)
(1.19222 1.58421 0.999843)
(1.28199 1.55129 0.999912)
(0.978695 1.0709 0.662186)
(0.99203 1.06923 0.606606)
(0.981922 1.06459 0.703818)
(0.983914 1.06784 1.33922)
(0.988243 1.06266 1.29907)
(0.986937 1.07119 1.38814)
(0.73352 0.772611 0.998413)
(0.766391 0.808911 0.998577)
(0.705176 0.719136 1.00026)
(1.28186 1.43247 0.9997)
(1.2512 1.39307 0.999716)
(1.31105 1.47949 0.999718)
(0.869071 1.51027 1.25815)
(0.880171 1.57053 1.17155)
(0.988206 1.32331 1.39681)
(1.06866 1.58468 1.15748)
(0.74071 1.52716 1.08268)
(1.02633 1.24255 1.4214)
(1.22769 1.54913 1.13631)
(1.1454 1.54326 1.21696)
(0.777216 1.52233 1.17694)
(0.972549 1.56393 1.2147)
(0.960118 1.60301 1.11382)
(0.772851 1.42913 1.29564)
(1.05317 1.51525 1.27516)
(1.14313 1.58017 1.13033)
(0.96517 1.47994 1.31406)
(1.18432 1.58458 1.06504)
(1.07766 1.31291 1.404)
(1.11114 1.5996 1.07317)
(0.694858 1.47529 1.13388)
(0.937921 1.23076 1.39964)
(0.890303 1.31626 1.38454)
(1.03879 1.41427 1.35927)
(1.21708 1.48642 1.23958)
(0.84899 1.58571 1.08301)
(0.708596 1.44841 1.21731)
(0.953886 1.39254 1.36864)
(1.19439 1.42363 1.30702)
(1.13016 1.46844 1.30487)
(0.680388 1.47947 1.06341)
(0.984267 1.1729 1.42084)
(1.26005 1.55772 1.05941)
(0.877183 1.42333 1.34024)
(0.816861 1.34683 1.3615)
(1.13848 1.38096 1.35622)
(0.918622 1.61085 1.04974)
(1.0413 1.60999 1.07014)
(1.0304 1.19552 1.42698)
(1.06401 1.22839 1.41889)
(0.981887 1.12394 1.42405)
(1.00941 1.16016 1.42944)
(1.00528 1.20827 1.42065)
(1.095 1.26348 1.40499)
(1.12732 1.29724 1.38498)
(1.05374 1.27741 1.41362)
(1.15852 1.3331 1.36115)
(1.18401 1.36801 1.3371)
(1.10816 1.34555 1.3799)
(1.21221 1.38953 1.31358)
(1.23707 1.41964 1.27921)
(1.16586 1.40261 1.33232)
(1.24907 1.45151 1.24569)
(1.25962 1.48113 1.20666)
(1.20914 1.45296 1.2734)
(1.26663 1.51419 1.15808)
(1.27412 1.53298 1.11386)
(1.22189 1.51932 1.19041)
(1.29163 1.53938 1.07569)
(1.2951 1.54496 1.02981)
(1.24325 1.55328 1.09789)
(1.24814 1.56459 1.02977)
(0.76897 1.54885 1.04106)
(0.725649 1.51897 1.0427)
(0.711302 1.50443 1.07413)
(0.695119 1.49477 1.03141)
(0.656467 1.4532 1.03405)
(0.868451 1.59674 1.04182)
(0.82255 1.57754 1.04281)
(0.797987 1.55764 1.08476)
(0.952357 1.61611 1.02578)
(0.90148 1.60964 1.02527)
(0.885065 1.59903 1.0664)
(1.0569 1.61184 1.03537)
(1.01367 1.61495 1.03542)
(0.984751 1.60963 1.06116)
(1.13094 1.59757 1.03695)
(1.09174 1.60535 1.03653)
(1.07692 1.60303 1.07217)
(1.20958 1.5775 1.03325)
(1.16776 1.59087 1.0321)
(1.1466 1.59039 1.06959)
(1.22054 1.57009 1.06321)
(0.823745 1.51767 1.22015)
(0.829846 1.54709 1.17639)
(0.874365 1.54192 1.21556)
(0.927588 1.56814 1.19417)
(0.921364 1.53875 1.23745)
(0.816476 1.55627 1.13072)
(0.866186 1.57925 1.12719)
(0.922013 1.58884 1.14249)
(0.967892 1.58506 1.16453)
(0.906374 1.59629 1.09874)
(1.01242 1.28427 1.4039)
(1.03566 1.32012 1.40009)
(0.987501 1.23896 1.40551)
(0.964404 1.2782 1.39616)
(1.01483 1.36705 1.38036)
(1.05907 1.36344 1.38223)
(0.939073 1.32094 1.38933)
(0.913752 1.27424 1.3917)
(0.971275 1.3566 1.38323)
(0.922707 1.35417 1.37763)
(0.997309 1.40352 1.36322)
(1.055 1.59591 1.11406)
(1.08969 1.59027 1.1161)
(1.01788 1.59169 1.1381)
(1.00335 1.6047 1.09358)
(1.09924 1.52568 1.24841)
(1.06189 1.55217 1.21847)
(1.10596 1.56339 1.18795)
(1.10571 1.58036 1.14493)
(1.1447 1.56281 1.17412)
(1.12646 1.58915 1.10147)
(1.02439 1.5728 1.18822)
(1.01441 1.53994 1.24647)
(0.737153 1.49986 1.15781)
(0.718533 1.50242 1.10845)
(0.761004 1.52545 1.13167)
(0.688608 1.47762 1.09998)
(0.666537 1.44702 1.12062)
(0.674609 1.43735 1.16859)
(0.658483 1.44924 1.08365)
(0.680902 1.42347 1.20968)
(0.697502 1.40524 1.25524)
(0.702599 1.46261 1.17747)
(0.730544 1.39545 1.29316)
(0.76001 1.36677 1.32803)
(0.740316 1.44025 1.25912)
(0.810693 1.29975 1.36868)
(0.781031 1.32773 1.35548)
(0.797012 1.38651 1.33432)
(0.847111 1.28599 1.37616)
(0.875768 1.25918 1.38527)
(0.854607 1.33086 1.37185)
(0.897761 1.21562 1.3981)
(0.929491 1.18752 1.39965)
(0.955614 1.15947 1.40909)
(0.964416 1.20331 1.40481)
(0.822861 1.46932 1.27999)
(0.874475 1.4668 1.30312)
(0.82702 1.42602 1.32003)
(0.92258 1.4513 1.32844)
(0.919586 1.49496 1.28838)
(0.77638 1.47745 1.241)
(0.968322 1.52325 1.26643)
(1.20515 1.5669 1.10135)
(0.847372 1.38477 1.35217)
(0.885137 1.36699 1.36566)
(0.917168 1.40779 1.35498)
(0.960262 1.43533 1.34494)
(0.940802 1.60644 1.08163)
(1.184 1.56399 1.13573)
(1.18602 1.54468 1.17915)
(1.1803 1.51468 1.23281)
(1.16283 1.58081 1.09837)
(1.13821 1.50429 1.26362)
(1.09069 1.49045 1.29129)
(1.17554 1.47522 1.27487)
(0.744232 1.48616 1.19914)
(1.01009 1.49835 1.29456)
(1.00374 1.44628 1.33861)
(1.04726 1.46391 1.32137)
(1.08405 1.44067 1.33298)
(1.08904 1.39719 1.3593)
(1.13549 1.42417 1.33292)
(1.16278 1.44554 1.30835)
(0.643096 1.05142 1.32985)
(0.554072 1.13829 1.19622)
(0.59089 0.903394 1.18659)
(0.625199 0.842433 1.19593)
(0.584172 1.18357 1.25658)
(0.707522 1.10999 1.35875)
(0.662685 0.76477 1.16429)
(0.600513 1.34106 1.15689)
(0.850097 1.01385 1.39524)
(0.58589 1.09964 1.26677)
(0.646132 0.891688 1.27845)
(0.558478 1.23819 1.16375)
(0.647948 1.15999 1.32999)
(0.784226 0.943083 1.3696)
(0.722515 1.21616 1.3583)
(0.650591 1.2492 1.31353)
(0.684146 0.805996 1.24824)
(0.848615 1.11061 1.39646)
(0.59716 0.822484 1.10615)
(0.527095 1.11368 1.10842)
(0.773516 1.05518 1.37375)
(0.607932 1.29217 1.23735)
(0.786713 1.1659 1.37283)
(0.530217 1.01717 1.09996)
(0.709463 0.918628 1.33482)
(0.724204 0.836078 1.31132)
(0.593427 0.991524 1.25546)
(0.653082 0.965536 1.32121)
(0.767585 0.866612 1.34842)
(0.704997 1.0061 1.35227)
(0.557739 0.983835 1.16189)
(0.556101 1.05827 1.18816)
(0.646998 0.742373 1.07913)
(0.914297 1.06813 1.40918)
(0.549006 0.924394 1.08239)
(0.567937 1.31334 1.07429)
(0.529351 1.19954 1.07146)
(0.627384 0.796464 1.13586)
(0.610899 0.833452 1.1535)
(0.642793 0.804949 1.18042)
(0.654312 0.755038 1.12271)
(0.6198 0.783948 1.09327)
(0.654476 0.824687 1.22262)
(0.674221 0.785494 1.20839)
(0.683499 0.731003 1.13812)
(0.697003 0.742294 1.18765)
(0.675495 0.720394 1.09478)
(0.707515 0.764063 1.23039)
(0.874596 0.963593 1.3991)
(0.904079 1.0034 1.40826)
(0.816261 0.895256 1.36876)
(0.83956 0.926133 1.38373)
(0.816698 0.976285 1.38083)
(0.930974 1.02979 1.41781)
(0.953194 1.07215 1.42029)
(0.884204 1.04059 1.40213)
(0.556202 1.18773 1.18293)
(0.574345 1.21115 1.21615)
(0.570905 1.16092 1.22926)
(0.585516 1.26532 1.20551)
(0.597321 1.23692 1.25125)
(0.616694 1.1722 1.29773)
(0.617149 1.21687 1.2882)
(0.650932 1.20374 1.32291)
(0.586291 1.14116 1.26327)
(0.615886 1.12997 1.30158)
(0.628523 1.27154 1.27966)
(0.573219 1.11899 1.23501)
(0.608228 0.872648 1.19176)
(0.593605 0.863545 1.14811)
(0.572249 0.874425 1.09424)
(0.569454 0.914559 1.13714)
(0.582617 0.828648 1.05332)
(0.605611 0.789678 1.05446)
(0.631122 0.749757 1.04032)
(0.559862 0.879446 1.04106)
(0.579471 1.28898 1.16438)
(0.605401 1.31697 1.20105)
(0.563069 1.27585 1.12236)
(0.585535 1.32758 1.11828)
(0.541319 1.16946 1.13934)
(0.544014 1.21958 1.12061)
(0.546715 1.25613 1.07507)
(0.686253 1.18812 1.34495)
(0.688816 1.23205 1.33936)
(0.716042 1.16335 1.35595)
(0.67974 1.1351 1.34619)
(0.646804 1.10593 1.3294)
(0.676386 1.08077 1.34545)
(0.614293 1.0756 1.30256)
(0.807312 0.855941 1.35815)
(0.777028 0.905452 1.35844)
(0.776971 0.997997 1.36942)
(0.810438 1.03395 1.38133)
(0.744059 0.975448 1.35765)
(0.739016 1.03035 1.36256)
(0.74702 0.931805 1.35112)
(0.737845 0.893905 1.3397)
(0.707053 0.962227 1.34205)
(0.734272 1.26126 1.35446)
(0.699718 1.2785 1.33248)
(0.76372 1.23564 1.36466)
(0.795504 1.21015 1.37097)
(0.755601 1.19108 1.36367)
(0.747338 1.13784 1.36365)
(0.670722 1.30346 1.30397)
(0.648167 1.32664 1.26588)
(0.885074 1.12631 1.40076)
(0.856272 1.15552 1.39625)
(0.820301 1.13832 1.38241)
(0.826639 1.18256 1.3816)
(0.917932 1.10584 1.40485)
(0.877986 1.08923 1.40026)
(0.846626 1.06237 1.39327)
(0.812664 1.08212 1.3817)
(0.780514 1.11125 1.37121)
(0.62064 0.898771 1.23495)
(0.637735 0.868516 1.23835)
(0.59466 0.948112 1.22222)
(0.619222 0.941328 1.26861)
(0.552239 0.953576 1.12322)
(0.574298 0.94371 1.17465)
(0.578853 0.989178 1.2111)
(0.665732 0.85038 1.26274)
(0.627699 1.36947 1.18109)
(0.618952 1.37865 1.13174)
(0.602749 1.36519 1.09249)
(0.5973 1.36888 1.03799)
(0.631261 1.34391 1.22299)
(0.705375 1.0581 1.35473)
(0.675303 1.02926 1.34189)
(0.615697 1.02115 1.29772)
(0.590985 1.04537 1.26281)
(0.648033 1.00844 1.32544)
(0.620616 0.978887 1.293)
(0.68 0.986222 1.33668)
(0.666773 0.712545 1.04033)
(0.542654 0.922058 1.04094)
(0.530767 0.96847 1.04142)
(0.520445 1.11472 1.0538)
(0.521233 1.06357 1.05418)
(0.523038 1.01573 1.04933)
(0.538946 0.969935 1.09179)
(0.528381 1.06469 1.10544)
(0.527944 1.20908 1.03553)
(0.521769 1.158 1.03558)
(0.52803 1.15633 1.0912)
(0.566474 1.31783 1.0375)
(0.545695 1.26623 1.03816)
(0.723669 0.780659 1.26621)
(0.76253 0.814107 1.32332)
(0.745092 0.793729 1.29742)
(0.704555 0.822643 1.28157)
(0.783978 0.829351 1.34183)
(0.746272 0.8513 1.32995)
(0.74092 1.08323 1.36464)
(0.683855 0.866185 1.2945)
(0.555902 1.09806 1.19381)
(0.574544 1.07937 1.23086)
(0.578152 1.02515 1.22397)
(0.716588 0.878099 1.3225)
(0.6766 0.905021 1.30946)
(0.648753 0.928124 1.30129)
(0.681584 0.942339 1.32734)
(0.540513 1.08595 1.15171)
(0.540736 1.12655 1.15521)
(0.543511 1.00036 1.13249)
(0.543021 1.03793 1.14662)
(0.557512 1.02082 1.17588)
(0.628572 0.950609 0.708304)
(0.61598 1.15448 0.697421)
(0.625345 0.898077 0.75171)
(0.620765 0.846705 0.812768)
(0.550993 1.19461 0.830148)
(0.753205 1.06847 0.632119)
(0.576902 1.28987 0.83167)
(0.838795 1.10617 0.609538)
(0.598421 0.97721 0.748382)
(0.570473 1.12968 0.765568)
(0.735572 0.915278 0.659956)
(0.654638 1.24915 0.683875)
(0.67946 1.10252 0.651501)
(0.604609 1.04781 0.708635)
(0.71215 1.01589 0.649406)
(0.585378 1.22024 0.75731)
(0.769203 1.15949 0.629845)
(0.67284 0.807133 0.758614)
(0.849489 1.01311 0.60417)
(0.657428 0.766861 0.846254)
(0.551119 0.891004 0.9314)
(0.530373 1.1027 0.877685)
(0.533854 0.983657 0.899879)
(0.594886 0.814685 0.907178)
(0.622582 1.30415 0.750459)
(0.565661 1.03044 0.797083)
(0.685317 0.870041 0.694753)
(0.578361 0.921046 0.830988)
(0.711876 1.20907 0.640802)
(0.536963 1.23095 0.922484)
(0.784312 0.958511 0.628563)
(0.646128 0.739175 0.926949)
(0.590714 1.34947 0.901541)
(0.661185 0.982651 0.669149)
(0.660337 1.17917 0.662354)
(0.914754 1.06556 0.586929)
(0.60181 1.01232 0.726966)
(0.617139 0.99912 0.707339)
(0.614166 0.963995 0.727207)
(0.627869 0.924494 0.729113)
(0.612961 0.937516 0.74956)
(0.642849 0.966252 0.686696)
(0.631613 1.0158 0.686385)
(0.654002 0.884232 0.719814)
(0.656452 0.910387 0.700509)
(0.673267 0.926292 0.682413)
(0.80127 1.04065 0.622428)
(0.797936 1.08643 0.624132)
(0.841681 1.05977 0.608254)
(0.760449 1.11409 0.632103)
(0.806348 1.13329 0.624069)
(0.816328 0.983824 0.616083)
(0.768916 1.01355 0.633344)
(0.732941 1.042 0.641196)
(0.695755 1.05963 0.652156)
(0.717321 1.08588 0.643153)
(0.723997 1.13094 0.640802)
(0.749297 0.988195 0.643077)
(0.923413 1.10272 0.587821)
(0.958713 1.0682 0.571242)
(0.93018 1.02814 0.580601)
(0.582586 1.25534 0.790395)
(0.569267 1.2079 0.790145)
(0.564463 1.2415 0.827719)
(0.604912 1.26162 0.751185)
(0.600729 1.29811 0.787453)
(0.558557 1.26076 0.872135)
(0.545017 1.21309 0.873839)
(0.637009 1.35125 0.773263)
(0.614798 1.34442 0.810947)
(0.583435 1.3198 0.864013)
(0.622303 1.37578 0.846051)
(0.562289 1.28967 0.908125)
(0.872316 1.08544 0.600746)
(0.882099 1.03935 0.597692)
(0.81813 1.17965 0.624879)
(0.8505 1.15358 0.611285)
(0.881434 1.12267 0.600884)
(0.582664 1.00436 0.771742)
(0.587167 1.04008 0.749446)
(0.604391 0.910232 0.789762)
(0.591013 0.950144 0.787623)
(0.573092 0.975802 0.812558)
(0.873038 0.962546 0.601598)
(0.902141 1.00289 0.592795)
(0.836489 0.933023 0.613749)
(0.611949 1.10083 0.702132)
(0.590243 1.08893 0.734441)
(0.59332 1.14237 0.728766)
(0.569851 1.07948 0.778889)
(0.578484 1.1743 0.758988)
(0.561632 1.16241 0.793827)
(0.602508 1.18709 0.723627)
(0.552625 1.11787 0.815298)
(0.541614 1.1487 0.850821)
(0.547997 1.06694 0.83289)
(0.687655 0.999711 0.660215)
(0.724036 0.965559 0.656827)
(0.699446 0.949549 0.666182)
(0.761129 0.937196 0.646402)
(0.78786 0.880911 0.647436)
(0.766193 0.855431 0.665109)
(0.711336 0.893353 0.676405)
(0.742293 0.834541 0.684171)
(0.812797 0.902034 0.629843)
(0.636487 1.2013 0.689105)
(0.621657 1.23507 0.71674)
(0.641024 1.27618 0.713193)
(0.69883 1.27967 0.664721)
(0.67542 1.30265 0.694933)
(0.658499 1.3317 0.729074)
(0.683039 1.2293 0.658461)
(0.727798 1.25838 0.643668)
(0.657858 1.21377 0.671662)
(0.639115 1.16677 0.678712)
(0.685974 1.19425 0.65047)
(0.648896 1.12916 0.671324)
(0.641883 1.07588 0.676937)
(0.672051 1.04316 0.662935)
(0.742475 1.18425 0.636419)
(0.695641 1.15581 0.647374)
(0.670838 1.1408 0.656514)
(0.787992 1.20692 0.63187)
(0.759773 1.23183 0.636178)
(0.648043 0.853539 0.755332)
(0.646164 0.828124 0.78492)
(0.623728 0.87285 0.781562)
(0.637771 0.808085 0.829564)
(0.665676 0.788763 0.80096)
(0.701962 0.764035 0.773367)
(0.717785 0.778445 0.734856)
(0.693424 0.745107 0.817482)
(0.679311 0.838756 0.724166)
(0.723832 0.812223 0.706079)
(0.533995 1.16606 0.897338)
(0.599775 0.883783 0.822087)
(0.624816 0.792841 0.876897)
(0.608163 0.832439 0.858856)
(0.58514 0.868656 0.868977)
(0.614363 1.38297 0.897443)
(0.611374 1.38642 0.949442)
(0.579747 0.821638 0.952988)
(0.604842 0.784292 0.952877)
(0.630971 0.747669 0.963869)
(0.667206 0.709922 0.963739)
(0.618734 0.778293 0.916706)
(0.542685 0.90408 0.965253)
(0.560139 0.860124 0.96481)
(0.571636 0.852329 0.919037)
(0.523453 0.997632 0.950275)
(0.5319 0.94895 0.949999)
(0.541631 0.936659 0.915544)
(0.521739 1.05769 0.939399)
(0.521613 1.1085 0.939173)
(0.531706 1.04282 0.887209)
(0.531432 1.22489 0.961071)
(0.524957 1.17347 0.961131)
(0.549061 1.27596 0.959761)
(0.578578 1.3359 0.948727)
(0.67524 0.717031 0.907561)
(0.680292 0.7313 0.866692)
(0.651273 0.753012 0.885525)
(0.563883 0.906412 0.880102)
(0.556796 0.951614 0.863273)
(0.550982 1.00863 0.845359)
(0.917955 1.5732 0.820043)
(0.84597 1.5238 0.769212)
(1.15228 1.57042 0.844287)
(0.932523 1.39419 0.630315)
(0.712052 1.49169 0.875475)
(1.2376 1.54524 0.865705)
(1.02524 1.25279 0.576421)
(1.02895 1.36431 0.616032)
(0.808286 1.55522 0.866415)
(0.932029 1.50128 0.714433)
(0.829216 1.43678 0.683386)
(0.916806 1.60462 0.920445)
(1.02829 1.47779 0.680656)
(0.962591 1.31326 0.603446)
(1.01668 1.55416 0.773131)
(0.93886 1.23336 0.59796)
(1.20942 1.50989 0.782065)
(0.894716 1.29326 0.61415)
(0.747403 1.53333 0.935446)
(1.18914 1.58292 0.933695)
(1.09436 1.6042 0.915758)
(1.11088 1.52483 0.747239)
(1.10254 1.32219 0.60678)
(0.745197 1.4665 0.767404)
(0.822755 1.58085 0.944225)
(1.07798 1.57978 0.828798)
(1.1552 1.37723 0.649779)
(1.09793 1.42589 0.656922)
(0.687059 1.47864 0.936869)
(1.26294 1.55636 0.940666)
(0.990653 1.17232 0.573209)
(1.00332 1.59888 0.864062)
(1.01701 1.61707 0.939843)
(1.18618 1.4374 0.699067)
(0.748234 1.39833 0.695691)
(0.839753 1.33866 0.631698)
(1.2496 1.56378 0.9702)
(1.29644 1.54437 0.970123)
(1.29292 1.53876 0.924363)
(0.864298 1.56476 0.84068)
(0.827105 1.54174 0.816839)
(0.883178 1.54962 0.793557)
(0.891008 1.51221 0.739671)
(0.926731 1.53927 0.765013)
(0.918916 1.58805 0.870298)
(0.867013 1.58033 0.891663)
(0.975755 1.52725 0.742243)
(0.970122 1.56474 0.79482)
(0.96254 1.58604 0.841061)
(0.961852 1.60041 0.891348)
(1.01103 1.57904 0.81828)
(0.730164 1.52131 0.965864)
(0.770742 1.55224 0.967636)
(0.660524 1.4523 0.965899)
(0.699195 1.49411 0.968225)
(0.71868 1.507 0.935338)
(0.807573 1.57546 0.971484)
(0.854216 1.59522 0.97203)
(0.786329 1.55848 0.939453)
(0.9015 1.60715 0.960067)
(0.95154 1.61428 0.960086)
(0.87173 1.59393 0.931424)
(1.04595 1.61637 0.969766)
(1.00052 1.61966 0.97011)
(0.969258 1.61082 0.929269)
(1.08364 1.60889 0.958048)
(1.12274 1.59817 0.95671)
(1.05718 1.60934 0.927543)
(1.1703 1.58973 0.967171)
(1.21207 1.57639 0.966197)
(1.14025 1.59007 0.923239)
(1.22442 1.56848 0.93626)
(0.990825 1.12086 0.566091)
(0.965282 1.15705 0.582048)
(1.01509 1.15912 0.566518)
(0.680942 1.44695 0.836981)
(0.676604 1.45485 0.882869)
(0.70118 1.48516 0.904337)
(0.663544 1.44771 0.915771)
(0.69907 1.4334 0.782021)
(0.727697 1.48149 0.819694)
(0.779744 1.54504 0.899466)
(0.731844 1.51299 0.904983)
(0.761788 1.52542 0.868815)
(0.778244 1.51388 0.814518)
(1.19343 1.55655 0.852328)
(1.17951 1.54156 0.810429)
(1.22303 1.52795 0.823275)
(1.2561 1.49291 0.803701)
(1.27209 1.51284 0.843428)
(1.21246 1.56458 0.898628)
(1.24994 1.55096 0.903163)
(1.17005 1.57588 0.888077)
(1.27953 1.53153 0.887375)
(0.718632 1.41354 0.736416)
(0.745923 1.35273 0.668754)
(0.720312 1.37921 0.703605)
(0.747178 1.43283 0.72865)
(0.823245 1.29585 0.631177)
(0.791655 1.32411 0.639913)
(0.795161 1.36788 0.656126)
(0.879226 1.24775 0.614264)
(0.851198 1.2741 0.625924)
(0.868906 1.31535 0.62539)
(0.934898 1.18695 0.596834)
(0.898696 1.21715 0.604441)
(0.91548 1.26368 0.606075)
(0.969311 1.20422 0.590392)
(1.02723 1.41729 0.646455)
(0.980952 1.43574 0.653666)
(0.981542 1.37915 0.624377)
(0.948572 1.35172 0.61626)
(0.997138 1.33929 0.609734)
(0.928393 1.30379 0.608904)
(0.914563 1.34216 0.620478)
(0.886951 1.367 0.631959)
(0.88221 1.46885 0.697192)
(0.883272 1.41449 0.654787)
(0.932732 1.44784 0.66677)
(0.981641 1.48928 0.696418)
(0.834651 1.38642 0.651289)
(0.796382 1.49565 0.765647)
(0.838753 1.47998 0.722796)
(0.788409 1.45247 0.720918)
(0.998077 1.28502 0.595172)
(1.03251 1.3089 0.59877)
(1.06562 1.28696 0.589645)
(1.06664 1.34402 0.610451)
(0.951188 1.27425 0.600936)
(0.987413 1.24532 0.590791)
(1.00755 1.21357 0.577081)
(1.06361 1.23453 0.579731)
(1.11041 1.26874 0.601025)
(1.03201 1.20018 0.571778)
(1.06252 1.39336 0.636594)
(1.06372 1.45121 0.668204)
(1.09916 1.37273 0.630699)
(0.818727 1.56787 0.904924)
(1.0227 1.51471 0.72452)
(0.78887 1.41804 0.688455)
(1.01048 1.60641 0.901881)
(1.06325 1.53681 0.759466)
(1.0712 1.50075 0.712809)
(1.10876 1.47637 0.697269)
(1.09294 1.5512 0.78761)
(1.04792 1.56651 0.800317)
(1.04207 1.58954 0.845937)
(1.15046 1.48194 0.716978)
(1.20126 1.47227 0.739412)
(1.16012 1.51575 0.760743)
(1.23243 1.42581 0.724276)
(1.24584 1.46293 0.764496)
(1.13094 1.5463 0.794612)
(1.142 1.43137 0.675639)
(1.17043 1.40672 0.67404)
(1.12593 1.40073 0.6516)
(1.20835 1.39522 0.689841)
(1.1933 1.3661 0.665765)
(1.12228 1.58675 0.880173)
(1.08616 1.59217 0.872118)
(1.05079 1.5997 0.888663)
(1.11463 1.573 0.835411)
(1.1286 1.3493 0.628154)
(1.1412 1.30335 0.619909)
(1.16819 1.33203 0.640805)
(0.864095 1.01828 1.16696)
(0.763263 0.961721 1.07147)
(0.704306 1.08831 1.05274)
(0.859197 1.09759 1.17198)
(0.697028 1.19156 1.05615)
(0.801824 1.07454 1.13522)
(0.823391 0.970727 1.12803)
(0.755617 1.05445 1.08989)
(0.742091 1.15312 1.09311)
(0.918374 1.05508 1.19483)
(0.719992 0.995681 1.03024)
(0.804208 1.15471 1.13367)
(0.744621 1.22087 1.08769)
(0.759333 0.919928 1.03196)
(0.723768 1.25973 1.05151)
(0.737611 1.28714 1.02663)
(0.744996 1.27503 1.0607)
(0.754862 1.2556 1.07883)
(0.77383 1.232 1.09544)
(0.732793 1.24 1.0706)
(0.797396 0.963455 1.09721)
(0.791782 1.01089 1.10887)
(0.763425 1.00705 1.07971)
(0.740667 1.02507 1.05736)
(0.732621 1.07116 1.06736)
(0.717493 1.042 1.03888)
(0.742747 0.978839 1.04971)
(0.762156 0.941425 1.05119)
(0.740394 0.958558 1.03069)
(0.838916 0.925449 1.1144)
(0.811264 0.917575 1.08618)
(0.792886 0.908016 1.06127)
(0.78983 0.885423 1.04142)
(0.72604 1.11931 1.06815)
(0.719367 1.17175 1.07254)
(0.699703 1.13826 1.05111)
(0.683887 1.16978 1.02652)
(0.689065 1.11747 1.02763)
(0.741955 1.18638 1.08856)
(0.7205 1.20626 1.07129)
(0.694709 1.2161 1.02975)
(0.708983 1.2254 1.05342)
(0.708921 1.2504 1.02582)
(0.906442 1.00371 1.17893)
(0.93054 1.02324 1.19765)
(0.892039 1.0365 1.17943)
(0.956408 1.05775 1.21939)
(0.890905 1.07576 1.1829)
(0.862149 1.05809 1.16885)
(0.92789 1.08772 1.19947)
(0.899371 1.10827 1.18735)
(0.814788 1.02207 1.13218)
(0.780258 1.06343 1.11113)
(0.750351 1.10347 1.08795)
(0.773883 1.11371 1.1092)
(0.728848 0.974172 1.01477)
(0.708297 1.02457 1.0144)
(0.748419 0.936413 1.01563)
(0.700291 1.07096 1.02484)
(0.881094 0.97345 1.15985)
(0.844643 0.993982 1.14752)
(0.834546 1.04515 1.1526)
(0.860674 0.947421 1.14087)
(0.831006 1.08549 1.154)
(0.86252 1.14113 1.16781)
(0.803017 1.20007 1.1174)
(0.834601 1.1706 1.148)
(0.832808 1.1261 1.154)
(0.772845 1.18672 1.101)
(0.78421 0.882809 1.01607)
(0.773642 1.15293 1.10926)
(0.803156 1.11466 1.13409)
(0.848189 1.32056 1.09646)
(1.12109 1.36082 1.11149)
(1.07829 1.39255 1.0595)
(1.06293 1.32154 1.15046)
(0.980246 1.30371 1.15603)
(1.02413 1.22733 1.205)
(1.02437 1.36122 1.11942)
(0.983183 1.39024 1.06776)
(0.949605 1.20936 1.18983)
(1.16157 1.38221 1.05444)
(0.939378 1.3478 1.11533)
(0.902403 1.28363 1.14083)
(0.884296 1.37286 1.06364)
(0.81227 1.3418 1.05273)
(0.993643 1.1475 1.235)
(1.03075 1.39149 1.06256)
(1.05158 1.37799 1.08989)
(1.00453 1.37614 1.09325)
(0.961174 1.36935 1.09279)
(0.982338 1.35497 1.11719)
(1.07324 1.35999 1.11336)
(1.09275 1.34136 1.13153)
(1.04519 1.34157 1.13408)
(1.10083 1.37696 1.08548)
(1.02135 1.31213 1.15167)
(1.00322 1.33375 1.13785)
(0.961915 1.32745 1.135)
(0.789642 1.31619 1.06195)
(0.782495 1.32759 1.02645)
(0.826062 1.28333 1.0994)
(0.807162 1.30463 1.08115)
(0.829156 1.3309 1.0754)
(1.1519 1.33243 1.1341)
(1.1693 1.3546 1.09959)
(1.14213 1.37221 1.08384)
(1.18908 1.36421 1.07)
(1.19508 1.37328 1.02719)
(1.03915 1.18897 1.23702)
(1.06992 1.23438 1.21618)
(1.09104 1.27949 1.17997)
(1.12096 1.31278 1.1551)
(1.04249 1.27654 1.17256)
(1.02324 1.14752 1.25154)
(0.993779 1.1039 1.24681)
(1.00831 1.18617 1.22167)
(0.908774 1.19733 1.17705)
(0.943689 1.16194 1.20115)
(0.973481 1.17593 1.20938)
(0.966681 1.13216 1.22037)
(0.926019 1.24927 1.16294)
(0.882279 1.23693 1.14931)
(0.988057 1.21501 1.1952)
(0.964087 1.2587 1.16856)
(0.942151 1.29429 1.14855)
(1.0031 1.26461 1.17209)
(0.823506 1.35578 1.02808)
(0.853579 1.26469 1.12099)
(0.87578 1.30195 1.11338)
(0.865769 1.34653 1.08107)
(0.847918 1.35695 1.05713)
(0.911141 1.35885 1.08827)
(0.894247 1.33393 1.10264)
(0.922357 1.31676 1.12638)
(1.15137 1.38937 1.02696)
(1.1214 1.38634 1.05662)
(1.11067 1.39408 1.0298)
(0.859763 1.37157 1.03333)
(0.907683 1.38748 1.03426)
(1.00933 1.39914 1.03424)
(0.957352 1.39532 1.03576)
(0.933589 1.38091 1.06501)
(1.05746 1.3998 1.02962)
(0.950657 1.22719 0.815733)
(1.13983 1.35191 0.877674)
(0.924312 1.36662 0.915499)
(1.03487 1.2302 0.789872)
(0.936973 1.31973 0.869486)
(1.04437 1.36051 0.878928)
(0.883515 1.25013 0.85337)
(1.01096 1.30052 0.838005)
(0.846366 1.31044 0.895745)
(1.08464 1.30966 0.832897)
(1.12608 1.3883 0.938555)
(0.993662 1.1502 0.768923)
(1.01036 1.39662 0.943987)
(0.836585 1.35423 0.949615)
(0.806467 1.30044 0.914872)
(0.824645 1.27923 0.894431)
(0.794584 1.33349 0.976385)
(0.801927 1.32258 0.940279)
(0.840639 1.33224 0.920563)
(0.864922 1.28151 0.880586)
(0.84311 1.24869 0.874375)
(0.872717 1.21898 0.845407)
(0.942 1.17088 0.802704)
(0.974039 1.18712 0.795568)
(0.964885 1.13324 0.783671)
(1.01404 1.1888 0.777756)
(0.994519 1.22582 0.80575)
(0.97509 1.31036 0.855852)
(0.980844 1.26466 0.829859)
(0.945207 1.27702 0.849845)
(1.02369 1.26604 0.818463)
(0.907907 1.20578 0.825106)
(0.918046 1.23843 0.835027)
(0.911165 1.28605 0.864769)
(0.835956 1.36161 0.975651)
(0.89238 1.31456 0.886213)
(0.886238 1.33847 0.905995)
(0.931605 1.34346 0.892599)
(0.879943 1.3598 0.933636)
(0.991481 1.10451 0.755953)
(1.02278 1.1478 0.751551)
(1.0447 1.18867 0.762645)
(1.06749 1.33581 0.859153)
(1.04772 1.30505 0.836636)
(1.02919 1.33204 0.859007)
(1.05885 1.27223 0.813216)
(0.99137 1.34055 0.874392)
(1.11346 1.33142 0.854964)
(1.09313 1.35588 0.880491)
(1.16075 1.32707 0.858811)
(1.13181 1.30675 0.83431)
(1.10198 1.27397 0.808089)
(1.07606 1.23477 0.782398)
(1.0854 1.37571 0.908649)
(1.13292 1.37098 0.908521)
(1.17052 1.36833 0.926341)