/*--------------------------------*- C++ -*----------------------------------*\
| =========                 |                                                 |
| \\      /  F ield         | OpenFOAM: The Open Source CFD Toolbox           |
|  \\    /   O peration     | Version:  v1806                                 |
|   \\  /    A nd           | Web:      www.OpenFOAM.com                      |
|    \\/     M anipulation  |                                                 |
\*---------------------------------------------------------------------------*/
FoamFile
{
    version     2.0;
    format      ascii;
    class       volScalarField;
    location    "0.045";
    object      p;
}
// * * * * * * * * * * * * * * * * * * * * * * * * * * * * * * * * * * * * * //

dimensions      [0 2 -2 0 0 0 0];


internalField   nonuniform List<scalar> 
64000
(
-1.40785e-05
-0.105837
-0.237083
-0.266167
-0.265398
-0.309218
-0.329035
-0.360782
-0.381535
-0.415434
-0.424198
-0.469346
-0.485316
-0.530175
-0.554584
-0.586038
-0.587679
-0.643827
-0.556154
-0.830633
-0.442985
-1.01701
-0.825371
-0.982622
-0.887605
-0.83438
-0.791843
-0.692912
-0.742691
-0.648347
-0.745631
-0.760038
-0.859536
-0.891454
-0.957283
-0.96946
-1.01759
-1.01159
-1.03641
-1.03069
-0.108914
-0.2031
-0.28502
-0.292991
-0.275476
-0.305825
-0.324225
-0.348391
-0.362777
-0.393377
-0.402704
-0.437495
-0.446148
-0.457189
-0.465564
-0.467936
-0.544888
-0.576534
-0.509946
-0.688914
-0.403674
-0.902274
-0.799873
-0.907409
-0.828085
-0.76619
-0.740366
-0.658649
-0.682705
-0.652825
-0.715045
-0.725319
-0.825273
-0.850191
-0.925512
-0.931016
-0.987355
-0.990851
-1.02645
-1.02625
-0.234049
-0.272596
-0.305377
-0.312894
-0.283574
-0.307878
-0.322569
-0.342365
-0.365688
-0.393379
-0.407257
-0.428248
-0.434384
-0.513062
-0.571095
-0.619128
-0.637409
-0.68149
-0.631132
-0.828688
-0.619924
-1.14015
-1.13389
-1.27638
-1.25428
-1.22254
-1.22785
-1.15049
-1.154
-1.07146
-1.0762
-1.02286
-1.0451
-1.00317
-1.002
-0.991263
-1.02011
-1.01843
-1.04546
-1.04516
-0.31454
-0.324925
-0.340156
-0.33874
-0.330168
-0.307721
-0.351408
-0.359584
-0.380851
-0.382631
-0.398501
-0.48693
-0.574933
-0.640442
-0.674318
-0.708347
-0.767408
-0.825292
-0.821794
-1.02634
-0.878634
-1.41032
-1.47512
-1.63214
-1.6498
-1.63224
-1.64324
-1.57105
-1.5494
-1.45476
-1.39617
-1.27514
-1.20268
-1.12814
-1.07918
-1.02883
-1.07355
-1.04284
-1.07212
-1.07065
-0.352083
-0.341808
-0.36701
-0.350991
-0.331564
-0.301305
-0.322852
-0.319383
-0.396977
-0.508244
-0.661393
-0.760651
-0.780638
-0.882126
-0.927779
-0.992393
-1.04165
-1.08925
-1.10285
-1.30342
-1.19202
-1.6984
-1.81702
-1.9653
-2.01398
-1.99822
-2.01486
-1.93514
-1.92075
-1.8164
-1.75479
-1.6227
-1.49918
-1.31687
-1.14271
-1.11012
-1.12157
-1.10035
-1.11688
-1.1115
-0.397964
-0.396868
-0.403884
-0.438113
-0.477015
-0.446457
-0.510604
-0.645856
-0.819275
-0.906179
-0.954194
-1.00571
-1.04578
-1.08872
-1.12736
-1.16192
-1.19263
-1.27949
-1.30298
-1.4803
-1.39224
-1.91829
-2.024
-2.16971
-2.2052
-2.19284
-2.19657
-2.13902
-2.10117
-2.02351
-1.93569
-1.83246
-1.70375
-1.63376
-1.35356
-1.20137
-1.20819
-1.15077
-1.16686
-1.16198
-0.452657
-0.467385
-0.465114
-0.528614
-0.618429
-0.642961
-0.915204
-0.917368
-1.04731
-1.10791
-1.18996
-1.25129
-1.29909
-1.35601
-1.38477
-1.40721
-1.43522
-1.41461
-1.45977
-1.57274
-1.56621
-1.82639
-2.16614
-2.23722
-2.32169
-2.30214
-2.31999
-2.27764
-2.25964
-2.18976
-2.10066
-1.97839
-1.84733
-1.70512
-1.4734
-1.25537
-1.2446
-1.19429
-1.21615
-1.2092
-0.473823
-0.482787
-0.517118
-0.621463
-0.710203
-0.861158
-1.04636
-1.11278
-1.24095
-1.31819
-1.39071
-1.45515
-1.50164
-1.53829
-1.57557
-1.58215
-1.5974
-1.56973
-1.55354
-1.66679
-1.70967
-1.71733
-2.1436
-2.25984
-2.35198
-2.36417
-2.38956
-2.37475
-2.37006
-2.31127
-2.23868
-2.11477
-1.98861
-1.82187
-1.66426
-1.34042
-1.30823
-1.25298
-1.26371
-1.26745
-0.563324
-0.525031
-0.578868
-0.695437
-0.817043
-1.0514
-1.17356
-1.26868
-1.37508
-1.47407
-1.55798
-1.62902
-1.6872
-1.73654
-1.77696
-1.79057
-1.79543
-1.74788
-1.66187
-1.73208
-1.77106
-1.65185
-1.88456
-2.24592
-2.33753
-2.41112
-2.43984
-2.45454
-2.46971
-2.42695
-2.34775
-2.22797
-2.09637
-1.90633
-1.76142
-1.45132
-1.34261
-1.3108
-1.30839
-1.32213
-0.566152
-0.561559
-0.642388
-0.773765
-0.994915
-1.16001
-1.30091
-1.39471
-1.50309
-1.58813
-1.70035
-1.76024
-1.81744
-1.86328
-1.90527
-1.92865
-1.95307
-1.86398
-1.86123
-1.81113
-1.78086
-1.5897
-1.50424
-2.0889
-2.31841
-2.41636
-2.50253
-2.5189
-2.5589
-2.50994
-2.47455
-2.34487
-2.21247
-2.04072
-1.87657
-1.61439
-1.41705
-1.38771
-1.36811
-1.3911
-0.640264
-0.627256
-0.715521
-0.909394
-1.10779
-1.27536
-1.41099
-1.51714
-1.61961
-1.71654
-1.78213
-1.8489
-1.92799
-1.96027
-1.99929
-2.0271
-2.03715
-1.94169
-1.98448
-1.80496
-1.59669
-1.32596
-1.15733
-1.75189
-2.30276
-2.46757
-2.55165
-2.59568
-2.6123
-2.61093
-2.54097
-2.452
-2.29883
-2.11775
-1.93435
-1.74093
-1.49085
-1.44325
-1.42593
-1.45215
-0.678285
-0.676303
-0.806035
-0.998587
-1.19536
-1.35898
-1.49575
-1.60594
-1.71123
-1.78522
-1.85985
-1.92033
-1.95639
-2.01284
-2.03005
-2.08659
-2.09335
-2.03443
-2.115
-1.76374
-1.26814
-0.963715
-0.931879
-1.44994
-2.13605
-2.46262
-2.58785
-2.6529
-2.6758
-2.67488
-2.64705
-2.53317
-2.4176
-2.24745
-2.04862
-1.85626
-1.59495
-1.5202
-1.49335
-1.52061
-0.776002
-0.783561
-0.906919
-1.08834
-1.27707
-1.44332
-1.57948
-1.68512
-1.77983
-1.84986
-1.90473
-1.94628
-1.98432
-2.01017
-2.04117
-2.12522
-2.08257
-2.14654
-2.05626
-1.51623
-1.17537
-0.957596
-0.871695
-1.29384
-1.93237
-2.59163
-2.64947
-2.74602
-2.74721
-2.75533
-2.7004
-2.65401
-2.51139
-2.36969
-2.15992
-1.97248
-1.70909
-1.60122
-1.56587
-1.59779
-0.828191
-0.83605
-0.959914
-1.12997
-1.31479
-1.49333
-1.62099
-1.71404
-1.79088
-1.8485
-1.89942
-1.95032
-1.97107
-2.01043
-1.99702
-2.0704
-1.96667
-2.20107
-1.70445
-1.44079
-1.2531
-1.13281
-0.99632
-1.20617
-1.67216
-2.25062
-2.67823
-2.71789
-2.80145
-2.80521
-2.80644
-2.72998
-2.61442
-2.444
-2.26311
-2.05186
-1.83072
-1.66856
-1.63006
-1.66531
-0.923343
-0.930007
-1.04879
-1.20051
-1.37778
-1.52782
-1.65266
-1.73963
-1.81829
-1.86354
-1.899
-1.91386
-1.92631
-1.90729
-1.95552
-1.95887
-2.03564
-1.78805
-1.56829
-1.41948
-1.32179
-1.24379
-1.19513
-1.2317
-1.60129
-1.94107
-2.58968
-2.6996
-2.78205
-2.88117
-2.8547
-2.82836
-2.72795
-2.59655
-2.39023
-2.20024
-1.97622
-1.81494
-1.71663
-1.76207
-0.97767
-0.979955
-1.0913
-1.23656
-1.40932
-1.54719
-1.6706
-1.7375
-1.75586
-1.76084
-1.78004
-1.84339
-1.88201
-1.91305
-1.90418
-1.58572
-1.54495
-1.24815
-1.22576
-1.21934
-1.23656
-1.25525
-1.29299
-1.28901
-1.56497
-1.84706
-2.11955
-2.70443
-2.79703
-2.87291
-2.8854
-2.82999
-2.75195
-2.61881
-2.43122
-2.23639
-2.01992
-1.91747
-1.80252
-1.84161
-0.84525
-0.893453
-1.01153
-1.13811
-1.2978
-1.41825
-1.56632
-1.63718
-1.71614
-1.74973
-1.78079
-1.73543
-1.50435
-1.23281
-1.04819
-0.94778
-0.948948
-0.984466
-1.07424
-1.11553
-1.1858
-1.22272
-1.29903
-1.3199
-1.55133
-1.7906
-2.0353
-2.22994
-2.63864
-2.7969
-2.87346
-2.95013
-2.92079
-2.80602
-2.6437
-2.44331
-2.21913
-2.04478
-1.89669
-1.90863
-1.06873
-0.994645
-1.05215
-1.14446
-1.29982
-1.40939
-1.52982
-1.57814
-1.40296
-1.10304
-0.854316
-0.708655
-0.673708
-0.706035
-0.767576
-0.805692
-0.843187
-0.890938
-0.950696
-1.05114
-1.10746
-1.16441
-1.25494
-1.29322
-1.50152
-1.77617
-1.94447
-2.22638
-2.3644
-2.67353
-2.6723
-2.63428
-2.72128
-2.66004
-2.53258
-2.27599
-2.11632
-2.12906
-2.04737
-2.08748
0.143354
0.0733344
-0.0432051
-0.135788
-0.299389
-0.386892
-0.540259
-0.48168
-0.526109
-0.579149
-0.631759
-0.651784
-0.661075
-0.657095
-0.669806
-0.695022
-0.749219
-0.795912
-0.876232
-0.962501
-1.07608
-1.11774
-1.22805
-1.27027
-1.46721
-1.71168
-1.89902
-2.00995
-2.19652
-2.2207
-2.59978
-3.02115
-2.92079
-2.8136
-2.7067
-2.63018
-2.43235
-2.12039
-2.0071
-1.96811
-0.423758
-0.243028
-0.239312
-0.245999
-0.348368
-0.397886
-0.490366
-0.514599
-0.564767
-0.574429
-0.577056
-0.573196
-0.573732
-0.585242
-0.613521
-0.638762
-0.668777
-0.73125
-0.807912
-0.887033
-1.03788
-1.057
-1.18042
-1.254
-1.38722
-1.65445
-1.81023
-2.03048
-2.15336
-2.19886
-2.19482
-2.06519
-2.242
-2.6354
-2.85502
-2.81783
-2.71583
-2.58566
-2.45544
-2.3878
-0.132107
-0.115438
-0.123247
-0.143806
-0.237147
-0.29262
-0.385552
-0.426382
-0.501437
-0.538771
-0.561123
-0.561138
-0.560794
-0.564094
-0.574205
-0.594801
-0.632743
-0.66883
-0.753183
-0.846141
-0.947813
-1.04921
-1.11089
-1.18386
-1.35987
-1.56053
-1.79107
-1.95993
-2.10889
-2.15107
-2.19442
-2.20997
-2.15207
-1.96336
-1.81749
-1.80735
-1.81693
-1.82076
-1.80748
-1.8844
-0.228226
-0.170571
-0.181982
-0.190701
-0.266459
-0.31609
-0.383389
-0.447074
-0.519825
-0.556075
-0.578549
-0.57374
-0.570648
-0.576479
-0.588425
-0.613976
-0.62218
-0.667159
-0.738288
-0.81006
-0.930712
-1.01177
-1.1299
-1.22451
-1.34462
-1.55733
-1.74237
-1.91316
-2.04932
-2.12792
-2.19526
-2.1689
-2.20405
-2.15448
-2.1306
-2.01848
-1.95648
-1.84588
-1.86628
-1.97507
-0.236372
-0.211089
-0.213471
-0.218777
-0.282093
-0.326081
-0.393868
-0.467219
-0.542091
-0.589974
-0.612778
-0.611427
-0.620682
-0.637682
-0.641606
-0.632788
-0.622047
-0.622141
-0.689808
-0.767585
-0.882911
-1.00152
-1.11045
-1.23875
-1.35585
-1.51827
-1.67831
-1.81713
-1.94043
-2.01071
-2.08697
-2.09906
-2.13245
-2.06751
-2.07325
-1.98261
-1.95284
-1.8048
-1.7476
-1.77758
-0.286627
-0.248517
-0.276133
-0.27114
-0.33723
-0.376225
-0.443155
-0.511585
-0.583388
-0.635609
-0.665077
-0.677215
-0.69416
-0.707161
-0.676509
-0.672409
-0.647368
-0.67568
-0.82363
-0.806085
-0.930097
-1.00541
-1.14763
-1.27263
-1.39921
-1.51569
-1.6645
-1.78709
-1.91532
-1.99259
-2.09936
-2.11827
-2.20299
-2.16055
-2.22541
-2.12734
-2.14222
-1.978
-1.95559
-2.02901
-0.331379
-0.29677
-0.332408
-0.32222
-0.387049
-0.417993
-0.490196
-0.555267
-0.63581
-0.690503
-0.729571
-0.749392
-0.777394
-0.800495
-0.78582
-0.804262
-0.788291
-0.863072
-0.922058
-0.769349
-0.934973
-1.0266
-1.13429
-1.2687
-1.3873
-1.54958
-1.61854
-1.72653
-1.83234
-1.88284
-1.97157
-1.96717
-2.03865
-1.97048
-2.033
-1.91954
-1.95313
-1.81083
-1.81663
-1.89317
-0.389845
-0.344972
-0.386158
-0.378128
-0.439427
-0.480544
-0.540022
-0.599905
-0.668574
-0.736552
-0.785437
-0.834885
-0.87679
-0.902098
-0.890159
-0.920999
-0.909248
-0.958878
-1.03377
-0.772487
-0.978545
-1.04501
-1.16396
-1.29248
-1.40904
-1.53624
-1.70722
-1.74915
-1.88549
-1.94042
-2.09572
-2.13037
-2.27528
-2.21631
-2.33567
-2.19162
-2.24188
-2.03527
-1.98955
-1.93227
-0.45073
-0.414738
-0.442364
-0.447671
-0.500333
-0.549722
-0.621428
-0.682907
-0.76375
-0.824142
-0.881334
-0.920933
-0.949897
-1.003
-1.03879
-1.07531
-1.08059
-1.0894
-1.09078
-0.799967
-1.00856
-1.07896
-1.17736
-1.30387
-1.41351
-1.53272
-1.67816
-1.7768
-1.89213
-1.97474
-2.10133
-2.08804
-2.20832
-2.13178
-2.28202
-2.15999
-2.29489
-2.12783
-2.2081
-2.18887
-0.49332
-0.467518
-0.458045
-0.494378
-0.534975
-0.592097
-0.634234
-0.730053
-0.810786
-0.884827
-0.954359
-1.02035
-1.06089
-1.11174
-1.11155
-1.17421
-1.1993
-1.12998
-1.22116
-0.805994
-1.02978
-1.06824
-1.17014
-1.30273
-1.40028
-1.50792
-1.69114
-1.76498
-1.92654
-1.98891
-2.09527
-2.0388
-2.17047
-2.01792
-2.19361
-1.97934
-2.14146
-1.88418
-1.95567
-1.84363
-0.569655
-0.552888
-0.538656
-0.557478
-0.619183
-0.666325
-0.745284
-0.818375
-0.89613
-0.96597
-1.03367
-1.10322
-1.14875
-1.21007
-1.23782
-1.26601
-1.32083
-1.22033
-1.32249
-0.860002
-1.04509
-1.08658
-1.15463
-1.28432
-1.35709
-1.44443
-1.63871
-1.7423
-1.88733
-1.89419
-2.01051
-1.92962
-2.07202
-1.89205
-2.07007
-1.81097
-1.96521
-1.63292
-1.65652
-1.53511
-0.586265
-0.571374
-0.551481
-0.540544
-0.629298
-0.651283
-0.751548
-0.82585
-0.912672
-0.986212
-1.06017
-1.12989
-1.18789
-1.24582
-1.27509
-1.30268
-1.33208
-1.23778
-1.34905
-0.852001
-1.01579
-1.05027
-1.12002
-1.23142
-1.29917
-1.26931
-1.85412
-1.68671
-1.94793
-1.89799
-2.05367
-1.90081
-2.09523
-1.8264
-2.09262
-1.70262
-1.92589
-1.47452
-1.49605
-1.31672
-0.682771
-0.671471
-0.663795
-0.628163
-0.713557
-0.760501
-0.847588
-0.916791
-1.00161
-1.07621
-1.14545
-1.22288
-1.26898
-1.3302
-1.38071
-1.35014
-1.44571
-1.30049
-1.50471
-0.9561
-1.05201
-1.05005
-1.09017
-1.19005
-1.23626
-1.17386
-1.97447
-1.6458
-1.96833
-1.85379
-2.03933
-1.87538
-2.05682
-1.7605
-1.99822
-1.58727
-1.81112
-1.29088
-1.26897
-0.962539
-0.65661
-0.632762
-0.647669
-0.571885
-0.627715
-0.703032
-0.785199
-0.855485
-0.946824
-1.0264
-1.11838
-1.19247
-1.26661
-1.32726
-1.36245
-1.34576
-1.47967
-1.28617
-1.53223
-0.957608
-1.01991
-0.991935
-1.0178
-1.11532
-1.17844
-1.04647
-2.05373
-1.63364
-1.99475
-1.82353
-2.07168
-1.79746
-2.11423
-1.66041
-2.02673
-1.40232
-1.75534
-1.05767
-1.04279
-0.545987
-0.778548
-0.779625
-0.758954
-0.744072
-0.708235
-0.822102
-0.888255
-0.948038
-1.02934
-1.11015
-1.1904
-1.28758
-1.34901
-1.39445
-1.4693
-1.42986
-1.59127
-1.36952
-1.63293
-1.02091
-1.00021
-0.958274
-0.968259
-1.04573
-1.1476
-0.885576
-2.15176
-1.61312
-2.13789
-1.80742
-2.12821
-1.78181
-2.10132
-1.66391
-2.01903
-1.36104
-1.65529
-0.879972
-0.754953
-0.0551306
-0.685765
-0.665066
-0.670177
-0.628731
-0.595793
-0.644257
-0.753148
-0.794669
-0.901097
-0.980664
-1.1077
-1.18147
-1.28125
-1.34858
-1.46073
-1.41774
-1.62504
-1.36628
-1.65312
-0.997668
-0.8938
-0.846669
-0.847647
-0.894615
-1.0722
-0.706176
-2.15092
-1.63196
-2.14309
-1.77972
-2.16155
-1.69979
-2.13679
-1.48015
-2.03216
-1.13328
-1.56251
-0.405578
-0.356334
0.763891
-0.848625
-0.867114
-0.833679
-0.817383
-0.795812
-0.738498
-0.878247
-0.880761
-0.983231
-1.05028
-1.13345
-1.25292
-1.34969
-1.43139
-1.55762
-1.49944
-1.73846
-1.46184
-1.75246
-1.05375
-0.856903
-0.772755
-0.769816
-0.768703
-1.00339
-0.595145
-2.13782
-1.67555
-2.2787
-1.81664
-2.24392
-1.71361
-2.2253
-1.4703
-2.07033
-1.16041
-1.55125
-0.195773
0.0717298
1.67775
-0.73182
-0.654855
-0.706632
-0.58271
-0.624467
-0.511307
-0.658224
-0.652145
-0.767677
-0.844086
-0.991405
-1.10812
-1.25895
-1.35253
-1.52707
-1.49866
-1.74664
-1.47853
-1.72804
-0.997545
-0.708097
-0.58634
-0.587995
-0.519146
-0.834784
-0.481678
-2.05972
-1.7086
-2.35237
-1.83024
-2.30737
-1.58564
-2.23472
-1.31515
-1.93665
-0.829937
-1.30936
0.551182
0.970455
3.55155
-0.901892
-0.980955
-0.873288
-0.876857
-0.778564
-0.727267
-0.727453
-0.72095
-0.82227
-0.896098
-1.02204
-1.15398
-1.29698
-1.41695
-1.59216
-1.59675
-1.85402
-1.59037
-1.8155
-1.01756
-0.659497
-0.444599
-0.429719
-0.325881
-0.639911
-0.408968
-1.99351
-1.76308
-2.44559
-1.92903
-2.47469
-1.64863
-2.36116
-1.26305
-2.18951
-0.802953
-1.464
0.946147
1.67583
5.36729
-1.19439
-0.737064
-0.846706
-0.478767
-0.572315
-0.330323
-0.49535
-0.454372
-0.585256
-0.661695
-0.822257
-0.962826
-1.14466
-1.28841
-1.5025
-1.53924
-1.82591
-1.62081
-1.74893
-0.894222
-0.462857
-0.103725
-0.131567
0.0162089
-0.368187
-0.350395
-1.9238
-1.82103
-2.57429
-1.94916
-2.49572
-1.5981
-2.24058
-1.11408
-1.88123
-0.23496
-0.771198
2.14282
3.93741
10.1431
-1.02306
-1.29065
-1.08881
-1.03496
-0.627545
-0.548623
-0.519733
-0.490491
-0.58699
-0.659824
-0.7927
-0.935318
-1.11194
-1.26546
-1.48883
-1.55665
-1.89649
-1.76027
-1.80606
-0.944333
-0.437224
0.0868573
0.130419
0.25913
-0.178548
-0.314822
-1.85211
-1.82111
-2.60912
-2.02037
-2.58785
-1.62207
-2.34488
-1.19443
-2.05936
-0.574998
-1.00783
2.85601
4.96428
13.677
-3.53137
-0.777498
-1.10368
-0.593212
-0.514345
-0.272834
-0.358724
-0.342336
-0.463695
-0.548551
-0.708085
-0.853876
-1.04586
-1.20788
-1.44999
-1.57258
-1.96901
-1.90262
-1.75865
-0.812483
-0.281479
0.393749
0.482062
0.50902
-0.08316
-0.395768
-1.8879
-1.96938
-2.8308
-2.06697
-2.56268
-1.5106
-2.19622
-1.03863
-1.69498
0.0797666
0.60454
6.56085
11.8061
25.5717
-0.11066
-0.2154
-0.283504
-0.287144
-0.278131
-0.312935
-0.335319
-0.365671
-0.393876
-0.420704
-0.44349
-0.479589
-0.501012
-0.5357
-0.569768
-0.591366
-0.603331
-0.633358
-0.644568
-0.829975
-0.548297
-1.01211
-0.953648
-1.05994
-0.988268
-0.93346
-0.905969
-0.825329
-0.837499
-0.786572
-0.83356
-0.83266
-0.911352
-0.925562
-0.978049
-0.981917
-1.02537
-1.01969
-1.04518
-1.03416
-0.223362
-0.271292
-0.317435
-0.306464
-0.285794
-0.308003
-0.324385
-0.352794
-0.353761
-0.392182
-0.39146
-0.458676
-0.45669
-0.46784
-0.473057
-0.499967
-0.538368
-0.578797
-0.528754
-0.698225
-0.569177
-0.986455
-0.963603
-1.06834
-1.0127
-0.973866
-0.965061
-0.903362
-0.914327
-0.855719
-0.884298
-0.879026
-0.898386
-0.902288
-0.965054
-0.959619
-1.00871
-1.00377
-1.03332
-1.02443
-0.287229
-0.310076
-0.329827
-0.323763
-0.291145
-0.302567
-0.319345
-0.331597
-0.384383
-0.412381
-0.424006
-0.43107
-0.446035
-0.49691
-0.568194
-0.651877
-0.666184
-0.707723
-0.67527
-0.858778
-0.804905
-1.25849
-1.33832
-1.48239
-1.47334
-1.45177
-1.46173
-1.40006
-1.39809
-1.30279
-1.23933
-1.1396
-1.11495
-1.06838
-1.03206
-1.00523
-1.0384
-1.02983
-1.05312
-1.0461
-0.351113
-0.362569
-0.37117
-0.339221
-0.346102
-0.30992
-0.346784
-0.373178
-0.376911
-0.383203
-0.398057
-0.477848
-0.576149
-0.648224
-0.699613
-0.770989
-0.808353
-0.877019
-0.878865
-1.08398
-1.10763
-1.59477
-1.71101
-1.86337
-1.86991
-1.84865
-1.85066
-1.77273
-1.7439
-1.62313
-1.54531
-1.3688
-1.26357
-1.15049
-1.10469
-1.04272
-1.08942
-1.05589
-1.08009
-1.07411
-0.37405
-0.352844
-0.366395
-0.348077
-0.354576
-0.310214
-0.344056
-0.333924
-0.414644
-0.526856
-0.682584
-0.781041
-0.830949
-0.886799
-0.958272
-1.03401
-1.07252
-1.1439
-1.16509
-1.32997
-1.35307
-1.8059
-1.99063
-2.11283
-2.14287
-2.12986
-2.13496
-2.07264
-2.02298
-1.90038
-1.81255
-1.67666
-1.52619
-1.32219
-1.14128
-1.11625
-1.12695
-1.10587
-1.11771
-1.11505
-0.41669
-0.427623
-0.445698
-0.449783
-0.457513
-0.407767
-0.450555
-0.653631
-0.821533
-0.921347
-0.970368
-1.02334
-1.07224
-1.10581
-1.16817
-1.23749
-1.26047
-1.3294
-1.34178
-1.51183
-1.54059
-2.01907
-2.16111
-2.30661
-2.32822
-2.29822
-2.29917
-2.21084
-2.19716
-2.06322
-1.98222
-1.86879
-1.73458
-1.62893
-1.33539
-1.22504
-1.22142
-1.16919
-1.17594
-1.17238
-0.484528
-0.469185
-0.50601
-0.540171
-0.620323
-0.612392
-0.887509
-0.954242
-1.06484
-1.13189
-1.21282
-1.27285
-1.32652
-1.36809
-1.43026
-1.45011
-1.47
-1.47376
-1.47511
-1.54052
-1.58414
-1.86925
-2.23346
-2.32944
-2.39927
-2.37365
-2.38542
-2.32858
-2.27867
-2.18691
-2.10235
-1.9709
-1.83783
-1.69627
-1.46732
-1.27076
-1.24905
-1.2077
-1.21216
-1.21317
-0.501037
-0.522897
-0.564692
-0.652335
-0.736538
-0.830519
-1.06863
-1.14739
-1.25812
-1.33978
-1.4074
-1.47938
-1.52753
-1.58405
-1.62095
-1.62891
-1.62403
-1.59635
-1.58663
-1.61359
-1.64081
-1.72005
-2.13143
-2.31453
-2.41728
-2.4316
-2.46941
-2.4186
-2.41047
-2.3002
-2.22177
-2.11081
-1.97203
-1.82011
-1.64068
-1.37373
-1.33462
-1.28169
-1.2783
-1.28111
-0.574349
-0.574505
-0.626995
-0.738528
-0.824852
-1.0537
-1.18135
-1.29123
-1.40752
-1.49254
-1.5804
-1.64593
-1.71146
-1.77865
-1.81555
-1.8309
-1.82407
-1.77655
-1.71315
-1.6766
-1.65249
-1.5649
-1.84049
-2.26372
-2.40894
-2.48833
-2.53331
-2.50834
-2.46504
-2.40199
-2.31756
-2.21073
-2.08663
-1.87917
-1.7352
-1.43468
-1.35577
-1.31661
-1.31383
-1.3257
-0.601097
-0.621325
-0.705088
-0.809595
-1.03849
-1.14236
-1.31997
-1.41775
-1.51324
-1.62997
-1.69433
-1.78595
-1.83725
-1.91514
-1.95505
-1.98741
-1.999
-1.95637
-1.90729
-1.77899
-1.63669
-1.42132
-1.46208
-2.02962
-2.38774
-2.50587
-2.61253
-2.56519
-2.57812
-2.47993
-2.44209
-2.37082
-2.25298
-2.10159
-1.88652
-1.61397
-1.44061
-1.41285
-1.38638
-1.40352
-0.67104
-0.686573
-0.771288
-0.971193
-1.15217
-1.27335
-1.42207
-1.51487
-1.61848
-1.7218
-1.80338
-1.88514
-1.94203
-2.01414
-2.06494
-2.09891
-2.11598
-2.08389
-2.0201
-1.77688
-1.46178
-1.13357
-1.08286
-1.66615
-2.34668
-2.57549
-2.66726
-2.69392
-2.62022
-2.63058
-2.56656
-2.44751
-2.30941
-2.12472
-1.95989
-1.71081
-1.47189
-1.45622
-1.43206
-1.45445
-0.723627
-0.745349
-0.879536
-1.07881
-1.24907
-1.38133
-1.49413
-1.62155
-1.69708
-1.79032
-1.86772
-1.957
-1.99271
-2.07051
-2.11492
-2.16691
-2.18532
-2.18011
-2.10858
-1.68205
-1.17856
-0.826713
-0.831031
-1.3493
-2.09588
-2.54997
-2.67276
-2.68383
-2.75264
-2.74379
-2.64527
-2.58058
-2.45749
-2.32129
-2.14321
-1.91066
-1.57752
-1.51413
-1.50868
-1.52803
-0.827981
-0.863073
-0.997269
-1.17998
-1.34563
-1.48
-1.60743
-1.68099
-1.80564
-1.86279
-1.93164
-1.96664
-2.05129
-2.09061
-2.16589
-2.20114
-2.20563
-2.24469
-1.98353
-1.48106
-1.05928
-0.789804
-0.770991
-1.20243
-1.83563
-2.57535
-2.67792
-2.83526
-2.8635
-2.82143
-2.82418
-2.71443
-2.56401
-2.37986
-2.1577
-2.02089
-1.74724
-1.56329
-1.57937
-1.60096
-0.896207
-0.925721
-1.05674
-1.22892
-1.39988
-1.54763
-1.66099
-1.74787
-1.81381
-1.87253
-1.94735
-2.01861
-2.06043
-2.13467
-2.14773
-2.15892
-2.17146
-2.14947
-1.70738
-1.3678
-1.09647
-0.933678
-0.863115
-1.15213
-1.59582
-2.15394
-2.60559
-2.79177
-2.85872
-2.94065
-2.86682
-2.79502
-2.65544
-2.49692
-2.26178
-2.05794
-1.87248
-1.66514
-1.61514
-1.68177
-0.982566
-1.01245
-1.13875
-1.29513
-1.46086
-1.60025
-1.73951
-1.80791
-1.88708
-1.93124
-1.9863
-1.97183
-2.03202
-1.97979
-2.10431
-2.08602
-2.06498
-1.76323
-1.48172
-1.28521
-1.18895
-1.15445
-1.09309
-1.2066
-1.52645
-1.826
-2.56952
-2.74426
-2.89509
-2.95956
-2.94279
-2.88215
-2.76938
-2.61607
-2.38994
-2.18723
-1.9705
-1.86958
-1.66726
-1.78131
-1.0408
-1.06646
-1.19526
-1.34151
-1.50918
-1.63973
-1.75461
-1.81612
-1.85534
-1.86695
-1.88441
-1.90258
-1.93088
-1.86792
-1.97936
-1.66156
-1.47184
-1.23284
-1.14709
-1.14083
-1.18747
-1.22748
-1.22554
-1.26274
-1.54644
-1.90595
-2.2341
-2.86508
-2.96058
-2.98498
-2.9755
-2.92246
-2.82472
-2.67305
-2.46559
-2.24315
-2.04627
-1.93048
-1.78185
-1.83626
-0.952938
-1.01144
-1.12989
-1.27653
-1.435
-1.55234
-1.67202
-1.73113
-1.7871
-1.78777
-1.78498
-1.68981
-1.48338
-1.18709
-1.14682
-0.947244
-0.971387
-0.95585
-1.00697
-1.05027
-1.13938
-1.19832
-1.24732
-1.28873
-1.55464
-1.7569
-2.04936
-2.26726
-2.76769
-2.95762
-3.00387
-3.01117
-2.967
-2.84713
-2.65312
-2.45016
-2.19339
-2.07879
-1.92589
-1.89045
-1.06204
-1.01128
-1.06783
-1.18415
-1.31433
-1.42686
-1.53315
-1.55375
-1.43756
-1.16798
-0.940376
-0.771101
-0.715461
-0.681648
-0.757464
-0.74817
-0.780335
-0.825985
-0.886592
-0.966149
-1.05707
-1.13359
-1.20081
-1.26548
-1.48146
-1.72504
-1.93453
-2.10024
-2.27627
-2.60741
-2.82521
-2.87799
-2.88253
-2.79044
-2.64217
-2.47107
-2.23868
-2.10126
-2.1025
-2.08531
-0.020551
-0.127087
-0.217929
-0.340868
-0.459458
-0.568988
-0.667495
-0.613947
-0.594944
-0.59803
-0.595421
-0.58118
-0.571405
-0.560893
-0.593401
-0.636937
-0.682408
-0.733285
-0.807199
-0.884223
-0.99223
-1.07829
-1.16886
-1.24883
-1.4376
-1.69234
-1.87816
-1.99597
-2.12038
-2.20189
-2.4247
-2.75185
-2.916
-2.92642
-2.84368
-2.62905
-2.37616
-2.13612
-2.00986
-1.99584
-0.290385
-0.195837
-0.204245
-0.23849
-0.31728
-0.37976
-0.456911
-0.471729
-0.495765
-0.49166
-0.495685
-0.481799
-0.485104
-0.49282
-0.523996
-0.556625
-0.609018
-0.671386
-0.735979
-0.817225
-0.918484
-1.02032
-1.12262
-1.20456
-1.40438
-1.63765
-1.82762
-1.97202
-2.07332
-2.12233
-2.16981
-2.13785
-2.2288
-2.48953
-2.70593
-2.62499
-2.52057
-2.40295
-2.367
-2.4325
-0.179712
-0.10173
-0.105135
-0.120961
-0.191971
-0.238078
-0.309262
-0.371252
-0.436611
-0.466114
-0.485601
-0.483915
-0.471995
-0.475938
-0.474844
-0.506191
-0.535886
-0.597593
-0.688933
-0.767473
-0.859731
-0.977445
-1.08069
-1.1772
-1.34869
-1.56889
-1.77701
-1.94052
-2.04473
-2.0878
-2.11616
-2.11487
-2.10334
-1.99106
-1.90129
-1.83281
-1.83292
-1.76536
-1.77854
-1.85739
-0.235242
-0.165962
-0.172085
-0.177932
-0.249005
-0.28151
-0.356531
-0.416037
-0.480856
-0.505962
-0.517935
-0.497876
-0.470286
-0.455608
-0.449254
-0.470265
-0.493059
-0.570502
-0.647093
-0.763164
-0.867818
-0.945409
-1.10174
-1.19195
-1.33068
-1.53063
-1.7279
-1.89485
-2.02563
-2.09527
-2.14079
-2.12371
-2.15398
-2.08243
-2.04145
-1.93198
-1.88916
-1.75607
-1.75423
-1.89993
-0.245078
-0.189508
-0.194049
-0.200454
-0.27048
-0.29956
-0.375019
-0.443437
-0.513341
-0.550436
-0.560815
-0.53444
-0.503249
-0.485175
-0.490071
-0.525924
-0.531512
-0.552545
-0.632694
-0.7205
-0.820441
-0.982461
-1.00539
-1.19364
-1.32125
-1.49261
-1.65348
-1.79681
-1.91613
-1.98617
-2.05753
-2.05954
-2.08608
-2.00817
-2.02007
-1.92464
-1.90332
-1.74816
-1.69284
-1.80168
-0.289865
-0.252122
-0.259006
-0.25735
-0.323505
-0.351994
-0.425525
-0.494489
-0.564595
-0.606356
-0.619305
-0.601502
-0.570074
-0.577018
-0.58025
-0.586042
-0.565665
-0.617263
-0.732968
-0.75531
-0.861963
-0.967754
-1.10861
-1.25192
-1.33205
-1.49085
-1.63739
-1.75734
-1.88871
-1.96351
-2.06968
-2.08264
-2.16787
-2.12095
-2.19819
-2.10454
-2.12784
-1.94548
-1.89742
-1.99532
-0.33538
-0.307284
-0.311471
-0.307135
-0.366549
-0.406626
-0.473328
-0.548118
-0.618784
-0.669147
-0.694792
-0.693744
-0.68452
-0.705558
-0.699753
-0.719819
-0.734241
-0.832516
-0.868961
-0.747957
-0.856628
-0.980437
-1.07693
-1.24887
-1.35541
-1.5102
-1.58973
-1.69925
-1.79529
-1.84471
-1.92856
-1.92108
-1.9956
-1.92127
-1.99839
-1.87896
-1.92406
-1.75797
-1.75418
-1.82872
-0.385351
-0.357384
-0.377719
-0.376489
-0.429837
-0.467305
-0.540933
-0.605545
-0.677576
-0.736804
-0.779974
-0.810043
-0.830236
-0.862622
-0.872271
-0.926273
-0.957472
-0.993672
-0.989239
-0.755115
-0.885001
-0.959245
-1.13197
-1.26408
-1.39399
-1.50055
-1.69089
-1.693
-1.83918
-1.89328
-2.05227
-2.06687
-2.21797
-2.14981
-2.28726
-2.14078
-2.20858
-2.00856
-1.96946
-1.90193
-0.457759
-0.427279
-0.43607
-0.448667
-0.499158
-0.549464
-0.616954
-0.689006
-0.767453
-0.835166
-0.893867
-0.942707
-0.979852
-1.02848
-1.05166
-1.10282
-1.10276
-1.10158
-1.09164
-0.797591
-0.92985
-1.01402
-1.11815
-1.28003
-1.38797
-1.52418
-1.63008
-1.76267
-1.83347
-1.93954
-2.0693
-2.0658
-2.19659
-2.11041
-2.26977
-2.12557
-2.26406
-2.0802
-2.10215
-2.10746
-0.50159
-0.476015
-0.468906
-0.489988
-0.539283
-0.586517
-0.659033
-0.742616
-0.828003
-0.907869
-0.982912
-1.04998
-1.09722
-1.1496
-1.1647
-1.21171
-1.21707
-1.17438
-1.18391
-0.815485
-0.960613
-0.99379
-1.10609
-1.25854
-1.36651
-1.48499
-1.63956
-1.77309
-1.86791
-1.95549
-2.09669
-2.0444
-2.19652
-2.03874
-2.23752
-2.01441
-2.19309
-1.90923
-1.96492
-1.83106
-0.577487
-0.559867
-0.549055
-0.557014
-0.623402
-0.670911
-0.748554
-0.821985
-0.914895
-1.00266
-1.07969
-1.15151
-1.19621
-1.24781
-1.26218
-1.29176
-1.31408
-1.25497
-1.29687
-0.864591
-0.999215
-1.04945
-1.09954
-1.22392
-1.31158
-1.38347
-1.59745
-1.7795
-1.90163
-1.90428
-2.01787
-1.93251
-2.11048
-1.92065
-2.12557
-1.8608
-2.04404
-1.68236
-1.72773
-1.49719
-0.597895
-0.57479
-0.566519
-0.541089
-0.631658
-0.666509
-0.760033
-0.837196
-0.916951
-1.0067
-1.09812
-1.17449
-1.22758
-1.27719
-1.29446
-1.3148
-1.34423
-1.26882
-1.31902
-0.89238
-0.988296
-1.00889
-1.06329
-1.16214
-1.24205
-1.26778
-1.77653
-1.7585
-1.96781
-1.86346
-2.06989
-1.9097
-2.11661
-1.85998
-2.16839
-1.76937
-2.06219
-1.57191
-1.57916
-1.28166
-0.69407
-0.679328
-0.67328
-0.640831
-0.713654
-0.771771
-0.855974
-0.931156
-1.00998
-1.08805
-1.16556
-1.2487
-1.30236
-1.3616
-1.38632
-1.3918
-1.44868
-1.34625
-1.4794
-0.963881
-0.992564
-0.992202
-1.05217
-1.1115
-1.19559
-1.19629
-1.8895
-1.75856
-1.99367
-1.84666
-2.03605
-1.87113
-2.11471
-1.78054
-2.08096
-1.69438
-1.99033
-1.4593
-1.43996
-1.03125
-0.667219
-0.644549
-0.648788
-0.58751
-0.635188
-0.708578
-0.796427
-0.861699
-0.95988
-1.0366
-1.12804
-1.20745
-1.27886
-1.33545
-1.39521
-1.39329
-1.50904
-1.31083
-1.51812
-0.963272
-1.00139
-0.922556
-0.983645
-1.02442
-1.13007
-1.08927
-1.95659
-1.78189
-2.01832
-1.83281
-2.04794
-1.82071
-2.11704
-1.73804
-2.12095
-1.50533
-2.02047
-1.29762
-1.37105
-0.751715
-0.791504
-0.793658
-0.764422
-0.753313
-0.72102
-0.826076
-0.899741
-0.961017
-1.05181
-1.12715
-1.21531
-1.29964
-1.37604
-1.45109
-1.51672
-1.50459
-1.60368
-1.4446
-1.62808
-1.05839
-0.981349
-0.881418
-0.934988
-0.945296
-1.08428
-0.971972
-2.01837
-1.77276
-2.13175
-1.82307
-2.13121
-1.75303
-2.17257
-1.66213
-2.15153
-1.51964
-1.94047
-1.25248
-1.30446
-0.432862
-0.699009
-0.676798
-0.692975
-0.612966
-0.621397
-0.629604
-0.767894
-0.803496
-0.9124
-0.998465
-1.11177
-1.20654
-1.32084
-1.36896
-1.49805
-1.49714
-1.67643
-1.44068
-1.68132
-1.03525
-0.891453
-0.759293
-0.811977
-0.790232
-0.976043
-0.816453
-1.99291
-1.77541
-2.20767
-1.85617
-2.15984
-1.71077
-2.14899
-1.52562
-2.10983
-1.30239
-1.9922
-0.849146
-1.12474
0.182786
-0.860309
-0.881181
-0.850676
-0.847296
-0.771214
-0.752879
-0.892201
-0.903941
-1.00669
-1.08093
-1.19566
-1.30585
-1.38947
-1.4776
-1.59945
-1.51888
-1.79445
-1.55568
-1.79005
-1.11285
-0.868355
-0.690276
-0.730607
-0.661989
-0.878167
-0.7006
-1.98259
-1.79007
-2.33309
-1.88969
-2.27757
-1.72068
-2.25324
-1.51176
-2.16031
-1.29721
-1.97092
-0.91102
-0.80024
0.882984
-0.72879
-0.677271
-0.739706
-0.585346
-0.686895
-0.451376
-0.696739
-0.66691
-0.809187
-0.882121
-1.0352
-1.13701
-1.29617
-1.39975
-1.6095
-1.5658
-1.85325
-1.56195
-1.80381
-1.04882
-0.724521
-0.472831
-0.525114
-0.416211
-0.709998
-0.559564
-1.91518
-1.79711
-2.39945
-1.91906
-2.38238
-1.64842
-2.25784
-1.33493
-2.08724
-0.949106
-1.70595
-0.181027
-0.340227
2.62176
-0.897256
-1.00071
-0.903225
-0.909832
-0.821995
-0.707135
-0.797272
-0.782743
-0.889114
-0.963271
-1.08153
-1.22065
-1.35841
-1.48514
-1.63166
-1.6856
-1.92653
-1.75833
-1.90349
-1.13885
-0.744565
-0.350069
-0.375313
-0.209946
-0.550746
-0.466049
-1.87556
-1.82185
-2.51142
-1.98792
-2.52945
-1.71677
-2.39466
-1.38578
-2.24351
-1.00728
-1.76904
0.10263
0.283939
4.48168
-1.12609
-0.710815
-0.859524
-0.517219
-0.613222
-0.372461
-0.540274
-0.499938
-0.653208
-0.727754
-0.902689
-1.0403
-1.22947
-1.38922
-1.60799
-1.70777
-1.99929
-1.81915
-1.92601
-1.05486
-0.559433
-0.0774564
-0.0851598
0.0772106
-0.31037
-0.361895
-1.81671
-1.85966
-2.65653
-2.00944
-2.58502
-1.63475
-2.32444
-1.21232
-2.05817
-0.575648
-1.10401
1.45528
2.88091
9.88788
-0.796683
-1.24685
-1.1255
-1.10342
-0.826803
-0.581688
-0.625284
-0.579388
-0.674136
-0.743896
-0.880762
-1.04326
-1.2322
-1.40155
-1.64605
-1.74193
-2.12283
-2.01432
-2.01916
-1.1551
-0.581003
0.0714687
0.15344
0.323811
-0.120122
-0.280146
-1.77216
-1.84342
-2.68136
-2.09091
-2.65882
-1.63254
-2.35789