/*--------------------------------*- C++ -*----------------------------------*\
| =========                 |                                                 |
| \\      /  F ield         | OpenFOAM: The Open Source CFD Toolbox           |
|  \\    /   O peration     | Version:  v1806                                 |
|   \\  /    A nd           | Web:      www.OpenFOAM.com                      |
|    \\/     M anipulation  |                                                 |
\*---------------------------------------------------------------------------*/
FoamFile
{
    version     2.0;
    format      ascii;
    class       volScalarField;
    location    "0.0505";
    object      p;
}
// * * * * * * * * * * * * * * * * * * * * * * * * * * * * * * * * * * * * * //

dimensions      [0 2 -2 0 0 0 0];


internalField   nonuniform List<scalar> 
64000
(
-7.93986e-06
-0.107716
-0.230313
-0.248385
-0.282434
-0.322416
-0.348986
-0.38489
-0.407682
-0.446336
-0.458287
-0.507788
-0.52733
-0.571845
-0.594717
-0.630494
-0.620939
-0.687803
-0.584136
-0.851747
-0.490627
-0.954301
-0.766921
-0.924691
-0.800337
-0.769408
-0.701301
-0.615029
-0.65225
-0.555592
-0.645817
-0.656637
-0.753077
-0.784781
-0.848972
-0.859496
-0.903806
-0.898269
-0.922131
-0.916452
-0.108228
-0.206106
-0.284121
-0.271516
-0.292426
-0.322401
-0.346359
-0.375883
-0.394281
-0.427782
-0.438432
-0.472168
-0.485552
-0.500882
-0.511184
-0.516508
-0.582838
-0.629352
-0.541673
-0.734255
-0.442624
-0.85339
-0.732276
-0.852272
-0.736603
-0.699604
-0.6463
-0.578305
-0.588224
-0.561889
-0.618258
-0.624618
-0.719217
-0.748411
-0.817331
-0.825338
-0.87483
-0.878862
-0.912275
-0.911801
-0.237165
-0.274093
-0.310434
-0.298187
-0.294883
-0.325551
-0.342515
-0.366179
-0.387466
-0.419038
-0.442973
-0.473479
-0.485543
-0.558328
-0.610577
-0.661162
-0.668627
-0.727384
-0.65406
-0.870271
-0.648016
-1.08699
-1.05433
-1.21207
-1.152
-1.14382
-1.1201
-1.05293
-1.04306
-0.960088
-0.964511
-0.908735
-0.931136
-0.886762
-0.891338
-0.882256
-0.906077
-0.905824
-0.929903
-0.92938
-0.312602
-0.321234
-0.337321
-0.328148
-0.322909
-0.326637
-0.362336
-0.382638
-0.414876
-0.429693
-0.448519
-0.520348
-0.606828
-0.673954
-0.713439
-0.756001
-0.803972
-0.883285
-0.855628
-1.08792
-0.914641
-1.36895
-1.39607
-1.57339
-1.54698
-1.55038
-1.52954
-1.46231
-1.42376
-1.32615
-1.263
-1.14748
-1.08349
-1.01838
-0.96833
-0.927518
-0.961046
-0.93256
-0.95708
-0.954425
-0.353553
-0.342088
-0.369716
-0.357796
-0.342117
-0.332196
-0.362075
-0.363596
-0.429945
-0.508727
-0.653861
-0.768885
-0.802836
-0.904245
-0.955853
-1.02954
-1.07646
-1.14424
-1.1252
-1.35516
-1.22111
-1.65516
-1.73299
-1.89902
-1.90957
-1.90832
-1.89507
-1.81553
-1.78033
-1.66728
-1.59468
-1.45999
-1.3362
-1.17878
-1.03364
-1.00311
-0.997376
-0.983666
-0.996248
-0.992054
-0.390592
-0.385441
-0.39479
-0.427701
-0.438153
-0.431403
-0.467385
-0.603507
-0.763388
-0.885052
-0.942846
-1.00426
-1.05778
-1.11075
-1.15859
-1.22426
-1.2296
-1.35306
-1.34806
-1.56039
-1.44678
-1.88601
-1.95735
-2.11133
-2.10901
-2.10813
-2.08132
-2.01861
-1.95941
-1.87192
-1.76973
-1.65964
-1.52145
-1.44902
-1.20299
-1.08927
-1.07439
-1.03152
-1.04403
-1.0399
-0.44713
-0.458649
-0.460756
-0.52264
-0.608107
-0.647112
-0.873276
-0.900915
-1.01795
-1.08086
-1.16943
-1.2412
-1.30054
-1.36711
-1.40682
-1.45051
-1.47613
-1.51231
-1.49861
-1.66974
-1.62368
-1.89718
-2.10909
-2.19875
-2.23829
-2.22368
-2.21266
-2.15899
-2.11857
-2.03516
-1.93365
-1.80213
-1.65986
-1.5193
-1.3121
-1.1361
-1.10837
-1.06748
-1.08946
-1.08391
-0.465662
-0.471009
-0.511106
-0.602175
-0.693536
-0.81751
-1.00382
-1.06749
-1.20237
-1.28932
-1.37307
-1.4421
-1.50053
-1.54188
-1.58893
-1.61471
-1.62924
-1.65407
-1.59805
-1.76492
-1.77324
-1.82091
-2.17182
-2.24059
-2.29717
-2.2887
-2.28538
-2.25497
-2.22617
-2.1545
-2.06714
-1.93662
-1.80028
-1.63742
-1.4833
-1.21981
-1.17447
-1.12459
-1.13628
-1.13991
-0.556644
-0.520029
-0.571836
-0.684224
-0.803349
-1.00727
-1.13822
-1.23464
-1.3476
-1.44825
-1.54052
-1.61302
-1.6767
-1.72347
-1.76565
-1.78585
-1.78548
-1.77843
-1.68712
-1.81737
-1.8401
-1.76753
-2.05498
-2.24281
-2.29762
-2.34136
-2.33715
-2.33735
-2.32786
-2.27142
-2.17925
-2.05026
-1.91079
-1.71993
-1.57743
-1.31299
-1.2114
-1.1761
-1.17945
-1.19214
-0.561386
-0.554159
-0.638915
-0.761701
-0.961639
-1.122
-1.26968
-1.36298
-1.48156
-1.56666
-1.68948
-1.74584
-1.80613
-1.84455
-1.8815
-1.89701
-1.90641
-1.85224
-1.7995
-1.84455
-1.86687
-1.75039
-1.72081
-2.18493
-2.26491
-2.34806
-2.38082
-2.39756
-2.4097
-2.35009
-2.2966
-2.16502
-2.02631
-1.85187
-1.69357
-1.45757
-1.2915
-1.25167
-1.23919
-1.25933
-0.634303
-0.622957
-0.710695
-0.88507
-1.08771
-1.24723
-1.38795
-1.49726
-1.60713
-1.70448
-1.77758
-1.83935
-1.92456
-1.94097
-1.97138
-1.98006
-1.99202
-1.83832
-1.93282
-1.78395
-1.66676
-1.49184
-1.31721
-1.93949
-2.23663
-2.37862
-2.42759
-2.46969
-2.47345
-2.4539
-2.37412
-2.27496
-2.11913
-1.93248
-1.75297
-1.56911
-1.35817
-1.30731
-1.29306
-1.31982
-0.680135
-0.673915
-0.799949
-0.989744
-1.18434
-1.34503
-1.48612
-1.59813
-1.70593
-1.78543
-1.86392
-1.92261
-1.9561
-2.01005
-2.01673
-2.04037
-2.05287
-1.91964
-2.01965
-1.79596
-1.38062
-1.0403
-0.985314
-1.63281
-2.15322
-2.34782
-2.47066
-2.51002
-2.53409
-2.51659
-2.4747
-2.35363
-2.23165
-2.05995
-1.86422
-1.68117
-1.45344
-1.38646
-1.35858
-1.38735
-0.757344
-0.768008
-0.89361
-1.07526
-1.26688
-1.43399
-1.57718
-1.68639
-1.79248
-1.86557
-1.92807
-1.96673
-2.00498
-2.0141
-2.04234
-2.08304
-2.09768
-1.99546
-2.13511
-1.75256
-1.14107
-0.728053
-0.81995
-1.43736
-2.00158
-2.44121
-2.51463
-2.60053
-2.5966
-2.59471
-2.53388
-2.47932
-2.335
-2.1858
-1.97831
-1.79626
-1.55669
-1.46446
-1.42949
-1.46091
-0.84341
-0.848409
-0.972611
-1.14441
-1.33256
-1.51715
-1.64436
-1.74467
-1.82462
-1.88106
-1.9295
-1.97453
-1.99943
-2.03321
-2.04248
-2.09196
-2.02911
-2.08453
-2.00973
-1.45201
-1.11535
-0.931093
-0.884433
-1.25398
-1.79038
-2.37124
-2.54547
-2.61444
-2.65204
-2.6423
-2.63257
-2.54817
-2.43056
-2.26163
-2.08144
-1.87895
-1.67077
-1.53141
-1.49584
-1.53246
-0.872526
-0.889043
-1.01563
-1.1771
-1.36368
-1.51942
-1.6624
-1.75778
-1.85497
-1.90839
-1.95548
-1.98057
-2.00596
-1.96916
-1.97422
-1.98834
-1.93923
-2.12517
-1.68161
-1.4189
-1.26943
-1.17229
-1.13022
-1.19563
-1.5879
-2.00991
-2.53667
-2.56044
-2.67379
-2.70971
-2.68893
-2.65734
-2.54857
-2.41469
-2.21243
-2.02872
-1.81813
-1.66069
-1.57683
-1.61305
-1.05283
-1.03891
-1.14798
-1.29408
-1.47001
-1.61505
-1.73622
-1.81336
-1.85194
-1.84693
-1.84583
-1.87552
-1.93037
-1.95313
-2.01193
-1.91233
-1.69352
-1.558
-1.40921
-1.30905
-1.31142
-1.28354
-1.27893
-1.26341
-1.47252
-1.86508
-2.32209
-2.57712
-2.65618
-2.71385
-2.69583
-2.6601
-2.57873
-2.44952
-2.27464
-2.07604
-1.87685
-1.78047
-1.67312
-1.71413
-0.745862
-0.811343
-0.948062
-1.09944
-1.27928
-1.41685
-1.57624
-1.65744
-1.76523
-1.82806
-1.88176
-1.92624
-1.86088
-1.64363
-1.39685
-1.16569
-1.13391
-1.08065
-1.13048
-1.15456
-1.22639
-1.23523
-1.28338
-1.28653
-1.41535
-1.72553
-1.91457
-2.42284
-2.59318
-2.676
-2.75331
-2.78839
-2.716
-2.61108
-2.44822
-2.26928
-2.05064
-1.86935
-1.73683
-1.74266
-1.19426
-1.1354
-1.19047
-1.28083
-1.42254
-1.53673
-1.65548
-1.73787
-1.73398
-1.46167
-1.19726
-0.97781
-0.848007
-0.772897
-0.836006
-0.85984
-0.947876
-0.956972
-1.01021
-1.07975
-1.13373
-1.1756
-1.24033
-1.27585
-1.37705
-1.74905
-1.977
-2.12414
-2.42135
-2.50487
-2.48429
-2.59762
-2.59949
-2.55283
-2.45842
-2.25844
-2.07926
-2.02372
-1.92999
-1.97038
0.0811788
0.0222797
-0.105262
-0.221735
-0.411935
-0.527666
-0.691089
-0.635909
-0.579747
-0.633305
-0.699295
-0.749366
-0.775769
-0.760214
-0.767033
-0.771824
-0.815429
-0.83385
-0.910628
-0.974165
-1.08712
-1.11708
-1.20142
-1.24498
-1.3389
-1.64303
-1.87218
-2.00541
-2.06635
-2.29515
-2.68334
-2.74427
-2.6747
-2.55092
-2.39862
-2.28841
-2.13359
-1.88928
-1.83373
-1.79107
-0.513622
-0.348255
-0.333759
-0.327934
-0.413093
-0.463765
-0.542233
-0.598486
-0.664721
-0.688399
-0.694381
-0.684481
-0.67092
-0.666413
-0.684041
-0.698071
-0.725727
-0.764688
-0.831502
-0.893919
-1.01479
-1.07786
-1.16481
-1.21492
-1.30141
-1.56782
-1.77015
-1.99269
-2.0539
-2.06839
-2.00355
-2.0347
-2.34262
-2.72578
-2.81807
-2.7205
-2.58961
-2.46535
-2.28168
-2.23685
-0.121706
-0.110604
-0.126812
-0.159305
-0.261706
-0.331953
-0.426645
-0.48109
-0.560652
-0.613442
-0.647121
-0.655616
-0.646223
-0.638723
-0.637329
-0.650058
-0.676595
-0.699132
-0.7673
-0.846958
-0.933618
-1.04984
-1.06688
-1.17899
-1.30733
-1.51453
-1.74381
-1.89738
-2.01662
-2.03797
-2.07429
-2.04588
-1.95055
-1.73509
-1.70857
-1.74781
-1.76819
-1.7661
-1.77862
-1.76177
-0.276833
-0.216565
-0.22521
-0.231678
-0.305564
-0.36301
-0.42598
-0.503924
-0.584397
-0.631617
-0.660794
-0.658649
-0.64403
-0.638121
-0.631554
-0.644596
-0.65618
-0.689529
-0.757833
-0.812159
-0.935961
-0.995519
-1.12884
-1.19508
-1.3117
-1.50137
-1.67544
-1.8375
-1.95611
-2.0175
-2.05463
-2.02789
-2.08405
-2.0282
-1.99645
-1.87132
-1.78915
-1.6717
-1.66586
-1.74537
-0.247164
-0.228147
-0.229312
-0.239679
-0.304093
-0.360021
-0.430061
-0.512218
-0.598061
-0.657295
-0.687705
-0.68634
-0.680003
-0.678984
-0.676416
-0.67595
-0.665759
-0.657877
-0.719745
-0.775494
-0.884001
-0.992027
-1.08589
-1.22882
-1.30532
-1.46503
-1.60682
-1.73653
-1.85081
-1.90873
-1.97678
-1.96941
-1.98599
-1.90456
-1.9078
-1.82236
-1.78696
-1.64414
-1.60384
-1.69203
-0.299311
-0.263258
-0.287972
-0.287125
-0.354871
-0.401465
-0.471766
-0.548697
-0.630143
-0.693326
-0.729395
-0.739325
-0.739877
-0.749862
-0.725223
-0.707111
-0.69374
-0.681799
-0.813035
-0.818736
-0.941192
-0.986822
-1.14584
-1.23796
-1.38193
-1.45417
-1.59868
-1.70446
-1.82453
-1.88524
-1.98546
-1.99099
-2.07359
-2.02688
-2.08365
-1.98353
-1.98248
-1.82099
-1.77611
-1.85534
-0.339587
-0.307146
-0.339142
-0.334027
-0.400674
-0.439711
-0.517052
-0.590929
-0.685286
-0.750086
-0.79026
-0.807896
-0.817317
-0.833557
-0.811082
-0.803946
-0.80086
-0.810881
-0.919766
-0.809481
-0.95875
-1.02027
-1.13244
-1.24935
-1.35359
-1.51415
-1.5546
-1.66408
-1.75154
-1.79608
-1.87517
-1.85609
-1.91587
-1.83756
-1.88921
-1.77823
-1.80312
-1.67129
-1.67493
-1.77962
-0.382287
-0.341006
-0.383207
-0.378831
-0.443606
-0.488839
-0.554218
-0.623503
-0.69877
-0.77364
-0.831549
-0.869496
-0.908128
-0.926062
-0.913372
-0.920767
-0.930184
-0.930732
-1.03172
-0.818168
-1.00276
-1.03808
-1.17426
-1.26986
-1.39192
-1.48814
-1.62764
-1.71126
-1.80934
-1.84394
-1.99284
-2.01311
-2.1522
-2.08668
-2.189
-2.04206
-2.06712
-1.86493
-1.80235
-1.74919
-0.439098
-0.404924
-0.436521
-0.443662
-0.501301
-0.557119
-0.637193
-0.705108
-0.797479
-0.867411
-0.919502
-0.96311
-0.975916
-1.01449
-1.03756
-1.04608
-1.07516
-1.05488
-1.11419
-0.876864
-1.05024
-1.08904
-1.19853
-1.29456
-1.40493
-1.50568
-1.63294
-1.74934
-1.84062
-1.93214
-2.05552
-2.0407
-2.16271
-2.09119
-2.23725
-2.13183
-2.25594
-2.1083
-2.16478
-2.15051
-0.46921
-0.444247
-0.441117
-0.477725
-0.522935
-0.584733
-0.63221
-0.737726
-0.825229
-0.906062
-0.971911
-1.03349
-1.07431
-1.11672
-1.13238
-1.15639
-1.20063
-1.11478
-1.20601
-0.897054
-1.08111
-1.10009
-1.20648
-1.29977
-1.42409
-1.47784
-1.68053
-1.72966
-1.88953
-1.92164
-2.03292
-1.96253
-2.09017
-1.94458
-2.11254
-1.92104
-2.07173
-1.84136
-1.90012
-1.80102
-0.541979
-0.525059
-0.517579
-0.538075
-0.604594
-0.659992
-0.74607
-0.825152
-0.910003
-0.984247
-1.04985
-1.1162
-1.16495
-1.21278
-1.25873
-1.25098
-1.34174
-1.19349
-1.32404
-0.974605
-1.12886
-1.13921
-1.21608
-1.2971
-1.40947
-1.39705
-1.63163
-1.68807
-1.88922
-1.84529
-1.97243
-1.87374
-2.01504
-1.84065
-2.00802
-1.77684
-1.91268
-1.61272
-1.61909
-1.50367
-0.545227
-0.530706
-0.516859
-0.509547
-0.598231
-0.623602
-0.73589
-0.818009
-0.912578
-0.990541
-1.06663
-1.13208
-1.19471
-1.2452
-1.29093
-1.3035
-1.34683
-1.25495
-1.34769
-1.00661
-1.11012
-1.13242
-1.19743
-1.2494
-1.40011
-1.25742
-1.79806
-1.64833
-1.94004
-1.82983
-2.01358
-1.83561
-2.0285
-1.76994
-2.02037
-1.66222
-1.85967
-1.44777
-1.44885
-1.28837
-0.638104
-0.627394
-0.621969
-0.591829
-0.673449
-0.734569
-0.826757
-0.903157
-0.993885
-1.07283
-1.14776
-1.21977
-1.28127
-1.32244
-1.40844
-1.34315
-1.47136
-1.32657
-1.50594
-1.0765
-1.12987
-1.14499
-1.1991
-1.21789
-1.39607
-1.13052
-1.96952
-1.57132
-1.97774
-1.78279
-2.00679
-1.81835
-1.99998
-1.71012
-1.92911
-1.55489
-1.74053
-1.26427
-1.21332
-0.927599
-0.601278
-0.579224
-0.595811
-0.526561
-0.578478
-0.664155
-0.75766
-0.832097
-0.931588
-1.01409
-1.11206
-1.18542
-1.26836
-1.32159
-1.37287
-1.3429
-1.48548
-1.32448
-1.51892
-1.11703
-1.11397
-1.10169
-1.15012
-1.144
-1.37648
-1.0016
-2.04831
-1.53662
-2.00762
-1.74736
-2.04833
-1.73801
-2.06122
-1.61804
-1.9557
-1.37547
-1.68448
-1.03777
-0.989818
-0.517348
-0.719936
-0.721167
-0.701954
-0.692095
-0.655694
-0.765684
-0.849402
-0.912177
-1.00169
-1.08329
-1.17513
-1.26296
-1.35148
-1.37204
-1.48344
-1.42923
-1.6009
-1.42706
-1.61381
-1.20279
-1.11019
-1.09241
-1.12547
-1.09187
-1.36353
-0.894711
-2.09674
-1.51196
-2.14033
-1.72054
-2.10215
-1.72666
-2.04919
-1.62708
-1.94296
-1.33438
-1.57145
-0.855259
-0.688326
-0.0172678
-0.621365
-0.600664
-0.611012
-0.565144
-0.55077
-0.573912
-0.717462
-0.753125
-0.87216
-0.950789
-1.08714
-1.15839
-1.27433
-1.33275
-1.46671
-1.42196
-1.62332
-1.43035
-1.62486
-1.19537
-1.01881
-0.998208
-1.02695
-0.96351
-1.28296
-0.777067
-2.05298
-1.5639
-2.10848
-1.70906
-2.13159
-1.65159
-2.08748
-1.45766
-1.9615
-1.12442
-1.48522
-0.398964
-0.308658
0.782375
-0.780112
-0.795505
-0.767607
-0.744228
-0.731973
-0.659793
-0.821886
-0.8235
-0.933765
-1.00082
-1.09724
-1.20947
-1.33101
-1.39477
-1.54994
-1.49334
-1.72326
-1.5294
-1.71519
-1.27864
-0.987466
-0.94809
-0.969722
-0.857345
-1.19193
-0.683172
-2.02101
-1.59991
-2.2418
-1.72731
-2.20679
-1.66837
-2.16848
-1.4547
-1.99204
-1.15782
-1.4697
-0.185242
0.115804
1.69907
-0.659162
-0.583814
-0.63758
-0.513448
-0.564116
-0.431746
-0.611437
-0.595746
-0.724333
-0.799289
-0.959848
-1.06707
-1.24015
-1.31307
-1.51244
-1.4789
-1.71975
-1.54422
-1.69647
-1.23217
-0.848182
-0.781644
-0.79343
-0.62826
-1.02448
-0.57807
-1.93571
-1.63165
-2.29803
-1.75763
-2.27167
-1.54692
-2.18478
-1.31763
-1.86661
-0.852009
-1.24482
0.518352
0.973201
3.5375
-0.827813
-0.903173
-0.802206
-0.796541
-0.704723
-0.628074
-0.668508
-0.651112
-0.758873
-0.833617
-0.969849
-1.09305
-1.25912
-1.3609
-1.56842
-1.56926
-1.81335
-1.64667
-1.77522
-1.25851
-0.832315
-0.656818
-0.659188
-0.441524
-0.840066
-0.493614
-1.86824
-1.654
-2.38488
-1.85007
-2.42491
-1.62611
-2.29675
-1.27168
-2.11247
-0.823157
-1.41205
0.900041
1.62367
5.34953
-1.11333
-0.659969
-0.770629
-0.406634
-0.504326
-0.261353
-0.421419
-0.388582
-0.528946
-0.603811
-0.775797
-0.905311
-1.11008
-1.23425
-1.481
-1.51394
-1.78402
-1.66452
-1.72678
-1.14172
-0.672156
-0.354021
-0.382702
-0.153726
-0.577293
-0.41861
-1.80989
-1.68326
-2.47458
-1.87351
-2.44848
-1.59638
-2.17971
-1.14
-1.80482
-0.268765
-0.742682
2.04469
3.77854
10.0719
-0.946151
-1.21018
-1.01419
-0.956435
-0.551854
-0.469512
-0.432503
-0.411753
-0.515682
-0.589466
-0.732198
-0.863606
-1.06259
-1.19527
-1.45099
-1.51138
-1.83478
-1.77276
-1.79832
-1.15951
-0.676524
-0.183819
-0.16147
0.073657
-0.388982
-0.354358
-1.74424
-1.66108
-2.55731
-1.96703
-2.54689
-1.63935
-2.28731
-1.22753
-1.97255
-0.598539
-0.982951
2.69274
4.81026
13.6352
-3.4538
-0.698418
-1.02347
-0.519126
-0.438833
-0.192887
-0.276651
-0.262858
-0.39451
-0.480057
-0.650761
-0.784129
-0.996472
-1.13875
-1.41041
-1.51561
-1.90287
-1.90445
-1.79066
-1.01382
-0.576296
0.103147
0.154093
0.306604
-0.287448
-0.428395
-1.80616
-1.78431
-2.7402
-1.99921
-2.51405
-1.53133
-2.13654
-1.07431
-1.6078
0.078351
0.647418
6.48049
11.7432
25.7091
-0.110764
-0.218189
-0.274452
-0.273366
-0.29238
-0.327297
-0.355422
-0.389623
-0.420352
-0.451258
-0.47794
-0.517618
-0.541952
-0.577406
-0.609517
-0.636291
-0.638521
-0.679456
-0.671772
-0.87028
-0.587913
-0.963229
-0.886775
-1.00198
-0.89589
-0.863526
-0.807793
-0.739239
-0.739132
-0.691877
-0.733563
-0.728331
-0.804943
-0.819212
-0.869631
-0.871139
-0.909356
-0.904593
-0.929562
-0.918706
-0.224682
-0.273692
-0.313937
-0.294271
-0.299342
-0.325888
-0.347244
-0.380064
-0.386875
-0.426052
-0.428438
-0.49334
-0.497553
-0.513801
-0.520985
-0.551358
-0.577989
-0.634069
-0.563937
-0.755541
-0.602751
-0.944924
-0.889468
-1.00938
-0.916566
-0.901418
-0.863208
-0.809536
-0.809316
-0.754212
-0.783689
-0.775629
-0.79234
-0.800091
-0.85605
-0.853138
-0.895667
-0.890632
-0.918449
-0.908598
-0.289825
-0.310653
-0.328967
-0.305074
-0.300192
-0.320572
-0.340749
-0.357225
-0.407287
-0.439045
-0.461012
-0.478599
-0.497061
-0.54453
-0.60818
-0.691315
-0.698133
-0.75564
-0.704723
-0.912204
-0.830297
-1.21249
-1.25635
-1.41529
-1.36942
-1.36948
-1.34992
-1.29328
-1.27585
-1.18137
-1.12068
-1.02548
-1.0004
-0.954521
-0.922776
-0.898482
-0.924633
-0.917079
-0.937467
-0.929919
-0.348432
-0.35843
-0.365744
-0.339477
-0.342092
-0.328343
-0.363277
-0.397794
-0.41345
-0.430444
-0.447242
-0.511095
-0.60555
-0.684898
-0.736073
-0.814615
-0.846767
-0.935907
-0.919463
-1.15239
-1.13958
-1.5556
-1.63018
-1.80027
-1.76513
-1.76343
-1.73426
-1.65606
-1.61017
-1.48577
-1.40311
-1.23845
-1.14227
-1.04129
-0.995485
-0.944421
-0.979768
-0.944208
-0.965659
-0.957607
-0.373922
-0.356881
-0.368049
-0.350352
-0.362834
-0.339548
-0.383716
-0.376625
-0.444405
-0.524548
-0.672564
-0.785543
-0.846477
-0.913406
-0.98401
-1.06994
-1.108
-1.19891
-1.20431
-1.39502
-1.38774
-1.77565
-1.90986
-2.04592
-2.03791
-2.03355
-2.01314
-1.94466
-1.87748
-1.74459
-1.64494
-1.50567
-1.36044
-1.18549
-1.03849
-1.0101
-1.00782
-0.990093
-0.998698
-0.995675
-0.406723
-0.417559
-0.42802
-0.44379
-0.412194
-0.430879
-0.446999
-0.605822
-0.769482
-0.894963
-0.955602
-1.01874
-1.08018
-1.13213
-1.19306
-1.27368
-1.30136
-1.3987
-1.3959
-1.5951
-1.59065
-1.98345
-2.09644
-2.24098
-2.22715
-2.20617
-2.17667
-2.08074
-2.04545
-1.90556
-1.81031
-1.68533
-1.55013
-1.44155
-1.19589
-1.11153
-1.09124
-1.05045
-1.05345
-1.0507
-0.476894
-0.461327
-0.496612
-0.530545
-0.601435
-0.608016
-0.83921
-0.926129
-1.02887
-1.09845
-1.18913
-1.25979
-1.32704
-1.38331
-1.45257
-1.48597
-1.51566
-1.55459
-1.54003
-1.64265
-1.66362
-1.96084
-2.17809
-2.28636
-2.30776
-2.28524
-2.27013
-2.20077
-2.13293
-2.02599
-1.92872
-1.78591
-1.64342
-1.50562
-1.31001
-1.1507
-1.11673
-1.08307
-1.08643
-1.08861
-0.492143
-0.509831
-0.556554
-0.629462
-0.714522
-0.791589
-1.02258
-1.09479
-1.21714
-1.30685
-1.38572
-1.46399
-1.52301
-1.58715
-1.63048
-1.65307
-1.65612
-1.66203
-1.63819
-1.69781
-1.72665
-1.83109
-2.19391
-2.29384
-2.35428
-2.343
-2.35414
-2.28914
-2.26097
-2.13928
-2.04683
-1.92672
-1.77804
-1.63137
-1.46236
-1.25203
-1.20036
-1.15401
-1.151
-1.15376
-0.564917
-0.569144
-0.609369
-0.723804
-0.813844
-0.999037
-1.14464
-1.25348
-1.37205
-1.46399
-1.55925
-1.6287
-1.69999
-1.76692
-1.80638
-1.82148
-1.81136
-1.78241
-1.7279
-1.73908
-1.74202
-1.71681
-1.9928
-2.26547
-2.34838
-2.40189
-2.41877
-2.38065
-2.32157
-2.24232
-2.14729
-2.02981
-1.89697
-1.68865
-1.55051
-1.29854
-1.22723
-1.1844
-1.18599
-1.19652
-0.595821
-0.612505
-0.702288
-0.801306
-0.989895
-1.09956
-1.28772
-1.37562
-1.49117
-1.60522
-1.67971
-1.76997
-1.82601
-1.89924
-1.9376
-1.95782
-1.95398
-1.90594
-1.85337
-1.79485
-1.7418
-1.61533
-1.69673
-2.17179
-2.33784
-2.4296
-2.49077
-2.42986
-2.42662
-2.31558
-2.27259
-2.18894
-2.06439
-1.913
-1.70024
-1.4583
-1.3109
-1.27802
-1.25641
-1.27172
-0.664776
-0.679969
-0.764931
-0.936701
-1.12732
-1.24158
-1.39596
-1.4924
-1.60704
-1.71293
-1.79844
-1.87538
-1.93512
-1.99497
-2.04873
-2.0655
-2.06662
-2.00186
-1.9511
-1.75975
-1.5552
-1.30764
-1.26029
-1.85177
-2.30151
-2.46736
-2.5363
-2.54243
-2.47204
-2.47328
-2.40146
-2.26991
-2.12605
-1.93536
-1.77782
-1.54359
-1.34332
-1.32271
-1.301
-1.3227
-0.723575
-0.74129
-0.868018
-1.06167
-1.23307
-1.36126
-1.48515
-1.60866
-1.70281
-1.78914
-1.87115
-1.95535
-1.99409
-2.06267
-2.11269
-2.13722
-2.14545
-2.0946
-2.05165
-1.72696
-1.22792
-0.880331
-0.901674
-1.54521
-2.1939
-2.45712
-2.56249
-2.54425
-2.59751
-2.57297
-2.46845
-2.40305
-2.27514
-2.13822
-1.95809
-1.741
-1.43742
-1.38307
-1.37315
-1.3948
-0.812546
-0.84097
-0.981509
-1.16259
-1.33264
-1.46834
-1.60275
-1.67784
-1.81705
-1.87422
-1.95124
-1.98092
-2.06565
-2.08796
-2.16556
-2.18569
-2.19858
-2.1705
-2.11114
-1.62733
-1.00521
-0.632082
-0.720437
-1.31771
-1.94044
-2.48459
-2.56051
-2.68326
-2.69199
-2.649
-2.64269
-2.52792
-2.37936
-2.19094
-1.98634
-1.83886
-1.60021
-1.42788
-1.44494
-1.46449
-0.905196
-0.932101
-1.06672
-1.2399
-1.41352
-1.56498
-1.68337
-1.77171
-1.84418
-1.89845
-1.97731
-2.03695
-2.08079
-2.16148
-2.19365
-2.18709
-2.17414
-2.19065
-1.93335
-1.41663
-0.988268
-0.745281
-0.747723
-1.17567
-1.7285
-2.37755
-2.54862
-2.70088
-2.71543
-2.76662
-2.68653
-2.60536
-2.46455
-2.30692
-2.07558
-1.88747
-1.70921
-1.53061
-1.47936
-1.54905
-0.943747
-0.977243
-1.11082
-1.27498
-1.45075
-1.61191
-1.75425
-1.82733
-1.92066
-1.97075
-2.04084
-2.0405
-2.11447
-2.05922
-2.12914
-2.1183
-2.12648
-2.02155
-1.66019
-1.33361
-1.13055
-1.05725
-0.987318
-1.13803
-1.53686
-1.88826
-2.54194
-2.57074
-2.75981
-2.77436
-2.75492
-2.69835
-2.58461
-2.4313
-2.21679
-2.01062
-1.81276
-1.71739
-1.53061
-1.6337
-1.08183
-1.10533
-1.23503
-1.38443
-1.55705
-1.71699
-1.81888
-1.88943
-1.94743
-1.95803
-1.97219
-1.97249
-2.01825
-1.97276
-2.09786
-1.96178
-1.7364
-1.4971
-1.30643
-1.21321
-1.21635
-1.22392
-1.19037
-1.19924
-1.49321
-1.90954
-2.40438
-2.79668
-2.77957
-2.80889
-2.7795
-2.737
-2.63961
-2.49627
-2.29816
-2.09405
-1.88416
-1.78951
-1.65075
-1.71164
-0.877764
-0.954848
-1.08832
-1.25828
-1.43253
-1.57156
-1.69713
-1.77549
-1.86009
-1.89519
-1.92214
-1.90361
-1.82401
-1.56826
-1.43612
-1.21558
-1.14643
-1.07296
-1.09049
-1.10273
-1.17357
-1.21064
-1.23254
-1.22663
-1.45204
-1.67785
-1.99125
-2.42422
-2.72669
-2.80056
-2.83473
-2.84058
-2.77589
-2.66354
-2.47637
-2.2804
-2.03957
-1.89115
-1.76627
-1.72852
-1.17318
-1.12613
-1.19159
-1.30652
-1.44916
-1.56389
-1.67486
-1.7281
-1.72184
-1.50122
-1.26597
-1.05122
-0.919162
-0.807394
-0.864812
-0.847255
-0.881421
-0.900507
-0.949055
-1.00325
-1.07926
-1.1446
-1.1952
-1.23058
-1.41071
-1.72217
-1.91616
-2.07477
-2.32042
-2.58491
-2.68998
-2.75643
-2.73049
-2.6537
-2.52763
-2.36053
-2.13033
-1.99307
-2.00126
-1.95946
-0.0870989
-0.194342
-0.288641
-0.436335
-0.562818
-0.703715
-0.807038
-0.772879
-0.688089
-0.699669
-0.70241
-0.714161
-0.70288
-0.677357
-0.693951
-0.713671
-0.749714
-0.779586
-0.844861
-0.906021
-0.994474
-1.07681
-1.15053
-1.213
-1.3441
-1.63731
-1.84012
-1.95058
-2.05324
-2.17795
-2.4509
-2.66934
-2.73974
-2.77325
-2.65293
-2.43191
-2.1706
-1.95228
-1.84767
-1.84428
-0.366445
-0.287295
-0.294588
-0.323795
-0.395026
-0.463642
-0.536738
-0.574626
-0.604948
-0.611849
-0.613739
-0.596989
-0.584716
-0.581037
-0.601468
-0.623638
-0.671155
-0.701811
-0.766706
-0.828231
-0.921245
-1.01416
-1.10795
-1.15859
-1.32633
-1.58475
-1.78627
-1.92077
-1.98828
-2.02335
-2.03685
-2.0384
-2.2305
-2.53058
-2.69102
-2.55853
-2.42342
-2.28812
-2.21698
-2.24585
-0.185631
-0.113378
-0.118162
-0.142027
-0.204885
-0.271922
-0.336173
-0.423243
-0.491559
-0.539926
-0.570495
-0.580499
-0.567625
-0.562808
-0.553912
-0.572825
-0.590795
-0.634232
-0.708723
-0.780726
-0.853019
-0.965665
-1.0569
-1.14791
-1.2867
-1.50551
-1.72356
-1.878
-1.95506
-1.9711
-1.98981
-1.97115
-1.94011
-1.815
-1.76897
-1.75183
-1.75592
-1.70215
-1.73015
-1.8486
-0.272407
-0.202717
-0.20495
-0.211633
-0.277652
-0.320111
-0.394136
-0.468348
-0.5453
-0.584458
-0.603755
-0.590299
-0.561622
-0.544087
-0.527813
-0.533467
-0.541198
-0.591212
-0.664642
-0.759653
-0.881176
-0.915654
-1.06802
-1.15924
-1.28942
-1.4726
-1.66122
-1.81895
-1.93543
-1.97611
-2.00219
-1.97949
-2.0149
-1.94445
-1.90338
-1.7972
-1.74148
-1.60884
-1.58514
-1.70254
-0.262574
-0.205042
-0.209217
-0.219612
-0.291801
-0.329246
-0.406968
-0.485806
-0.567223
-0.617875
-0.637548
-0.621117
-0.59014
-0.565774
-0.543571
-0.553833
-0.574982
-0.594136
-0.663557
-0.730878
-0.829765
-0.959232
-1.01718
-1.16369
-1.27834
-1.43672
-1.58081
-1.7145
-1.82679
-1.88304
-1.94417
-1.9255
-1.93262
-1.83942
-1.84581
-1.75487
-1.72686
-1.5816
-1.52293
-1.66498
-0.296862
-0.262389
-0.268735
-0.272869
-0.340878
-0.377342
-0.455034
-0.533561
-0.613631
-0.667884
-0.689332
-0.677903
-0.64528
-0.626709
-0.625357
-0.624544
-0.613771
-0.621237
-0.732069
-0.768203
-0.878263
-0.954432
-1.10261
-1.22991
-1.29741
-1.43599
-1.56914
-1.67274
-1.79765
-1.85622
-1.95687
-1.95556
-2.03388
-1.98166
-2.04977
-1.95624
-1.96314
-1.78222
-1.71184
-1.81835
-0.323389
-0.310805
-0.315245
-0.317527
-0.381031
-0.427425
-0.508323
-0.586153
-0.667071
-0.727226
-0.758461
-0.759419
-0.739458
-0.736769
-0.727495
-0.726646
-0.731116
-0.779436
-0.864879
-0.78615
-0.891489
-0.984023
-1.07465
-1.22921
-1.32249
-1.47261
-1.52257
-1.63592
-1.71958
-1.75617
-1.83246
-1.8091
-1.87113
-1.78595
-1.84954
-1.73284
-1.76503
-1.6118
-1.59459
-1.6937
-0.372667
-0.351553
-0.373811
-0.376338
-0.432728
-0.479289
-0.559521
-0.633015
-0.713879
-0.78134
-0.827786
-0.852689
-0.859737
-0.872585
-0.872677
-0.894218
-0.931802
-0.942615
-0.998441
-0.813191
-0.935798
-0.980917
-1.14204
-1.24546
-1.3751
-1.45006
-1.61381
-1.65314
-1.77172
-1.7983
-1.95212
-1.95424
-2.09893
-2.02625
-2.14832
-2.00388
-2.04792
-1.86039
-1.78934
-1.72309
-0.444772
-0.416512
-0.429193
-0.443909
-0.500123
-0.555916
-0.634211
-0.712986
-0.800531
-0.874627
-0.932398
-0.975897
-0.998501
-1.02797
-1.04045
-1.06055
-1.08666
-1.04986
-1.09868
-0.867544
-0.994055
-1.03462
-1.13783
-1.27146
-1.38056
-1.49454
-1.59119
-1.73401
-1.78649
-1.88519
-2.01808
-2.0099
-2.14515
-2.06319
-2.21644
-2.08874
-2.21365
-2.05372
-2.05622
-2.06875
-0.474301
-0.45155
-0.450923
-0.472633
-0.526992
-0.579978
-0.65885
-0.75178
-0.843946
-0.929278
-1.00364
-1.06703
-1.10912
-1.14975
-1.16944
-1.18614
-1.21771
-1.14161
-1.19357
-0.904435
-1.02814
-1.04994
-1.15748
-1.25715
-1.38898
-1.46089
-1.6399
-1.71897
-1.84005
-1.88195
-2.03709
-1.96964
-2.12303
-1.97234
-2.16232
-1.96401
-2.12807
-1.87761
-1.90712
-1.79341
-0.549094
-0.531251
-0.526937
-0.53602
-0.606878
-0.65953
-0.746856
-0.825356
-0.92462
-1.01455
-1.09592
-1.16727
-1.21409
-1.25513
-1.28239
-1.28249
-1.33488
-1.23591
-1.31373
-0.959972
-1.08756
-1.08406
-1.17413
-1.23815
-1.35698
-1.37298
-1.58724
-1.71868
-1.8867
-1.84864
-1.97688
-1.87866
-2.05613
-1.87411
-2.06628
-1.8288
-1.99231
-1.66188
-1.69699
-1.48265
-0.555137
-0.533116
-0.530781
-0.508697
-0.599667
-0.641411
-0.743952
-0.828319
-0.914504
-1.00426
-1.09844
-1.17985
-1.23926
-1.28066
-1.31375
-1.30805
-1.36399
-1.26768
-1.34015
-1.01886
-1.08815
-1.09058
-1.16214
-1.19056
-1.33149
-1.24883
-1.74397
-1.6977
-1.94907
-1.80131
-2.02877
-1.84386
-2.05099
-1.80705
-2.09443
-1.72796
-1.9908
-1.53898
-1.53573
-1.24988
-0.648465
-0.634072
-0.630567
-0.604003
-0.673263
-0.743629
-0.835303
-0.915796
-1.00394
-1.08188
-1.16192
-1.24356
-1.30983
-1.357
-1.40802
-1.38606
-1.47063
-1.36183
-1.48519
-1.09973
-1.09025
-1.08924
-1.16485
-1.15217
-1.31988
-1.16154
-1.87421
-1.67842
-1.9803
-1.78133
-2.00105
-1.81429
-2.058
-1.73175
-2.00931
-1.65767
-1.91395
-1.42398
-1.37993
-0.990818
-0.61041
-0.589445
-0.595487
-0.541384
-0.586423
-0.669178
-0.767889
-0.838494
-0.943801
-1.02443
-1.11889
-1.19619
-1.27863
-1.32299
-1.4038
-1.38171
-1.49911
-1.32388
-1.51653
-1.12535
-1.11924
-1.03636
-1.11988
-1.0752
-1.28682
-1.05837
-1.93805
-1.6742
-2.01008
-1.7595
-2.03248
-1.75012
-2.06351
-1.69694
-2.04425
-1.47767
-1.94099
-1.26895
-1.30967
-0.715063
-0.731249
-0.733136
-0.70602
-0.6981
-0.669103
-0.767968
-0.859089
-0.923945
-1.02142
-1.10056
-1.1973
-1.27624
-1.37053
-1.42091
-1.52993
-1.49804
-1.62947
-1.49544
-1.61587
-1.21639
-1.10434
-1.0208
-1.09597
-1.01749
-1.26378
-0.973809
-1.96569
-1.6616
-2.10582
-1.74306
-2.0997
-1.69668
-2.11801
-1.62417
-2.07543
-1.48779
-1.85144
-1.21867
-1.23429
-0.391869
-0.632222
-0.610602
-0.630662
-0.551368
-0.571006
-0.563726
-0.728021
-0.761801
-0.882272
-0.967973
-1.09158
-1.18125
-1.3183
-1.35741
-1.50453
-1.49878
-1.67933
-1.49058
-1.66111
-1.22261
-1.02859
-0.918021
-0.9949
-0.884434
-1.17246
-0.865531
-1.92182
-1.67757
-2.18155
-1.77489
-2.12816
-1.66155
-2.09658
-1.50288
-2.03731
-1.29267
-1.91054
-0.835638
-1.07996
0.195327
-0.790592
-0.807165
-0.78355
-0.771754
-0.708869
-0.673715
-0.830579
-0.844766
-0.955779
-1.03091
-1.15645
-1.26266
-1.36569
-1.43613
-1.58663
-1.50114
-1.78283
-1.6092
-1.7596
-1.32792
-1.0345
-0.874219
-0.936085
-0.775561
-1.07983
-0.765611
-1.89236
-1.68012
-2.27368
-1.79864
-2.24244
-1.67398
-2.19499
-1.49552
-2.08207
-1.2932
-1.88803
-0.89948
-0.761085
0.870598
-0.653932
-0.604589
-0.666761
-0.518057
-0.613725
-0.393612
-0.635942
-0.613387
-0.764807
-0.836625
-1.00347
-1.09289
-1.27698
-1.35554
-1.57816
-1.5343
-1.8252
-1.63045
-1.766
-1.26309
-0.892704
-0.675289
-0.741212
-0.553671
-0.908681
-0.63183
-1.82067
-1.68313
-2.34426
-1.83313
-2.33958
-1.61444
-2.20383
-1.33842
-2.01615
-0.969611
-1.64599
-0.217949
-0.35635
2.57094
-0.822309
-0.921476
-0.831562
-0.828308
-0.747808
-0.629499
-0.713556
-0.711041
-0.821808
-0.897855
-1.02666
-1.15727
-1.31738
-1.42519
-1.62319
-1.64261
-1.90937
-1.8054
-1.87899
-1.36791
-0.957521
-0.579403
-0.620156
-0.378979
-0.768379
-0.532688
-1.77246
-1.68195
-2.4445
-1.9039
-2.47724
-1.69567
-2.33155
-1.39832
-2.16477
-1.02916
-1.72031
0.0546255
0.182909
4.42865
-1.04262
-0.632746
-0.781367
-0.445822
-0.540187
-0.315407
-0.455633
-0.434328
-0.594083
-0.669543
-0.854509
-0.980765
-1.1929
-1.33109
-1.59218
-1.67895
-1.94339
-1.85158
-1.91214
-1.27946
-0.791381
-0.331319
-0.354699
-0.0964806
-0.522224
-0.418479
-1.71255
-1.69697
-2.53677
-1.94202
-2.55505
-1.64366
-2.27366
-1.24224
-1.97656
-0.600566
-1.07776
1.3404
2.67864
9.77066
-0.715859
-1.16359
-1.04826
-1.02317
-0.748868
-0.50427
-0.533951
-0.498773
-0.599279
-0.67098
-0.817532
-0.967863
-1.17978
-1.31905
-1.60079
-1.68105
-2.05122
-2.0169
-2.03242
-1.38183
-0.869272
-0.21951
-0.158244
0.110469
-0.33876
-0.310908
-1.67291
-1.66252