/*--------------------------------*- C++ -*----------------------------------*\
| =========                 |                                                 |
| \\      /  F ield         | OpenFOAM: The Open Source CFD Toolbox           |
|  \\    /   O peration     | Version:  v1806                                 |
|   \\  /    A nd           | Web:      www.OpenFOAM.com                      |
|    \\/     M anipulation  |                                                 |
\*---------------------------------------------------------------------------*/
FoamFile
{
    version     2.0;
    format      ascii;
    class       volVectorField;
    location    "0.1045";
    object      U_0;
}
// * * * * * * * * * * * * * * * * * * * * * * * * * * * * * * * * * * * * * //

dimensions      [0 1 -1 0 0 0 0];


internalField   nonuniform List<vector> 
64000
(
(-0.0107722 -0.0132916 -0.00928576)
(0.0176547 -0.0128485 -0.00682181)
(0.0251794 -0.00444855 -2.96723e-06)
(0.0304541 -0.00352839 0.000966288)
(0.0319909 -0.00243627 0.00133745)
(0.0327113 -0.00295378 0.00175992)
(0.0326923 -0.00390629 0.00179215)
(0.0302974 -0.00453337 0.00224566)
(0.0295528 -0.00548827 0.00336852)
(0.0238897 -0.00537674 0.00402728)
(0.0175762 -0.00647478 0.00330059)
(0.0080859 -0.00653984 0.00837098)
(-0.00544453 -0.012349 0.00550931)
(-0.0306643 -0.0171979 0.00383455)
(-0.056442 -0.0179455 0.00410377)
(-0.0925283 -0.0181216 0.00238163)
(-0.116898 -0.000166478 0.00076514)
(-0.162205 -0.00471886 -0.00349639)
(-0.156618 -0.0093904 0.00390983)
(-0.220341 -0.0277187 -0.0152932)
(-0.185722 -0.0184578 -0.0183361)
(-0.0882075 -0.0216364 -0.0376166)
(-0.106675 -0.00470168 -0.0231194)
(-0.105576 -0.00130887 -0.036889)
(-0.127442 0.00482075 -0.0476972)
(-0.121771 0.0128325 -0.057608)
(-0.110871 0.0230943 -0.0619824)
(-0.0740287 0.0333759 -0.0589491)
(-0.039765 0.0407737 -0.0543847)
(0.00409997 0.0513151 -0.041347)
(0.0480424 0.0499127 -0.0323549)
(0.0855834 0.0394479 -0.0258108)
(0.101534 0.0293913 -0.01304)
(0.0990264 0.0154691 -0.00578991)
(0.0852888 0.00672988 0.000541845)
(0.0674079 -0.0012201 0.00309826)
(0.0491801 -0.00538773 0.00383672)
(0.0296675 -0.00512181 0.00456787)
(0.015888 -0.00376942 0.00484369)
(0.0022702 -0.00243525 0.00306749)
(-0.00771081 0.00259132 -0.00573795)
(0.0100551 -0.0173143 -0.00532757)
(0.0268667 -0.011171 -0.0024636)
(0.0383588 -0.00737121 -0.00120293)
(0.0444649 -0.00274741 -0.00171687)
(0.0451143 -0.000970853 -0.0019405)
(0.0442697 0.00266845 -0.00372406)
(0.0379775 0.00432357 -0.00303176)
(0.0313964 0.00835718 -0.00826139)
(0.0145632 0.0155581 -0.00375061)
(-0.00687435 0.0235689 -0.00818304)
(-0.0421198 0.033396 0.00079193)
(-0.0872543 0.0416601 -0.0041782)
(-0.1394 0.0614906 -0.00678634)
(-0.196476 0.0749065 -0.011762)
(-0.252912 0.0840389 -0.0177033)
(-0.326274 0.0924627 -0.0450603)
(-0.4323 0.0941064 -0.0598382)
(-0.474956 0.100718 -0.0776853)
(-0.562345 0.100318 -0.09706)
(-0.506912 0.131005 -0.0908468)
(-0.381121 0.146431 -0.125201)
(-0.381498 0.194059 -0.132674)
(-0.367782 0.215972 -0.144252)
(-0.362742 0.240239 -0.156288)
(-0.324052 0.26135 -0.162794)
(-0.277582 0.28229 -0.164221)
(-0.204916 0.297151 -0.152641)
(-0.131099 0.303366 -0.133188)
(-0.0573039 0.306259 -0.109775)
(0.00547048 0.291817 -0.0770658)
(0.0687789 0.260688 -0.0464854)
(0.106608 0.21332 -0.0391677)
(0.119193 0.161017 -0.0261639)
(0.114413 0.110881 -0.0130309)
(0.0961409 0.0711552 -0.00553738)
(0.0771145 0.0427945 -0.00125205)
(0.0531757 0.0277351 -0.000265624)
(0.0318634 0.0178563 0.00102502)
(0.00773566 0.00951905 0.00094708)
(-6.794e-05 -0.00458787 0.00140072)
(0.0169202 -0.0229844 -0.00232152)
(0.0348903 -0.0180737 -0.00335201)
(0.0464739 -0.00590054 -0.00464091)
(0.0491387 0.00326042 -0.00626273)
(0.0473395 0.0140558 -0.00761923)
(0.040875 0.0288794 -0.00855096)
(0.0263245 0.0426709 -0.0105214)
(0.0123195 0.0667106 -0.00157995)
(-0.0161054 0.0885611 -0.00486329)
(-0.0535928 0.115832 -0.00823686)
(-0.105172 0.147391 -0.0130317)
(-0.157671 0.181666 -0.0175928)
(-0.234763 0.210848 -0.0326931)
(-0.328107 0.231417 -0.0366011)
(-0.424185 0.246087 -0.0431617)
(-0.505035 0.250418 -0.0605025)
(-0.592881 0.26957 -0.0798253)
(-0.630727 0.301458 -0.0979242)
(-0.703333 0.337644 -0.116071)
(-0.632506 0.37538 -0.101667)
(-0.479656 0.409599 -0.124607)
(-0.457809 0.466432 -0.123259)
(-0.432964 0.49593 -0.122925)
(-0.418955 0.527846 -0.126533)
(-0.375813 0.548769 -0.125332)
(-0.328912 0.563226 -0.120594)
(-0.262385 0.565599 -0.104984)
(-0.197955 0.555381 -0.0825865)
(-0.131458 0.534347 -0.0594263)
(-0.0769132 0.501617 -0.0398902)
(-0.031517 0.453474 -0.0280835)
(0.00127669 0.380981 -0.0177459)
(0.0240393 0.3079 -0.00900428)
(0.0380878 0.228905 -0.0107452)
(0.0446844 0.164487 -0.0110697)
(0.0457463 0.117808 -0.00749078)
(0.0372091 0.0812007 -0.00534465)
(0.02662 0.055027 -0.00182714)
(0.00772431 0.029162 0.000808679)
(0.00143489 -0.00901981 0.00190986)
(0.019125 -0.0246424 -0.00152903)
(0.0409411 -0.0121586 -0.00411775)
(0.0492105 0.00444025 -0.00748983)
(0.0472309 0.0282321 -0.00816)
(0.0439483 0.0521567 -0.00941093)
(0.0315663 0.0873709 -0.00960899)
(0.013915 0.119914 -0.00589201)
(-0.011323 0.16564 -0.0106352)
(-0.0560059 0.205005 -0.012974)
(-0.101333 0.249219 -0.0175337)
(-0.163989 0.287206 -0.0247496)
(-0.244532 0.316688 -0.0283887)
(-0.334956 0.333168 -0.029748)
(-0.418619 0.355476 -0.0328966)
(-0.497272 0.37892 -0.0374789)
(-0.562912 0.410347 -0.0534968)
(-0.63764 0.439611 -0.064031)
(-0.661857 0.484221 -0.0743671)
(-0.722423 0.531448 -0.078674)
(-0.63905 0.562858 -0.0426549)
(-0.464786 0.589381 -0.0462118)
(-0.430397 0.629835 -0.03801)
(-0.405235 0.635122 -0.0293002)
(-0.392138 0.64823 -0.0278863)
(-0.357869 0.647893 -0.0232262)
(-0.322716 0.640483 -0.0197621)
(-0.272786 0.620878 -0.0118137)
(-0.226001 0.594678 0.000125711)
(-0.180217 0.560848 0.00735064)
(-0.150034 0.518868 0.0120648)
(-0.12365 0.472767 0.0107171)
(-0.0995129 0.411959 0.00467893)
(-0.0763176 0.349944 -0.00314364)
(-0.0521376 0.271323 -0.00649209)
(-0.021516 0.204461 -0.0110015)
(-0.000462005 0.150469 -0.0112592)
(0.00801679 0.114409 -0.00852008)
(0.0161162 0.0814645 -0.00398019)
(0.00605789 0.0422033 0.000578382)
(0.00127397 -0.00998677 0.000276093)
(0.0246617 -0.0141971 -0.00403326)
(0.0481018 0.00259396 -0.00814093)
(0.0575102 0.0357776 -0.00909224)
(0.0551954 0.072942 -0.00895163)
(0.049661 0.118259 -0.0159849)
(0.0324456 0.173088 -0.0143129)
(0.00530697 0.232188 -0.00672267)
(-0.0261983 0.288543 -0.00833686)
(-0.0782454 0.335838 -0.0107014)
(-0.136415 0.374105 -0.0138204)
(-0.213117 0.395767 -0.0164209)
(-0.286182 0.41819 -0.0168816)
(-0.358803 0.443309 -0.0215768)
(-0.428088 0.474285 -0.0221922)
(-0.496491 0.507592 -0.0231322)
(-0.549742 0.537565 -0.0279482)
(-0.606179 0.571237 -0.0265049)
(-0.610536 0.624429 -0.0204522)
(-0.656716 0.672955 -0.0271477)
(-0.573594 0.698596 0.00955037)
(-0.392884 0.708614 0.0169292)
(-0.355707 0.719171 0.0308506)
(-0.339822 0.689963 0.0368325)
(-0.339113 0.673691 0.0363143)
(-0.324031 0.646731 0.0420663)
(-0.308599 0.61513 0.0429637)
(-0.27735 0.577625 0.0465939)
(-0.251304 0.536052 0.0396535)
(-0.225351 0.4953 0.0309824)
(-0.206658 0.449617 0.0207083)
(-0.196239 0.415667 0.0137826)
(-0.186582 0.376681 0.00653549)
(-0.176834 0.345132 -0.00541751)
(-0.152917 0.282163 -0.0146761)
(-0.103638 0.212824 -0.0153978)
(-0.0522957 0.164818 -0.0144439)
(-0.0172111 0.134599 -0.0122256)
(0.00253607 0.100702 -0.00675198)
(0.00310041 0.0527169 0.000617879)
(0.00592808 -0.00442681 -0.00023958)
(0.0293959 0.00116253 -0.00673379)
(0.061293 0.0277224 -0.00686195)
(0.0736151 0.0780424 -0.0101726)
(0.0686321 0.135393 -0.0152096)
(0.0659741 0.198537 -0.0195764)
(0.0498592 0.272868 -0.0151017)
(0.0170875 0.327291 -0.00670299)
(-0.0331992 0.372544 -0.00688109)
(-0.101405 0.407682 -0.00921151)
(-0.168905 0.438434 -0.0112767)
(-0.232821 0.466782 -0.0112746)
(-0.289877 0.501295 -0.00963177)
(-0.347573 0.530967 -0.00636461)
(-0.395456 0.561173 -0.000945179)
(-0.447844 0.590254 0.00474194)
(-0.479959 0.621134 0.00853862)
(-0.511248 0.652446 0.00851738)
(-0.508187 0.70285 0.00778408)
(-0.543741 0.74126 0.0093432)
(-0.463008 0.760499 0.0441907)
(-0.300665 0.718743 0.0543224)
(-0.281949 0.699861 0.0674337)
(-0.287581 0.639167 0.0768496)
(-0.30112 0.600301 0.0776298)
(-0.305219 0.557016 0.0763457)
(-0.305631 0.515057 0.0733704)
(-0.294554 0.472127 0.06626)
(-0.281657 0.424922 0.0639813)
(-0.269692 0.38534 0.0421629)
(-0.260544 0.341115 0.0302319)
(-0.249229 0.310111 0.0141618)
(-0.23494 0.283095 0.00422172)
(-0.239069 0.271279 -0.0073185)
(-0.240544 0.246542 -0.0185962)
(-0.175774 0.197351 -0.0155986)
(-0.0932095 0.165769 -0.0161042)
(-0.0407644 0.140264 -0.0126579)
(-0.00519674 0.108671 -0.00757188)
(0.00217304 0.0566708 0.00114412)
(0.0060207 0.00167303 -0.00151809)
(0.0383249 0.0152447 -0.0100794)
(0.0814281 0.0554834 -0.0108255)
(0.106023 0.109916 -0.0129468)
(0.102503 0.175954 -0.018339)
(0.0996587 0.247761 -0.0218034)
(0.0627314 0.31565 -0.0161566)
(0.000754065 0.343107 -0.000343146)
(-0.0484397 0.387607 -0.00552527)
(-0.103657 0.425844 -0.00611838)
(-0.150234 0.470814 -0.00602904)
(-0.199439 0.51476 -0.00394737)
(-0.244355 0.556052 -0.000120741)
(-0.290565 0.590168 0.00439483)
(-0.329095 0.624124 0.0129563)
(-0.364361 0.649543 0.0179609)
(-0.384485 0.678551 0.0248917)
(-0.404079 0.692024 0.0279179)
(-0.386961 0.715783 0.0273597)
(-0.410808 0.730262 0.0169537)
(-0.389332 0.747351 0.0408346)
(-0.256534 0.637567 0.0572817)
(-0.228992 0.598233 0.0649819)
(-0.252493 0.533123 0.0749786)
(-0.277038 0.493633 0.0738583)
(-0.29864 0.454887 0.0722428)
(-0.315343 0.420543 0.0677441)
(-0.321298 0.385248 0.0595471)
(-0.321424 0.347883 0.0456321)
(-0.32193 0.31278 0.028918)
(-0.318977 0.279088 0.0152082)
(-0.310857 0.25032 0.0016289)
(-0.295166 0.228841 -0.00568716)
(-0.287083 0.213293 -0.013328)
(-0.289372 0.222888 -0.0212103)
(-0.22787 0.197868 -0.0220503)
(-0.128017 0.172193 -0.0226944)
(-0.0560647 0.151607 -0.0176572)
(-0.0104096 0.118547 -0.0114394)
(0.00214517 0.062337 -0.000586516)
(0.00694516 0.00825913 -0.00419768)
(0.0457734 0.0343728 -0.0139626)
(0.0997865 0.0829492 -0.0141937)
(0.126416 0.139048 -0.0122766)
(0.12953 0.198332 -0.0133074)
(0.119278 0.270153 -0.0158296)
(0.0595728 0.303916 -0.00588865)
(0.0107519 0.350502 0.00275906)
(-0.0169721 0.396218 -0.00182995)
(-0.0657575 0.451778 -2.25251e-05)
(-0.105331 0.497048 0.000665425)
(-0.146486 0.536513 0.00695675)
(-0.182466 0.570366 0.0126436)
(-0.21416 0.598188 0.0211826)
(-0.239324 0.625068 0.0255538)
(-0.267956 0.640485 0.0303724)
(-0.284184 0.653835 0.0336835)
(-0.302411 0.651068 0.032951)
(-0.296037 0.650023 0.0302192)
(-0.310671 0.621624 0.0139344)
(-0.34247 0.631863 0.0202119)
(-0.255836 0.53213 0.0393769)
(-0.207278 0.471609 0.0424691)
(-0.239015 0.427853 0.0536868)
(-0.271177 0.395605 0.0559587)
(-0.304529 0.369855 0.0564713)
(-0.331539 0.344991 0.0566331)
(-0.349579 0.31811 0.0483022)
(-0.361352 0.290548 0.037609)
(-0.368107 0.259666 0.0147794)
(-0.369541 0.227637 0.00471308)
(-0.359729 0.20202 -0.00475662)
(-0.344006 0.188732 -0.0121941)
(-0.323156 0.177853 -0.0154782)
(-0.328435 0.197995 -0.0249955)
(-0.277794 0.201832 -0.0219427)
(-0.162539 0.178115 -0.0233755)
(-0.0747233 0.161242 -0.0180357)
(-0.015525 0.126021 -0.011058)
(0.00300246 0.0665227 0.000208056)
(0.00548716 0.0227513 -0.00718672)
(0.0541996 0.0667701 -0.0180829)
(0.120168 0.122524 -0.0197874)
(0.152971 0.178798 -0.0144527)
(0.161738 0.239377 -0.0150855)
(0.132848 0.292702 -0.0159828)
(0.0806708 0.326405 -0.00643348)
(0.0407479 0.387256 0.00128271)
(0.0164575 0.424813 0.00808763)
(-0.0147669 0.46742 0.00705501)
(-0.0530914 0.501488 0.0116826)
(-0.084146 0.531965 0.0164677)
(-0.109567 0.554221 0.0251722)
(-0.133076 0.568522 0.0312028)
(-0.155736 0.574301 0.0338849)
(-0.180635 0.570315 0.0344798)
(-0.200695 0.564702 0.0333714)
(-0.226142 0.546602 0.0286401)
(-0.244819 0.533177 0.0222805)
(-0.259352 0.496071 0.00796228)
(-0.309122 0.491662 -0.000876841)
(-0.277468 0.445188 0.0149099)
(-0.21606 0.366596 0.0214688)
(-0.236747 0.350005 0.0302497)
(-0.274144 0.32709 0.0370529)
(-0.312913 0.311506 0.040822)
(-0.349498 0.294306 0.0453254)
(-0.37547 0.272017 0.0400361)
(-0.397175 0.248786 0.0232045)
(-0.414194 0.214813 0.00613306)
(-0.416042 0.188963 -0.00329809)
(-0.402645 0.165483 -0.0113605)
(-0.386423 0.15154 -0.0150789)
(-0.355802 0.150917 -0.0251717)
(-0.343871 0.162963 -0.027613)
(-0.308419 0.197991 -0.0312419)
(-0.198645 0.181957 -0.0269073)
(-0.0904153 0.171769 -0.0253088)
(-0.0207942 0.137031 -0.0141637)
(0.00393897 0.0738688 -0.00201363)
(0.0079214 0.0391723 -0.00986255)
(0.0634626 0.104599 -0.0260054)
(0.138977 0.164648 -0.0251205)
(0.178575 0.21884 -0.0158514)
(0.181533 0.273113 -0.0166322)
(0.152703 0.307085 -0.0174379)
(0.113355 0.353828 -0.00723174)
(0.081832 0.401817 0.00369994)
(0.0535186 0.44293 0.0109748)
(0.0269671 0.469249 0.0215614)
(0.00453154 0.49352 0.0216512)
(-0.0218343 0.50742 0.0300456)
(-0.0468622 0.512181 0.0359804)
(-0.0685858 0.507052 0.0416239)
(-0.0906819 0.491816 0.041922)
(-0.117393 0.469028 0.0387275)
(-0.143558 0.446108 0.0331199)
(-0.173516 0.418184 0.0253363)
(-0.202738 0.399388 0.0168322)
(-0.229435 0.378636 0.00294392)
(-0.284893 0.365272 -0.0103822)
(-0.300067 0.358887 -0.00286028)
(-0.237414 0.301036 0.0102406)
(-0.231956 0.298175 0.0147454)
(-0.274658 0.280816 0.0260767)
(-0.314665 0.272487 0.0322443)
(-0.356948 0.253928 0.0413386)
(-0.391051 0.237585 0.0337003)
(-0.421664 0.207549 0.0239704)
(-0.436719 0.180225 0.00613102)
(-0.441715 0.151547 0.00650413)
(-0.435164 0.127923 0.0146988)
(-0.415174 0.108847 0.0103834)
(-0.386969 0.108947 0.00752405)
(-0.365007 0.121425 -0.0166811)
(-0.3321 0.168393 -0.0267688)
(-0.229363 0.179216 -0.0263859)
(-0.108864 0.171856 -0.0219824)
(-0.0267875 0.144645 -0.0134624)
(0.0047739 0.0783078 -0.000870985)
(0.00890129 0.0636894 -0.0124988)
(0.072698 0.148995 -0.0322411)
(0.1572 0.21256 -0.0314687)
(0.202733 0.262114 -0.0199039)
(0.201953 0.30106 -0.0128864)
(0.178064 0.335564 -0.0170579)
(0.154108 0.376028 -0.00648332)
(0.124443 0.414974 0.00036249)
(0.100886 0.445127 0.00801906)
(0.0739198 0.467626 0.0231955)
(0.0475813 0.477212 0.0337047)
(0.0262737 0.476504 0.0438031)
(0.00717903 0.46597 0.048637)
(-0.0169718 0.440782 0.0483002)
(-0.0461154 0.414399 0.0478825)
(-0.0762998 0.381735 0.0410368)
(-0.109078 0.353277 0.0320031)
(-0.145021 0.325211 0.02207)
(-0.177544 0.305634 0.0133376)
(-0.212016 0.293479 -6.29177e-06)
(-0.2646 0.281934 -0.0103206)
(-0.292596 0.286118 -0.00800812)
(-0.236582 0.270715 0.00413799)
(-0.222354 0.26381 0.00710037)
(-0.263413 0.250706 0.0200283)
(-0.306274 0.238797 0.0275798)
(-0.354077 0.223945 0.036028)
(-0.392412 0.201509 0.0320563)
(-0.426757 0.175743 0.0184337)
(-0.449997 0.144811 0.02766)
(-0.464306 0.108848 0.0294211)
(-0.463818 0.0797477 0.0151885)
(-0.448111 0.0609207 0.0107911)
(-0.412878 0.0579772 0.00142839)
(-0.373615 0.0712699 -0.00309406)
(-0.341648 0.121409 -0.0257964)
(-0.254416 0.159131 -0.0294186)
(-0.12679 0.169743 -0.0242807)
(-0.0303405 0.149923 -0.0153869)
(0.00411745 0.0845615 -0.00258832)
(0.0103224 0.083051 -0.0132657)
(0.078768 0.188905 -0.036292)
(0.171224 0.255128 -0.0348679)
(0.216442 0.294306 -0.0191274)
(0.221588 0.322935 -0.0118736)
(0.208275 0.356747 -0.00921223)
(0.189231 0.389926 -0.00838867)
(0.165135 0.414943 0.00339762)
(0.139776 0.436454 0.00913639)
(0.115857 0.445866 0.0199553)
(0.0946801 0.450636 0.028906)
(0.0682741 0.440403 0.0492355)
(0.0392131 0.420326 0.0531541)
(0.0172585 0.384754 0.0560792)
(-0.0099926 0.349104 0.0489063)
(-0.045821 0.318403 0.0405526)
(-0.0819764 0.292626 0.0281669)
(-0.121389 0.270184 0.0172848)
(-0.155398 0.257581 0.00900814)
(-0.19503 0.250756 -0.00377894)
(-0.245973 0.244035 -0.0104615)
(-0.267946 0.246039 -0.00864393)
(-0.218133 0.253021 0.000564054)
(-0.203732 0.237983 0.00256551)
(-0.243782 0.222576 0.0152487)
(-0.284004 0.206333 0.0236058)
(-0.334525 0.190489 0.0308032)
(-0.376162 0.16678 0.0239274)
(-0.415501 0.139341 0.0367614)
(-0.448734 0.102872 0.0430547)
(-0.469477 0.0669477 0.0354172)
(-0.472996 0.0378438 0.0445415)
(-0.464375 0.0172493 0.037413)
(-0.440427 0.0126378 0.0357691)
(-0.398458 0.0207534 0.0246548)
(-0.355183 0.0654465 0.00151577)
(-0.268272 0.122111 -0.0265285)
(-0.140924 0.15626 -0.0259694)
(-0.0368498 0.147943 -0.0149595)
(0.00519253 0.0869724 -0.00245904)
(0.0108308 0.104901 -0.0122778)
(0.0839351 0.23007 -0.038566)
(0.177723 0.297416 -0.0377521)
(0.228945 0.327282 -0.0201723)
(0.245001 0.350967 -0.00734226)
(0.240097 0.3755 -0.00173012)
(0.222525 0.399886 0.00193243)
(0.199202 0.415238 0.00282615)
(0.179897 0.425946 0.0102621)
(0.157597 0.4288 0.0224727)
(0.132675 0.421073 0.0312425)
(0.106078 0.402731 0.0387482)
(0.0759213 0.376149 0.0490284)
(0.041335 0.343526 0.0537548)
(0.014009 0.304282 0.0512979)
(-0.0172838 0.272354 0.0373021)
(-0.0591787 0.25209 0.023867)
(-0.0990447 0.234939 0.0131014)
(-0.132284 0.227995 0.00552064)
(-0.173091 0.221741 -0.00534321)
(-0.220111 0.219117 -0.0092594)
(-0.228497 0.221596 -0.00606179)
(-0.185086 0.23787 -0.000678526)
(-0.181389 0.214051 0.000326678)
(-0.214368 0.194262 0.0119959)
(-0.253359 0.174261 0.0194664)
(-0.302382 0.152061 0.0237517)
(-0.347224 0.129542 0.0313099)
(-0.393671 0.0969685 0.0446396)
(-0.433633 0.0613524 0.0445112)
(-0.458932 0.0283135 0.064935)
(-0.478352 -0.00856262 0.0496267)
(-0.482045 -0.0455655 0.033039)
(-0.466704 -0.0666368 0.0104849)
(-0.424608 -0.0561242 0.00370365)
(-0.375488 -0.0119367 0.00704314)
(-0.288691 0.0707073 -0.00420539)
(-0.15762 0.128642 -0.0318373)
(-0.0420294 0.142364 -0.0148688)
(0.00483064 0.0910696 -0.00408254)
(0.0105179 0.112499 -0.0116513)
(0.0826647 0.253936 -0.0411741)
(0.178634 0.324417 -0.0419744)
(0.235857 0.352031 -0.0233341)
(0.262603 0.367349 -0.00525017)
(0.265276 0.380455 0.00461808)
(0.250344 0.393509 0.0104788)
(0.228879 0.402432 0.0133488)
(0.210029 0.408337 0.0163435)
(0.18844 0.403772 0.0208875)
(0.166379 0.390225 0.0239678)
(0.136729 0.366728 0.0369233)
(0.102817 0.336638 0.0377562)
(0.0679033 0.303854 0.0435418)
(0.0324026 0.274787 0.0460285)
(0.00292172 0.241372 0.0355592)
(-0.0335541 0.224878 0.0196197)
(-0.0732129 0.211261 0.00998688)
(-0.105689 0.207266 0.0027861)
(-0.144491 0.199844 -0.00544977)
(-0.182974 0.197728 -0.0068984)
(-0.175926 0.209713 -0.00213249)
(-0.146008 0.220489 -0.00188599)
(-0.155033 0.189745 0.000970312)
(-0.182296 0.166958 0.00809576)
(-0.217537 0.139382 0.0155872)
(-0.262488 0.117668 0.0162622)
(-0.307073 0.0890762 0.0344841)
(-0.357684 0.0577927 0.0409005)
(-0.397148 0.0262584 0.0630207)
(-0.441486 -0.0133627 0.0494805)
(-0.481446 -0.0646302 0.038712)
(-0.498529 -0.112169 0.0235767)
(-0.484539 -0.145096 0.0115937)
(-0.442037 -0.14782 -0.00877762)
(-0.381673 -0.1085 -0.00750166)
(-0.296562 -0.00996998 -0.000425999)
(-0.174197 0.0839396 -0.0178946)
(-0.0477101 0.126161 -0.0204141)
(0.0064215 0.0899079 -0.00241049)
(0.00942235 0.12178 -0.00916848)
(0.0822256 0.277446 -0.04014)
(0.179752 0.352848 -0.0430428)
(0.243543 0.377754 -0.0239802)
(0.277207 0.38543 -0.00348243)
(0.285221 0.385775 0.010923)
(0.275535 0.388659 0.0203161)
(0.258952 0.391104 0.022902)
(0.242831 0.391555 0.0252572)
(0.220789 0.382577 0.0276574)
(0.195755 0.366737 0.028836)
(0.166163 0.339236 0.0280921)
(0.131745 0.310407 0.0259934)
(0.0951252 0.276851 0.0293763)
(0.0555186 0.249467 0.0334834)
(0.0234371 0.225399 0.0294114)
(-0.00893631 0.202923 0.0154996)
(-0.0452498 0.194325 0.00733021)
(-0.0755925 0.19046 0.000457988)
(-0.11196 0.179338 -0.00467189)
(-0.131712 0.183747 -0.00246249)
(-0.118451 0.203775 0.000997821)
(-0.111494 0.193153 0.000556964)
(-0.130763 0.163403 0.00313023)
(-0.152318 0.136721 0.00777719)
(-0.181532 0.106828 0.0118693)
(-0.221294 0.0824683 0.0235911)
(-0.266227 0.052356 0.0310357)
(-0.308864 0.0242007 0.0484427)
(-0.3597 -0.0107221 0.0455098)
(-0.416758 -0.0621213 0.0405716)
(-0.465723 -0.115874 0.0300726)
(-0.495438 -0.168137 0.0181396)
(-0.496837 -0.210459 0.00209636)
(-0.461216 -0.229868 -0.0145057)
(-0.393063 -0.20163 -0.0209275)
(-0.304077 -0.112476 -0.0190736)
(-0.186725 0.0288039 0.00191504)
(-0.0557289 0.105101 -0.0274334)
(0.00497826 0.0918495 -0.00357628)
(0.00716545 0.104596 -0.00995693)
(0.0761644 0.273554 -0.0406736)
(0.174284 0.35513 -0.0426804)
(0.242944 0.381115 -0.0234302)
(0.283757 0.383621 5.10583e-05)
(0.299337 0.380335 0.0149923)
(0.297123 0.377763 0.0211487)
(0.28337 0.372864 0.0248939)
(0.267062 0.365119 0.0268485)
(0.246715 0.353416 0.0275425)
(0.222432 0.335273 0.0265154)
(0.191221 0.312103 0.0246645)
(0.1545 0.283861 0.0200961)
(0.115852 0.254902 0.0140084)
(0.0794853 0.228613 0.0132912)
(0.0429285 0.211717 0.0178822)
(0.0138817 0.193407 0.0116837)
(-0.011065 0.182953 0.00354324)
(-0.045555 0.175641 -0.00260934)
(-0.0707188 0.173172 -0.00147518)
(-0.0708456 0.184997 0.0015901)
(-0.0738181 0.185548 0.00306558)
(-0.0876757 0.163498 0.00484442)
(-0.106147 0.135764 0.00660589)
(-0.126928 0.110715 0.00691759)
(-0.150927 0.0804188 0.0105672)
(-0.185187 0.0542689 0.0175206)
(-0.221405 0.0228154 0.0315716)
(-0.266009 -0.00626108 0.0366698)
(-0.320864 -0.0532753 0.0367666)
(-0.379446 -0.103785 0.0323931)
(-0.433166 -0.161834 0.0271537)
(-0.47155 -0.221266 0.0163307)
(-0.487001 -0.276913 0.00237733)
(-0.464043 -0.310828 -0.0156378)
(-0.403608 -0.301034 -0.0279031)
(-0.297831 -0.223536 -0.0314176)
(-0.18868 -0.0691377 -0.0190491)
(-0.0666066 0.0609789 -0.0192451)
(0.00629237 0.0827256 -0.0071549)
(0.00867116 0.108118 -0.00302288)
(0.0768445 0.283623 -0.0336376)
(0.173738 0.36899 -0.038593)
(0.248428 0.392297 -0.0184834)
(0.298756 0.388671 0.00686143)
(0.322736 0.376333 0.015346)
(0.322014 0.366908 0.0236063)
(0.308687 0.356127 0.0252868)
(0.295092 0.347977 0.0244489)
(0.275849 0.333993 0.0216493)
(0.252697 0.315514 0.0183856)
(0.222311 0.289933 0.0139592)
(0.184259 0.263367 0.00969219)
(0.144047 0.2352 0.00681942)
(0.106826 0.21352 0.00363172)
(0.0734806 0.197834 0.00474781)
(0.0415456 0.191822 0.00351823)
(0.0150055 0.190213 0.000536548)
(-0.00453515 0.185862 -0.000614561)
(-0.0174236 0.190475 0.000922282)
(-0.0304508 0.183788 0.004241)
(-0.0480103 0.163207 0.00701674)
(-0.0657845 0.140944 0.00916534)
(-0.0847765 0.113802 0.0101977)
(-0.104102 0.0897398 0.0106237)
(-0.126262 0.0615239 0.0103159)
(-0.156574 0.0331511 0.0202949)
(-0.191596 0.00273537 0.025282)
(-0.235138 -0.0357199 0.0261206)
(-0.289283 -0.080343 0.0265706)
(-0.344711 -0.129954 0.0271283)
(-0.397746 -0.188482 0.0242604)
(-0.440347 -0.25192 0.0176393)
(-0.465127 -0.318531 0.00501586)
(-0.454917 -0.368721 -0.0119659)
(-0.404461 -0.383591 -0.0286883)
(-0.308264 -0.320901 -0.0408016)
(-0.193054 -0.176939 -0.0312136)
(-0.0634584 0.0133496 -0.00979111)
(0.00584945 0.0742984 -0.0127863)
(-0.00140408 0.0827098 -0.0153644)
(0.0560671 0.266308 -0.0405685)
(0.154925 0.36261 -0.0465472)
(0.237668 0.388701 -0.0258095)
(0.297805 0.387955 -0.00319555)
(0.333894 0.368645 0.0107957)
(0.345108 0.351884 0.0165421)
(0.33721 0.332753 0.0173736)
(0.323366 0.319219 0.0151472)
(0.301886 0.310901 0.011672)
(0.275588 0.303474 0.00850828)
(0.242855 0.293066 0.00621583)
(0.204266 0.276953 0.0034984)
(0.165374 0.257716 0.00251572)
(0.133602 0.238834 0.00144145)
(0.10571 0.227498 0.00423516)
(0.0870738 0.22662 0.00164665)
(0.0637676 0.226703 -0.0026191)
(0.0372297 0.21982 -0.00122335)
(0.0117587 0.205122 0.000777436)
(-0.0119854 0.179812 0.00731299)
(-0.0293766 0.152603 0.00967268)
(-0.0493624 0.126909 0.0113884)
(-0.0679789 0.100678 0.0129118)
(-0.0862347 0.0746783 0.0145355)
(-0.108142 0.0464996 0.0125912)
(-0.134779 0.0165167 0.0121439)
(-0.168368 -0.0156904 0.0121834)
(-0.209437 -0.057818 0.0134489)
(-0.255063 -0.105521 0.0159403)
(-0.30438 -0.157822 0.0174761)
(-0.354168 -0.221727 0.0173593)
(-0.398416 -0.291253 0.0130202)
(-0.430076 -0.368922 0.00362841)
(-0.43302 -0.434362 -0.0122373)
(-0.393269 -0.47034 -0.028489)
(-0.304138 -0.425751 -0.0534852)
(-0.190898 -0.292984 -0.045472)
(-0.0624896 -0.064001 -0.0133672)
(0.00310162 0.059143 -0.00207664)
(-0.00148662 0.145198 -0.00448911)
(0.052961 0.343314 -0.0187451)
(0.145443 0.442724 -0.0303431)
(0.231808 0.464523 -0.010718)
(0.300966 0.453582 -0.00301338)
(0.341952 0.420717 0.0128979)
(0.357193 0.383448 0.015604)
(0.35289 0.367 0.0183024)
(0.35412 0.377579 0.0156917)
(0.346994 0.386426 0.0111718)
(0.3276 0.388068 0.00544514)
(0.29277 0.380525 -2.01506e-06)
(0.247001 0.361411 -0.00382382)
(0.200457 0.335273 -0.0048187)
(0.165291 0.307506 -0.00343355)
(0.145033 0.284372 8.55779e-05)
(0.12172 0.266728 0.00471855)
(0.0885513 0.245771 -0.00336802)
(0.0551209 0.228374 -0.0040754)
(0.0242901 0.19865 -0.00144045)
(-0.00161406 0.175333 0.00561627)
(-0.0204905 0.142354 0.00902661)
(-0.0377977 0.117221 0.0108153)
(-0.0563627 0.0901378 0.0126846)
(-0.0748789 0.0645158 0.0151189)
(-0.0959646 0.0364834 0.0129107)
(-0.121769 0.00870719 0.00871684)
(-0.156619 -0.0224112 0.00374756)
(-0.198673 -0.0584964 0.00381003)
(-0.240539 -0.103503 0.0061049)
(-0.283998 -0.15266 0.0101303)
(-0.326277 -0.215274 0.0129883)
(-0.36642 -0.287253 0.0128719)
(-0.399301 -0.373758 0.00652963)
(-0.409112 -0.457333 -0.00762833)
(-0.377899 -0.521936 -0.0256279)
(-0.304717 -0.523393 -0.0573278)
(-0.192872 -0.399064 -0.0582874)
(-0.0551918 -0.182906 -0.0318095)
(0.00629958 0.018585 -0.00296881)
(-0.0173999 0.226333 -0.0242303)
(0.0214115 0.465419 -0.0413351)
(0.112865 0.575046 -0.0497527)
(0.19939 0.613775 -0.0336834)
(0.271921 0.60376 -0.0218466)
(0.320389 0.572122 -0.00449032)
(0.364713 0.525219 0.00370606)
(0.410497 0.49627 0.00473328)
(0.424407 0.491201 -0.00275704)
(0.39714 0.476368 -0.00797273)
(0.358748 0.454541 -0.0110094)
(0.308652 0.425798 -0.0116151)
(0.252769 0.390469 -0.0110607)
(0.203665 0.352875 -0.00895007)
(0.17085 0.319731 -0.00698859)
(0.148659 0.287357 -0.0022732)
(0.129863 0.254943 0.00274507)
(0.105622 0.229452 0.00720078)
(0.0689689 0.209883 -0.000402731)
(0.0365896 0.185405 0.000796455)
(0.00794858 0.16094 0.00366)
(-0.0129575 0.129397 0.0092424)
(-0.0278359 0.103903 0.0100311)
(-0.0466153 0.0767612 0.0124819)
(-0.0635623 0.0509277 0.0113211)
(-0.0832603 0.0215146 0.0120653)
(-0.105765 -0.00671919 0.00977437)
(-0.136288 -0.0361851 0.00229128)
(-0.174704 -0.0686341 -0.0041517)
(-0.210686 -0.117312 -0.00804134)
(-0.248922 -0.171202 -0.00987836)
(-0.287169 -0.241954 -0.0112158)
(-0.324727 -0.319226 -0.0116148)
(-0.360474 -0.417104 -0.0139762)
(-0.38393 -0.514425 -0.0228232)
(-0.382603 -0.611417 -0.0406988)
(-0.314847 -0.639962 -0.0643231)
(-0.231187 -0.540349 -0.078546)
(-0.089774 -0.258746 -0.0374472)
(0.0129341 0.0093011 -0.00210514)
(0.0011697 0.201105 0.000131499)
(0.040599 0.445589 -0.0375365)
(0.117181 0.571121 -0.0501513)
(0.204588 0.628804 -0.0463094)
(0.276874 0.634395 -0.0364607)
(0.3268 0.616251 -0.0260935)
(0.364247 0.580221 -0.0194732)
(0.402847 0.533517 -0.00920825)
(0.418689 0.48965 -0.0108741)
(0.395991 0.453408 -0.010215)
(0.36398 0.421045 -0.00982181)
(0.317708 0.391316 -0.00765952)
(0.264107 0.356181 -0.0051783)
(0.21899 0.325254 -0.00200057)
(0.187062 0.297306 -6.82104e-06)
(0.164685 0.268652 0.00316234)
(0.145225 0.2385 0.00684178)
(0.122639 0.20828 0.00935788)
(0.0879051 0.188187 0.0121327)
(0.0495901 0.168638 0.00321995)
(0.0144865 0.14427 0.00541906)
(-0.00703644 0.116227 0.00935016)
(-0.0208741 0.0892869 0.0109406)
(-0.0395097 0.0609811 0.0137025)
(-0.0584331 0.0336271 0.00848921)
(-0.0782919 0.00335482 0.0126691)
(-0.0979718 -0.02139 0.0142259)
(-0.127314 -0.0506511 0.010543)
(-0.173569 -0.0729866 0.00613563)
(-0.214369 -0.11015 0.00594988)
(-0.24924 -0.155895 0.00570061)
(-0.277712 -0.227487 0.00414194)
(-0.304399 -0.320282 -0.000559892)
(-0.326433 -0.458317 -0.00969964)
(-0.347882 -0.60565 -0.0178616)
(-0.347511 -0.745512 -0.0276653)
(-0.294352 -0.813805 -0.0510347)
(-0.185513 -0.772187 -0.0651282)
(-0.0630416 -0.477304 -0.0666153)
(-0.00198004 -0.106898 0.00829759)
(0.000940841 0.213698 -0.00285386)
(0.0380229 0.432951 -0.0339366)
(0.107076 0.556204 -0.0447643)
(0.187098 0.612042 -0.0429519)
(0.257853 0.618515 -0.0266995)
(0.312053 0.596309 -0.0213129)
(0.354984 0.558372 -0.0128096)
(0.398823 0.515765 -0.00511304)
(0.422711 0.470696 -0.00577612)
(0.4069 0.438032 -0.00498715)
(0.375324 0.408292 -0.00420071)
(0.32504 0.376367 -0.00241473)
(0.270658 0.340313 0.00048783)
(0.230103 0.309075 0.00261276)
(0.199267 0.280695 0.004077)
(0.173754 0.250934 0.0064519)
(0.151172 0.220601 0.00951719)
(0.13408 0.183995 0.0144524)
(0.104818 0.159903 0.0145149)
(0.065084 0.14039 0.0151757)
(0.0253655 0.122744 0.00754176)
(0.000103673 0.0965798 0.0104357)
(-0.0158256 0.0699842 0.0120541)
(-0.0347511 0.0410637 0.0114559)
(-0.0521862 0.0150225 0.0112879)
(-0.0662786 -0.0106401 0.0135917)
(-0.0825726 -0.033103 0.0135572)
(-0.102361 -0.0600349 0.0133886)
(-0.135954 -0.0767032 0.00870095)
(-0.175748 -0.0935964 0.00536286)
(-0.219126 -0.116334 0.0053256)
(-0.265544 -0.165931 0.00733796)
(-0.325011 -0.235032 0.0120976)
(-0.372182 -0.353186 0.0172017)
(-0.381657 -0.493927 0.0142462)
(-0.370158 -0.657945 0.00711544)
(-0.324037 -0.780408 -0.00833496)
(-0.223609 -0.806163 -0.0326884)
(-0.0629015 -0.587235 -0.0441118)
(0.0210224 -0.153037 -0.0153316)
(0.00685058 0.194172 -0.00301096)
(0.0456348 0.393929 -0.0275641)
(0.108188 0.524615 -0.0374566)
(0.185052 0.585708 -0.0366793)
(0.252427 0.602379 -0.0250841)
(0.303866 0.585223 -0.0155643)
(0.348266 0.548332 -0.00711525)
(0.389106 0.505286 -0.00062141)
(0.416148 0.451342 -0.00157047)
(0.409965 0.412116 -0.00143075)
(0.37927 0.376329 -0.000870188)
(0.328846 0.338478 0.00196112)
(0.278697 0.304456 0.00496944)
(0.243298 0.274535 0.0069794)
(0.213524 0.247056 0.00777669)
(0.188769 0.218683 0.00947282)
(0.160866 0.191162 0.0119297)
(0.141593 0.157314 0.0162742)
(0.120246 0.124068 0.0216291)
(0.0846427 0.106569 0.0194262)
(0.0398741 0.0927279 0.0184172)
(0.00753539 0.0713024 0.0140335)
(-0.0098885 0.0461544 0.0179955)
(-0.0277006 0.0208631 0.0149258)
(-0.0421002 -0.000173842 0.0139074)
(-0.0560657 -0.0232089 0.0133574)
(-0.072985 -0.0454279 0.0127664)
(-0.0895789 -0.0726753 0.0126862)
(-0.114175 -0.0952776 0.0121246)