/*--------------------------------*- C++ -*----------------------------------*\
| =========                 |                                                 |
| \\      /  F ield         | OpenFOAM: The Open Source CFD Toolbox           |
|  \\    /   O peration     | Version:  v1806                                 |
|   \\  /    A nd           | Web:      www.OpenFOAM.com                      |
|    \\/     M anipulation  |                                                 |
\*---------------------------------------------------------------------------*/
FoamFile
{
    version     2.0;
    format      ascii;
    class       volVectorField;
    location    "0.011";
    object      U_0;
}
// * * * * * * * * * * * * * * * * * * * * * * * * * * * * * * * * * * * * * //

dimensions      [0 1 -1 0 0 0 0];


internalField   nonuniform List<vector> 
64000
(
(-0.00112192 -0.00432458 0.00277229)
(0.00666167 -0.00665736 0.00188277)
(0.018071 -0.00631274 0.00268537)
(0.0258439 -0.00554473 0.00315156)
(0.0266031 -0.0043578 0.00396786)
(0.0218014 -0.0037516 0.00475476)
(0.0174957 -0.00324797 0.00498783)
(0.0144542 -0.00316125 0.0047038)
(0.0112763 -0.00290217 0.0043979)
(0.00640009 -0.00223021 0.00425823)
(-0.00115217 -6.58754e-05 0.00416201)
(-0.0165603 0.00101477 0.00490033)
(-0.0398527 0.000933681 0.0052749)
(-0.0675498 0.000288569 0.00607581)
(-0.0997012 0.00090192 0.00746259)
(-0.139246 0.00108068 0.00638594)
(-0.184276 -0.00300999 0.00849703)
(-0.228447 -0.0084075 0.0101875)
(-0.264864 -0.013607 0.00430371)
(-0.289343 -0.0209667 -0.00753747)
(-0.316066 -0.0297397 -0.0218743)
(-0.288656 -0.0228874 -0.0216656)
(-0.186732 -0.0208118 -0.0308636)
(-0.118538 -0.0208934 -0.0501088)
(-0.100313 -0.01253 -0.0640571)
(-0.0828445 -0.0027195 -0.07423)
(-0.0589753 0.00754713 -0.0769951)
(-0.0292737 0.0182861 -0.0704757)
(0.00653378 0.0310793 -0.0559134)
(0.0481981 0.0428277 -0.0378074)
(0.0892747 0.0386108 -0.0304714)
(0.1216 0.0327398 -0.0215767)
(0.135267 0.0211542 -0.0114228)
(0.130349 0.00958133 -0.00126823)
(0.112022 0.00101977 0.00517374)
(0.0861017 -0.00484541 0.00693071)
(0.0605772 -0.00627868 0.0085557)
(0.0399372 -0.00558202 0.00884964)
(0.0210715 -0.00414826 0.00862528)
(0.0053978 -0.00288866 0.00759936)
(-0.000826291 -0.0137009 0.00345501)
(0.010504 -0.0206248 0.00133293)
(0.0300764 -0.018963 0.0011345)
(0.04376 -0.0142121 0.00119064)
(0.0478207 -0.00849435 0.00186782)
(0.0438381 -0.00337374 0.00157503)
(0.0383783 1.45024e-05 0.000326458)
(0.0320567 0.00417331 -0.00158719)
(0.0235545 0.00969375 -0.00296851)
(0.0110594 0.0179716 -0.00260424)
(-0.0100348 0.0246039 -0.00145811)
(-0.0468161 0.0315227 -0.000344672)
(-0.0966304 0.0422049 -0.00463861)
(-0.154097 0.0502845 -0.00976235)
(-0.220994 0.0570626 -0.0185601)
(-0.304546 0.0629837 -0.0309501)
(-0.395891 0.0711502 -0.0401999)
(-0.480637 0.0811828 -0.0510128)
(-0.55444 0.0937729 -0.0657994)
(-0.611228 0.104591 -0.0850274)
(-0.643487 0.114425 -0.106329)
(-0.613917 0.142713 -0.123339)
(-0.515572 0.162091 -0.14238)
(-0.426487 0.176813 -0.163667)
(-0.373768 0.201103 -0.177376)
(-0.321051 0.223455 -0.183448)
(-0.256391 0.24091 -0.181136)
(-0.180164 0.252848 -0.169497)
(-0.0978033 0.261227 -0.149897)
(-0.0285785 0.262063 -0.124342)
(0.0360716 0.24963 -0.0873177)
(0.0958427 0.222505 -0.0544615)
(0.129234 0.178727 -0.0414087)
(0.141581 0.133856 -0.0284119)
(0.132609 0.0904828 -0.0142396)
(0.110135 0.0550446 -0.00670445)
(0.0842412 0.033138 -0.00274441)
(0.0594839 0.0211023 -0.000856986)
(0.0356958 0.0141125 0.00134858)
(0.0114837 0.00608871 0.00365213)
(-0.000616326 -0.0255605 0.00374901)
(0.0133836 -0.0332017 0.000445513)
(0.0375459 -0.027588 -0.000251754)
(0.0527995 -0.0164984 0.000461404)
(0.055666 -0.00392178 0.000266431)
(0.0470132 0.00612682 -0.00135765)
(0.0358425 0.0166163 -0.00238682)
(0.0236585 0.0303764 -0.00416165)
(0.00696286 0.0473404 -0.0014579)
(-0.0218453 0.064275 -0.00461124)
(-0.063974 0.0823396 -0.00966542)
(-0.116831 0.104159 -0.015756)
(-0.187824 0.127428 -0.024862)
(-0.273681 0.151548 -0.0330806)
(-0.364868 0.174014 -0.0416131)
(-0.459022 0.1962 -0.0507045)
(-0.551262 0.226334 -0.0598524)
(-0.634164 0.260518 -0.0702404)
(-0.702018 0.297243 -0.0825148)
(-0.74869 0.334109 -0.0964832)
(-0.763476 0.370688 -0.109727)
(-0.717778 0.40992 -0.118415)
(-0.607262 0.442531 -0.124875)
(-0.501175 0.470097 -0.13367)
(-0.434156 0.496605 -0.135607)
(-0.376922 0.515545 -0.131011)
(-0.314173 0.522808 -0.121168)
(-0.243671 0.516898 -0.107054)
(-0.169967 0.498249 -0.0903769)
(-0.101574 0.466433 -0.0719389)
(-0.0425757 0.433328 -0.0520011)
(0.0012995 0.384422 -0.0331455)
(0.0344543 0.327702 -0.0159985)
(0.0576716 0.26692 -0.0074936)
(0.0640397 0.204751 -0.00919932)
(0.0634536 0.149634 -0.0082202)
(0.0583509 0.105964 -0.00632148)
(0.0485171 0.0760164 -0.00462759)
(0.0342936 0.0530166 -0.00131997)
(0.012617 0.0256002 0.00244295)
(-0.00066328 -0.0349571 0.00288932)
(0.0162606 -0.0401143 -0.00108707)
(0.0436702 -0.0281988 -0.00120988)
(0.0577888 -0.0096878 -7.24608e-05)
(0.0542581 0.00732978 -0.00202653)
(0.0389118 0.0246714 -0.00235018)
(0.0231377 0.0456669 -0.00332634)
(0.00333365 0.0729411 -0.0016809)
(-0.0281369 0.100211 -0.00690313)
(-0.071117 0.127463 -0.0123309)
(-0.122513 0.160618 -0.0191457)
(-0.189903 0.196743 -0.027386)
(-0.270286 0.22988 -0.0334686)
(-0.355147 0.265543 -0.0400621)
(-0.441719 0.302194 -0.0450329)
(-0.525023 0.339709 -0.048153)
(-0.601346 0.379293 -0.0499443)
(-0.666821 0.42 -0.0512172)
(-0.717362 0.460882 -0.0523375)
(-0.748104 0.501514 -0.0536322)
(-0.748691 0.540187 -0.0534399)
(-0.693148 0.576152 -0.0487836)
(-0.578271 0.607076 -0.0432967)
(-0.470727 0.623589 -0.0423206)
(-0.407042 0.630287 -0.0371724)
(-0.36063 0.627986 -0.0288588)
(-0.31478 0.613881 -0.0193012)
(-0.264672 0.58772 -0.0105356)
(-0.212899 0.550984 -0.00365)
(-0.164352 0.503331 0.00077564)
(-0.120795 0.450179 0.00207979)
(-0.0824021 0.392232 0.00226047)
(-0.0502316 0.339129 0.00147446)
(-0.0257819 0.286806 -0.000407657)
(-0.00950218 0.238176 -0.00324174)
(0.00329373 0.195214 -0.00411609)
(0.0153003 0.156373 -0.00548725)
(0.0237019 0.124164 -0.00667365)
(0.0248148 0.0908799 -0.00325451)
(0.0115248 0.0462015 0.00207041)
(0.000660702 -0.0407705 0.00242922)
(0.0216292 -0.0394651 -0.00260275)
(0.0514041 -0.0202232 -0.0013415)
(0.0593168 0.00339117 -0.00351224)
(0.0490531 0.0267709 -0.00322747)
(0.0297374 0.0563807 -0.00248029)
(0.00958552 0.0897512 -0.00104876)
(-0.0192879 0.128865 -0.00569801)
(-0.0611441 0.167053 -0.0107072)
(-0.108317 0.207581 -0.0155976)
(-0.161272 0.249349 -0.0207187)
(-0.225946 0.290022 -0.0263379)
(-0.299244 0.334159 -0.0298933)
(-0.37296 0.375703 -0.032069)
(-0.444122 0.414807 -0.0306283)
(-0.509701 0.455711 -0.0264774)
(-0.568276 0.497264 -0.0198782)
(-0.617043 0.538953 -0.0115915)
(-0.65217 0.57936 -0.00237583)
(-0.670435 0.616399 0.00580507)
(-0.663036 0.650261 0.0146736)
(-0.60305 0.685733 0.026907)
(-0.495739 0.714715 0.0343498)
(-0.403917 0.707397 0.035259)
(-0.354225 0.681357 0.0377325)
(-0.324795 0.649342 0.0419307)
(-0.300723 0.611877 0.0457869)
(-0.27421 0.56678 0.0457346)
(-0.247754 0.515836 0.0395928)
(-0.222753 0.463292 0.0318927)
(-0.197675 0.412052 0.0216274)
(-0.170316 0.360232 0.0137523)
(-0.137281 0.310021 0.00618758)
(-0.103469 0.26642 0.000429595)
(-0.0729087 0.231961 -0.0038475)
(-0.0453808 0.20468 -0.00658479)
(-0.0207858 0.179992 -0.00846286)
(-0.00234 0.154858 -0.00841588)
(0.0107791 0.121128 -0.0030592)
(0.00849471 0.0632089 0.00273949)
(0.00269023 -0.0403304 0.00160557)
(0.0279276 -0.0292603 -0.00343424)
(0.0563332 -0.00442136 -0.00678461)
(0.0591442 0.022932 -0.00638053)
(0.0467851 0.057557 -0.00566143)
(0.0248015 0.0979758 -0.000431431)
(0.000304021 0.142741 -0.00188382)
(-0.0322328 0.191104 -0.00705738)
(-0.0760047 0.240123 -0.0111558)
(-0.122215 0.288677 -0.0136663)
(-0.171147 0.333401 -0.0153223)
(-0.224068 0.373658 -0.0165219)
(-0.282497 0.412637 -0.0186927)
(-0.344164 0.45027 -0.0167404)
(-0.398412 0.489428 -0.0083874)
(-0.444244 0.530523 -0.00115397)
(-0.48504 0.568125 0.00698315)
(-0.518697 0.600635 0.0144207)
(-0.544484 0.628833 0.0231311)
(-0.557193 0.657645 0.0363634)
(-0.540556 0.697303 0.0531095)
(-0.477637 0.742126 0.0680586)
(-0.400586 0.755036 0.0702373)
(-0.351212 0.717865 0.0662366)
(-0.324464 0.658558 0.0644541)
(-0.309751 0.596841 0.064414)
(-0.304094 0.540512 0.0636482)
(-0.299532 0.484988 0.0600005)
(-0.289658 0.428067 0.0534979)
(-0.275106 0.376384 0.0448174)
(-0.259992 0.334243 0.0276392)
(-0.242193 0.297882 0.0123337)
(-0.212831 0.264487 0.00385277)
(-0.171417 0.235722 -0.0032726)
(-0.126569 0.212829 -0.00807602)
(-0.0847898 0.196479 -0.0105137)
(-0.047695 0.181534 -0.0111829)
(-0.0184627 0.163945 -0.0100686)
(0.00269235 0.133869 -0.00496305)
(0.00599072 0.0681568 0.0033569)
(0.00504151 -0.0345856 0.000790691)
(0.0327636 -0.0105657 -0.00954084)
(0.0594933 0.0178151 -0.0132068)
(0.0622693 0.0530255 -0.0116432)
(0.0507917 0.0973392 -0.00602844)
(0.0275058 0.147012 -0.00068324)
(0.00355412 0.199938 -0.00131292)
(-0.0275207 0.253787 -0.00600607)
(-0.0680466 0.309157 -0.00835543)
(-0.109697 0.360008 -0.00925311)
(-0.152703 0.404753 -0.00820896)
(-0.197674 0.441041 -0.00694609)
(-0.242661 0.472656 -0.00468175)
(-0.282042 0.50323 -0.000951022)
(-0.314774 0.5347 0.0043551)
(-0.347988 0.563797 0.00992658)
(-0.383785 0.590516 0.0180553)
(-0.414398 0.607588 0.0263536)
(-0.431004 0.626167 0.0367012)
(-0.422013 0.65847 0.0511434)
(-0.390141 0.701401 0.0647729)
(-0.356287 0.729538 0.0703636)
(-0.338574 0.712835 0.0677595)
(-0.335239 0.661615 0.0616763)
(-0.333316 0.594756 0.0558272)
(-0.329655 0.524451 0.0523146)
(-0.331687 0.461753 0.0501801)
(-0.33941 0.40672 0.0477167)
(-0.341884 0.355294 0.0436098)
(-0.332115 0.307385 0.0345122)
(-0.317526 0.268709 0.0215514)
(-0.300691 0.241217 0.00988858)
(-0.271502 0.222128 0.000986042)
(-0.228328 0.208586 -0.00554249)
(-0.174889 0.198363 -0.0115429)
(-0.119113 0.190238 -0.0146827)
(-0.0689188 0.182093 -0.0146381)
(-0.0297851 0.169104 -0.0120923)
(-0.0022716 0.138908 -0.00639818)
(0.00486867 0.0673279 0.00372359)
(0.006408 -0.0253661 0.000429144)
(0.0341546 0.0127012 -0.0180733)
(0.0630092 0.0492913 -0.0203007)
(0.0713836 0.0928087 -0.0167695)
(0.0632093 0.143323 -0.00929005)
(0.0416704 0.199141 -0.00184338)
(0.0186348 0.257923 0.000413005)
(-0.00654357 0.311194 -0.00134636)
(-0.0404232 0.364549 -0.00360306)
(-0.0769957 0.413822 -0.00324342)
(-0.114329 0.454334 -0.00221308)
(-0.149795 0.486316 -7.67243e-05)
(-0.18116 0.512516 0.00358524)
(-0.209794 0.531876 0.00889045)
(-0.233476 0.545162 0.0147046)
(-0.254951 0.554765 0.0179748)
(-0.283425 0.565513 0.0189579)
(-0.307172 0.575545 0.0254556)
(-0.306933 0.598186 0.0361966)
(-0.292384 0.627779 0.0465075)
(-0.284716 0.644051 0.0521994)
(-0.293543 0.635963 0.0531148)
(-0.314608 0.606209 0.050081)
(-0.339714 0.563241 0.044328)
(-0.359608 0.510578 0.0379126)
(-0.369444 0.45041 0.0332039)
(-0.376461 0.389954 0.0313436)
(-0.386426 0.336933 0.0315578)
(-0.392508 0.292081 0.030964)
(-0.385896 0.252673 0.0263352)
(-0.369425 0.218111 0.0140513)
(-0.348254 0.195049 0.00515808)
(-0.31682 0.183162 -0.00147104)
(-0.271212 0.179293 -0.00674133)
(-0.214137 0.181094 -0.011866)
(-0.150548 0.183442 -0.0169064)
(-0.0880071 0.18181 -0.0177853)
(-0.0392383 0.172337 -0.0145476)
(-0.00579629 0.141985 -0.00800378)
(0.00434144 0.0650287 0.00388251)
(0.00473366 -0.0122493 -0.00297618)
(0.0354725 0.0430585 -0.0253347)
(0.0723325 0.0908408 -0.027439)
(0.0868591 0.139621 -0.0217685)
(0.0836833 0.192701 -0.0128238)
(0.0674882 0.250532 -0.00667431)
(0.0464417 0.309726 0.00121566)
(0.023096 0.363154 0.0039952)
(-0.00151685 0.409036 0.00447492)
(-0.0310189 0.44853 0.00333529)
(-0.062546 0.481944 0.00439682)
(-0.0911537 0.508168 0.00628656)
(-0.117857 0.522541 0.00920482)
(-0.140226 0.528361 0.0129096)
(-0.15632 0.529373 0.0157185)
(-0.171493 0.52883 0.0154498)
(-0.193252 0.525066 0.0150235)
(-0.206173 0.535321 0.0227331)
(-0.205372 0.551304 0.030153)
(-0.212274 0.556415 0.0342002)
(-0.233883 0.547305 0.0358711)
(-0.266741 0.529771 0.0352693)
(-0.307579 0.507366 0.0322981)
(-0.351568 0.479298 0.0280306)
(-0.389818 0.442502 0.0238248)
(-0.414147 0.393824 0.0207466)
(-0.425983 0.336116 0.0198545)
(-0.432381 0.283576 0.0216538)
(-0.43419 0.242288 0.0218542)
(-0.427404 0.21057 0.0172516)
(-0.411194 0.183017 0.00947917)
(-0.387525 0.162148 0.000697768)
(-0.353946 0.152003 -0.00352543)
(-0.306907 0.150094 -0.00810894)
(-0.246223 0.156708 -0.012065)
(-0.177208 0.170127 -0.0162547)
(-0.106386 0.178312 -0.0192087)
(-0.048412 0.174707 -0.0164775)
(-0.00875684 0.146162 -0.00939052)
(0.00423397 0.0647117 0.00376124)
(0.00186834 0.00341177 -0.00773107)
(0.0366763 0.0827514 -0.0321386)
(0.0848369 0.139516 -0.0335196)
(0.107094 0.190514 -0.0256017)
(0.111032 0.242349 -0.0166919)
(0.100622 0.29777 -0.00867441)
(0.0843431 0.352416 -0.0028587)
(0.0635589 0.402657 0.00485807)
(0.0386362 0.443585 0.0109656)
(0.0158753 0.475214 0.0145306)
(-0.00652839 0.4986 0.0134937)
(-0.0324444 0.511118 0.0124083)
(-0.0564571 0.513903 0.0126528)
(-0.0741042 0.510528 0.0127343)
(-0.0859367 0.505704 0.0120868)
(-0.101666 0.496803 0.0105957)
(-0.117187 0.490367 0.0153264)
(-0.127149 0.492374 0.0199497)
(-0.144887 0.488463 0.0220083)
(-0.173443 0.477022 0.0234165)
(-0.209511 0.463844 0.023581)
(-0.253359 0.451213 0.0221829)
(-0.304951 0.437289 0.0197643)
(-0.360991 0.418572 0.0175218)
(-0.413873 0.391487 0.0162435)
(-0.453247 0.351708 0.0158952)
(-0.470383 0.298039 0.016705)
(-0.469678 0.244683 0.0172643)
(-0.462278 0.205418 0.0144301)
(-0.452463 0.177549 0.00971613)
(-0.439752 0.154357 0.00753269)
(-0.419544 0.133211 0.0089928)
(-0.389149 0.120554 0.00457151)
(-0.343447 0.11966 -0.00342563)
(-0.277427 0.129282 -0.0153282)
(-0.20062 0.14783 -0.0175014)
(-0.122119 0.168904 -0.0199993)
(-0.0563286 0.174233 -0.0177653)
(-0.0110686 0.150849 -0.0105179)
(0.00413341 0.066388 0.00343918)
(0.000483141 0.020483 -0.0108354)
(0.0406978 0.12667 -0.0377036)
(0.1002 0.191334 -0.0377616)
(0.130613 0.242318 -0.0265327)
(0.141737 0.290932 -0.0189514)
(0.137936 0.339625 -0.0103896)
(0.126011 0.386695 -0.0032783)
(0.108365 0.428509 0.00285718)
(0.0883194 0.464379 0.0103748)
(0.0666615 0.492454 0.0182976)
(0.0423765 0.508056 0.019733)
(0.0190075 0.511394 0.0187952)
(-0.000534733 0.50585 0.0158391)
(-0.0131003 0.49704 0.0125542)
(-0.0250606 0.491333 0.00993987)
(-0.0409709 0.471805 0.0115103)
(-0.0594081 0.459271 0.0140876)
(-0.0840564 0.44435 0.0154368)
(-0.115191 0.428144 0.0162219)
(-0.151425 0.415058 0.0164735)
(-0.193044 0.405074 0.0158208)
(-0.241915 0.396029 0.0143072)
(-0.299343 0.384263 0.0126653)
(-0.362212 0.366724 0.0122167)
(-0.42349 0.343521 0.012849)
(-0.47436 0.311711 0.0132912)
(-0.499763 0.269044 0.0139686)
(-0.49375 0.218851 0.013509)
(-0.475793 0.178029 0.00986239)
(-0.46376 0.148435 0.0100458)
(-0.457662 0.12013 0.0179411)
(-0.446312 0.0947421 0.0220786)
(-0.419207 0.0765792 0.0225598)
(-0.375718 0.0751132 0.0144178)
(-0.311924 0.0898629 0.00104856)
(-0.227456 0.117898 -0.0186909)
(-0.137893 0.149038 -0.020189)
(-0.0640548 0.169414 -0.019287)
(-0.0127256 0.154481 -0.0113458)
(0.00403784 0.0695403 0.00296762)
(-0.000323759 0.0407438 -0.0135126)
(0.0455804 0.17221 -0.0426736)
(0.116642 0.242788 -0.0413673)
(0.156603 0.291081 -0.0261186)
(0.174325 0.334669 -0.0151427)
(0.174824 0.376142 -0.00853255)
(0.166997 0.414815 -0.00457082)
(0.154287 0.446936 0.00255048)
(0.137707 0.474064 0.00841873)
(0.118174 0.493258 0.0140754)
(0.0948507 0.505121 0.0210274)
(0.070042 0.507698 0.0215467)
(0.0518409 0.501452 0.0166809)
(0.0447296 0.494377 0.0126064)
(0.0240619 0.481 0.00801338)
(-0.00523566 0.451136 0.012258)
(-0.0297943 0.421674 0.0129861)
(-0.0609878 0.398809 0.0134068)
(-0.0951291 0.38172 0.0131912)
(-0.133235 0.369918 0.0126058)
(-0.176346 0.360446 0.0115031)
(-0.227605 0.349934 0.010048)
(-0.288446 0.334037 0.00923282)
(-0.353234 0.314434 0.010382)
(-0.416024 0.293504 0.0116217)
(-0.470633 0.270416 0.0111955)
(-0.503601 0.241996 0.011119)
(-0.50165 0.200899 0.0116183)
(-0.478769 0.155826 0.00879642)
(-0.467632 0.115387 0.0170463)
(-0.469496 0.0772375 0.0257809)
(-0.466325 0.047227 0.0308569)
(-0.446431 0.0288317 0.0274242)
(-0.404923 0.0229252 0.0182987)
(-0.339611 0.0360009 0.0123357)
(-0.255195 0.069326 -0.000703448)
(-0.157008 0.117957 -0.0241534)
(-0.070193 0.155025 -0.0200346)
(-0.0145329 0.15465 -0.0121529)
(0.00383064 0.0732113 0.00233717)
(-0.00102763 0.0616065 -0.0165374)
(0.0497971 0.216185 -0.0475108)
(0.131311 0.291085 -0.0459324)
(0.181675 0.334447 -0.0271409)
(0.207787 0.369414 -0.011505)
(0.21312 0.402763 -0.00247708)
(0.206612 0.433555 0.00218512)
(0.19533 0.458433 0.00493599)
(0.182632 0.477933 0.00651905)
(0.167055 0.49058 0.0111146)
(0.147163 0.497015 0.0174897)
(0.124182 0.500565 0.0218317)
(0.107954 0.497642 0.0158139)
(0.093018 0.484051 0.010345)
(0.0545234 0.454503 0.0058232)
(0.0113082 0.421617 0.0103884)
(-0.0159397 0.386276 0.0131703)
(-0.0443961 0.362724 0.012585)
(-0.0777915 0.344923 0.0117779)
(-0.114517 0.331355 0.0105044)
(-0.15719 0.318166 0.00897444)
(-0.210046 0.301723 0.00753477)
(-0.271025 0.280471 0.00796375)
(-0.331991 0.260246 0.0100437)
(-0.389796 0.242598 0.01156)
(-0.442225 0.228167 0.0112496)
(-0.481595 0.21153 0.0111002)
(-0.491117 0.180297 0.0120244)
(-0.475741 0.129758 0.0187251)
(-0.466469 0.0778971 0.0207108)
(-0.468408 0.0353524 0.0207078)
(-0.466545 0.0038247 0.017809)
(-0.456042 -0.0213026 0.00926795)
(-0.430437 -0.034964 2.85589e-05)
(-0.376403 -0.0264651 -0.00537245)
(-0.285404 0.010022 -0.00702949)
(-0.177263 0.0687393 -0.0101363)
(-0.080791 0.130293 -0.026291)
(-0.0149515 0.150566 -0.0140231)
(0.0039912 0.0774923 0.00112055)
(-0.00194852 0.0806274 -0.0199898)
(0.0520916 0.255274 -0.0521392)
(0.14232 0.334102 -0.0509452)
(0.202364 0.371684 -0.0301956)
(0.237415 0.396039 -0.0108212)
(0.248651 0.417742 0.0015762)
(0.245824 0.438971 0.00838656)
(0.237561 0.460088 0.0123527)
(0.226651 0.47759 0.0128432)
(0.213218 0.489138 0.0134935)
(0.199174 0.495506 0.0146459)
(0.179972 0.495998 0.0171712)
(0.153299 0.485019 0.011468)
(0.119965 0.454093 0.00774569)
(0.0727023 0.415957 0.004291)
(0.0248189 0.385873 0.00841965)
(-0.00481563 0.355384 0.0129542)
(-0.0302743 0.329919 0.0122608)
(-0.0610813 0.309909 0.0110125)
(-0.0954404 0.291429 0.00901447)
(-0.137584 0.271377 0.00701584)
(-0.190196 0.247403 0.0061248)
(-0.246892 0.224323 0.00785287)
(-0.299988 0.206281 0.0103351)
(-0.349266 0.192974 0.0118059)
(-0.395782 0.183703 0.0126448)
(-0.439477 0.174015 0.0138308)
(-0.467167 0.153309 0.0128726)
(-0.464056 0.104687 0.0145647)
(-0.450028 0.0470485 0.0127655)
(-0.445937 0.00202233 0.0106257)
(-0.452774 -0.0381878 0.00442266)
(-0.458682 -0.0778845 -0.00285624)
(-0.442965 -0.103935 -0.0119534)
(-0.396644 -0.103106 -0.0214655)
(-0.320428 -0.0601731 -0.026609)
(-0.207368 0.00786984 -0.0198065)
(-0.0907268 0.0916383 -0.0211813)
(-0.0171948 0.138193 -0.0160884)
(0.00406422 0.0812826 -0.000364927)
(-0.00336149 0.0953515 -0.0215848)
(0.052118 0.287005 -0.0543216)
(0.148826 0.370424 -0.0545724)
(0.217469 0.403269 -0.0335964)
(0.260556 0.417707 -0.011658)
(0.278629 0.427051 0.0040762)
(0.28328 0.438237 0.0129211)
(0.281159 0.454633 0.0175536)
(0.274295 0.473239 0.0170991)
(0.264509 0.487715 0.0144246)
(0.249516 0.491197 0.0138004)
(0.221204 0.479344 0.0154328)
(0.178997 0.453303 0.0147571)
(0.134579 0.416351 0.00489569)
(0.0881249 0.376526 0.00215094)
(0.0405493 0.349857 0.00550703)
(0.00678775 0.324117 0.0111176)
(-0.0179074 0.295597 0.01208)
(-0.0453596 0.272492 0.0102998)
(-0.0785553 0.247703 0.0076355)
(-0.120394 0.21996 0.00553886)
(-0.168887 0.191946 0.006027)
(-0.216405 0.1712 0.008619)
(-0.260131 0.157075 0.0111332)
(-0.301598 0.147464 0.0124264)
(-0.342495 0.140194 0.0138439)
(-0.384996 0.1328 0.0140214)
(-0.425243 0.122517 0.0117414)
(-0.440114 0.0910841 0.0122125)
(-0.424662 0.029259 0.00909939)
(-0.414948 -0.0229751 0.00508839)
(-0.427784 -0.0763485 0.00139861)
(-0.44375 -0.125556 -0.00392947)
(-0.442378 -0.162678 -0.0133845)
(-0.404713 -0.176404 -0.0244113)
(-0.337544 -0.148888 -0.0421064)
(-0.239334 -0.0670063 -0.0385533)
(-0.115556 0.0362356 -0.0193698)
(-0.0204223 0.116235 -0.0246036)
(0.0059632 0.0833588 -0.00264955)
(-0.00465325 0.107156 -0.0193185)
(0.0506972 0.312849 -0.0524962)
(0.151512 0.40247 -0.0542535)
(0.227357 0.432892 -0.0340538)
(0.277663 0.438758 -0.0114802)
(0.302832 0.43735 0.00562781)
(0.317101 0.438357 0.0152189)
(0.326199 0.449516 0.0193366)
(0.326098 0.466188 0.0183651)
(0.312158 0.475782 0.0156095)
(0.285563 0.468619 0.0138011)
(0.246603 0.444422 0.0135657)
(0.19814 0.410999 0.0133835)
(0.147409 0.376155 0.00996758)
(0.101777 0.339906 0.000489384)
(0.0579865 0.311589 0.00197116)
(0.0189434 0.289056 0.00776348)
(-0.00659412 0.260471 0.0118449)
(-0.0316242 0.233302 0.00964861)
(-0.065784 0.203589 0.00675134)
(-0.105334 0.172355 0.00540183)
(-0.145155 0.146312 0.00683727)
(-0.182325 0.128685 0.00934552)
(-0.218417 0.116629 0.0119868)
(-0.254193 0.108076 0.0136354)
(-0.290538 0.10092 0.0149236)
(-0.327589 0.094653 0.0102971)
(-0.367954 0.0861783 0.00940605)
(-0.404131 0.0663671 0.00848311)
(-0.39986 0.0161793 0.00981446)
(-0.381878 -0.0436684 0.00422274)
(-0.3929 -0.101652 0.00269885)
(-0.411764 -0.159204 -0.00087232)
(-0.420976 -0.210729 -0.0109687)
(-0.40397 -0.244153 -0.0257646)
(-0.350613 -0.240902 -0.0442763)
(-0.263065 -0.166134 -0.0562361)
(-0.141998 -0.0345852 -0.036505)
(-0.0284076 0.0765427 -0.0190924)
(0.00733927 0.0831769 -0.00393121)
(-0.0052385 0.12434 -0.0151391)
(0.0495031 0.341748 -0.0479819)
(0.15191 0.439042 -0.0513065)
(0.232435 0.468743 -0.0325263)
(0.288669 0.467124 -0.0101346)
(0.321071 0.455183 0.00719147)
(0.347117 0.444947 0.017258)
(0.367785 0.446424 0.0204899)
(0.369367 0.451896 0.0194527)
(0.348022 0.448754 0.0174861)
(0.311056 0.432106 0.0149827)
(0.264621 0.403478 0.012863)
(0.21396 0.369111 0.0109947)
(0.162921 0.334454 0.0101492)
(0.115419 0.303735 0.00580214)
(0.0738229 0.274121 -0.000813495)
(0.0350524 0.251236 0.00435133)
(0.00520454 0.226501 0.0100673)
(-0.0206991 0.195738 0.00921427)
(-0.0540762 0.165372 0.00672234)
(-0.0884942 0.136578 0.00593304)
(-0.12003 0.114303 0.00705542)
(-0.150207 0.0979002 0.00921765)
(-0.180863 0.0857849 0.0119493)
(-0.212125 0.0768673 0.0141563)
(-0.243486 0.0692337 0.0136179)
(-0.277504 0.0615844 0.0117127)
(-0.318498 0.0475894 0.0103569)
(-0.359355 0.0288895 0.0108282)
(-0.366441 -0.000813766 0.0127988)
(-0.348845 -0.0691309 0.00547749)
(-0.352264 -0.133506 0.00109219)
(-0.373955 -0.19895 -0.00198809)
(-0.394149 -0.266723 -0.0103279)
(-0.392573 -0.322591 -0.0239098)
(-0.350921 -0.34044 -0.0418568)
(-0.272693 -0.288427 -0.0627777)
(-0.171403 -0.130971 -0.0523503)
(-0.0413824 0.0233495 -0.0151574)
(0.0151591 0.0750777 -0.00704745)
(-0.00343244 0.173964 -0.0108803)
(0.0507046 0.394117 -0.0414911)
(0.150392 0.495386 -0.0465276)
(0.232131 0.523188 -0.0300267)
(0.29211 0.513155 -0.00821758)
(0.330634 0.488814 0.00893835)
(0.366804 0.463235 0.0196981)
(0.396306 0.445656 0.022182)
(0.398871 0.433768 0.0202268)
(0.372746 0.418039 0.0181994)
(0.330713 0.394573 0.0162617)
(0.281063 0.36507 0.0139281)
(0.228442 0.332318 0.0108095)
(0.1781 0.299523 0.00864904)
(0.131343 0.269363 0.00784557)
(0.0895517 0.242587 0.00338923)
(0.0523392 0.216725 0.00187713)
(0.018955 0.193525 0.00735467)
(-0.00993182 0.163819 0.0091706)
(-0.0401677 0.13551 0.00718925)
(-0.0702198 0.110955 0.00632262)
(-0.0965377 0.0908812 0.00678254)
(-0.122099 0.0746792 0.00859638)
(-0.148255 0.0622133 0.0116065)
(-0.17548 0.0533322 0.014301)
(-0.204272 0.0460076 0.0149957)
(-0.238512 0.0338481 0.0141623)
(-0.277102 0.0183176 0.01492)
(-0.311974 0.00367394 0.0160744)
(-0.336498 -0.0186795 0.015403)
(-0.330495 -0.0808471 0.0139025)
(-0.319751 -0.164826 0.00537869)
(-0.337323 -0.241596 0.000586554)
(-0.362499 -0.321137 -0.00515489)
(-0.371075 -0.394097 -0.0162147)
(-0.345477 -0.436625 -0.03197)
(-0.264086 -0.414127 -0.0530294)
(-0.17412 -0.268208 -0.06565)
(-0.0546562 -0.0461629 -0.0333324)
(0.0147394 0.0558099 -0.00850962)
(-0.00524615 0.247094 -0.0130028)
(0.0446346 0.459414 -0.038037)
(0.141021 0.561216 -0.0435344)
(0.222162 0.588264 -0.0290681)
(0.284131 0.57307 -0.00769987)
(0.326199 0.539271 0.00904522)
(0.3677 0.499089 0.0199962)
(0.405144 0.455728 0.0227666)
(0.413427 0.422002 0.0200416)
(0.38814 0.393622 0.0178544)
(0.345809 0.364673 0.0162534)
(0.296347 0.334066 0.0143176)
(0.244405 0.302784 0.0118345)
(0.193644 0.272537 0.00902951)
(0.147433 0.24354 0.00709219)
(0.105677 0.217044 0.00659183)
(0.0680985 0.190856 0.00378081)
(0.0339792 0.164679 0.00613327)
(0.00326916 0.136407 0.00876998)
(-0.0249672 0.111214 0.00773386)
(-0.0516394 0.0905475 0.00656345)
(-0.0752832 0.0721644 0.00643115)
(-0.0976362 0.0562402 0.00789466)
(-0.119515 0.0434517 0.011033)
(-0.142463 0.0349238 0.0142379)
(-0.17171 0.0269841 0.0161889)
(-0.20566 0.0144608 0.0177651)
(-0.237077 0.00231308 0.0194068)
(-0.267985 -0.0117125 0.0188746)
(-0.300724 -0.0344495 0.0170151)
(-0.318476 -0.0780556 0.015892)
(-0.309546 -0.165596 0.0121784)
(-0.308162 -0.26 0.00523286)
(-0.330146 -0.35199 -0.000140328)
(-0.34533 -0.442561 -0.00886622)
(-0.334377 -0.512481 -0.0229697)
(-0.267147 -0.522706 -0.0412218)
(-0.168206 -0.41601 -0.0560505)
(-0.0498657 -0.154678 -0.0465975)
(0.0115341 0.0259727 -0.00044644)
(-0.0105769 0.278824 -0.0163084)
(0.0325408 0.490772 -0.0360889)
(0.127348 0.598308 -0.0420357)
(0.208765 0.630588 -0.0300997)
(0.272071 0.617394 -0.0100892)
(0.314756 0.581856 0.00518166)
(0.351129 0.537282 0.0144692)
(0.389186 0.478701 0.0191928)
(0.409474 0.422972 0.0178353)
(0.393602 0.379781 0.0162137)
(0.356204 0.343949 0.0153017)
(0.30985 0.311101 0.01407)
(0.259973 0.280003 0.0121079)
(0.210696 0.250673 0.00983592)
(0.164285 0.223163 0.00793142)
(0.121801 0.196261 0.00631577)
(0.0825905 0.169629 0.00584096)
(0.045852 0.140777 0.00687916)
(0.0168084 0.113371 0.00968336)
(-0.0073548 0.0890901 0.00861548)
(-0.0323329 0.0726804 0.00695989)
(-0.0552793 0.0560679 0.00635466)
(-0.0756828 0.0408943 0.00743765)
(-0.0935439 0.0280329 0.0103167)
(-0.113358 0.0186927 0.0157625)
(-0.141519 0.011306 0.0175219)
(-0.172651 0.00221066 0.019907)
(-0.201803 -0.00873907 0.0209226)
(-0.231531 -0.0251949 0.0207899)
(-0.264014 -0.0486309 0.0188706)
(-0.295208 -0.0836742 0.0165102)
(-0.303564 -0.148677 0.0153981)
(-0.29667 -0.245106 0.0114233)
(-0.306481 -0.351323 0.00650497)
(-0.323898 -0.462486 -0.000407411)
(-0.325091 -0.563098 -0.0123213)
(-0.272421 -0.611217 -0.0284137)
(-0.170793 -0.542217 -0.0447202)
(-0.046202 -0.291995 -0.0483384)
(0.0150005 -0.0112158 0.0147882)
(-0.00736372 0.269352 -0.0098717)
(0.0319071 0.482456 -0.0306167)
(0.117576 0.597702 -0.0384562)
(0.196685 0.63831 -0.0297282)
(0.260751 0.63046 -0.012075)
(0.305098 0.597052 0.00104052)
(0.335395 0.554031 0.00822717)
(0.363574 0.498532 0.0123679)
(0.388272 0.432329 0.0130063)
(0.38633 0.376356 0.0129432)
(0.359685 0.33165 0.0131793)
(0.319996 0.294053 0.0129897)
(0.274326 0.261169 0.012021)
(0.227019 0.231268 0.010519)
(0.18104 0.20289 0.00878763)
(0.13737 0.175139 0.00753834)
(0.0954242 0.146497 0.00710793)
(0.0584478 0.118054 0.00804217)
(0.0300722 0.0939549 0.00936879)
(0.0103067 0.0721788 0.0111539)
(-0.0111343 0.0551659 0.00768817)
(-0.0353586 0.0423059 0.00684249)
(-0.0547137 0.0278566 0.00747262)
(-0.0701906 0.0153911 0.00958202)
(-0.0855747 0.00564865 0.0147203)
(-0.110665 -0.00395689 0.0163883)
(-0.141825 -0.0113221 0.0192171)
(-0.170888 -0.0219246 0.0208709)
(-0.199892 -0.0382003 0.0213535)
(-0.230693 -0.0616186 0.0204757)
(-0.262359 -0.0938163 0.0183323)
(-0.280659 -0.141451 0.0166422)
(-0.284406 -0.218803 0.0137552)
(-0.295425 -0.323423 0.012473)
(-0.314053 -0.448177 0.00927549)
(-0.323128 -0.577794 0.000114765)
(-0.287141 -0.666956 -0.0160206)
(-0.196036 -0.644971 -0.0328579)
(-0.0492786 -0.418892 -0.0412829)
(0.0278797 -0.0583735 0.00377208)
(-0.00193142 0.259052 -0.00160845)
(0.0346987 0.458339 -0.0243579)
(0.109869 0.575861 -0.0337117)
(0.185941 0.623945 -0.0282667)
(0.249954 0.62224 -0.0134373)
(0.295979 0.591736 -0.00176854)
(0.325075 0.54955 0.00418977)
(0.342584 0.501497 0.00708725)
(0.362305 0.440269 0.00802977)
(0.369545 0.378152 0.00858198)
(0.354312 0.325522 0.00986506)
(0.32411 0.281215 0.0110353)
(0.284958 0.243859 0.0112247)
(0.241 0.211235 0.0106658)
(0.195642 0.180506 0.00981736)
(0.150791 0.150048 0.00917106)
(0.108465 0.120249 0.00907725)
(0.0736547 0.094654 0.0100056)
(0.0483812 0.0745769 0.0105532)
(0.0282323 0.0584727 0.00957891)
(0.00938417 0.0421944 0.0108146)
(-0.0130067 0.0297817 0.00743467)
(-0.0339487 0.0167485 0.0082644)
(-0.0467978 0.00591437 0.0114096)
(-0.0621178 -0.00768075 0.0122671)
(-0.0846681 -0.024416 0.0141819)
(-0.111419 -0.0356526 0.0165344)
(-0.14104 -0.0446458 0.0187297)
(-0.170704 -0.0569582 0.0203813)
(-0.200057 -0.0771808 0.0209903)
(-0.228586 -0.106595 0.020576)
(-0.246849 -0.147177 0.0196154)
(-0.255951 -0.209371 0.0168926)
(-0.276023 -0.302911 0.0165884)
(-0.307523 -0.428029 0.0173623)
(-0.330615 -0.574308 0.0129724)
(-0.312828 -0.696396 -0.000645847)
(-0.235596 -0.715977 -0.0189811)
(-0.0786587 -0.508157 -0.0313698)
(0.0228249 -0.0951497 -0.00235482)
(0.00040525 0.244407 0.00248597)
(0.0338623 0.424808 -0.0195388)
(0.101705 0.541489 -0.0292287)
(0.175353 0.596012 -0.0265494)
(0.239028 0.600776 -0.0145582)
(0.286326 0.574254 -0.0037739)
(0.317678 0.533017 0.00159403)
(0.33115 0.489438 0.00403209)
(0.341347 0.438449 0.00401894)
(0.348135 0.378531 0.00449295)
(0.341548 0.321085 0.00608815)
(0.320559 0.27022 0.00832601)
(0.289607 0.226433 0.00982833)
(0.250491 0.189207 0.0102816)
(0.206579 0.154819 0.0103937)
(0.162487 0.121958 0.0107119)
(0.123244 0.0928067 0.0114781)
(0.0932404 0.0711376 0.0122605)
(0.0711859 0.0558076 0.0120034)
(0.0519595 0.0437284 0.0109419)
(0.0313016 0.0324113 0.00954397)
(0.00820532 0.0199983 0.00873491)
(-0.0106507 0.00806856 0.00888646)
(-0.0266754 -0.00565885 0.0108012)
(-0.0467912 -0.0247809 0.0103875)
(-0.0669656 -0.0456643 0.0124763)
(-0.0859809 -0.0650481 0.0146144)
(-0.108961 -0.0798143 0.0161637)
(-0.137881 -0.0909717 0.0176267)