/*--------------------------------*- C++ -*----------------------------------*\
| =========                 |                                                 |
| \\      /  F ield         | OpenFOAM: The Open Source CFD Toolbox           |
|  \\    /   O peration     | Version:  v1806                                 |
|   \\  /    A nd           | Web:      www.OpenFOAM.com                      |
|    \\/     M anipulation  |                                                 |
\*---------------------------------------------------------------------------*/
FoamFile
{
    version     2.0;
    format      ascii;
    class       vectorField;
    location    "0.132";
    object      currentcloudofpoints;
}
// * * * * * * * * * * * * * * * * * * * * * * * * * * * * * * * * * * * * * //


2409
(
(1.41797 1.64017 1.47383)
(0.616865 1.38189 1.24467)
(1.25092 1.11007 1.32644)
(1.65736 1.72542 0.774475)
(1.30879 1.80659 1.17677)
(1.4324 1.44228 0.751488)
(1.4374 1.24997 1.29597)
(0.757692 1.25156 0.683459)
(1.422 1.07039 0.991484)
(0.964576 0.893596 0.836007)
(1.2055 1.12785 1.52093)
(1.33656 1.01422 1.40785)
(1.68439 1.37816 1.16219)
(1.42651 1.46903 1.05624)
(1.3639 1.04153 1.26353)
(1.1227 1.13842 1.39893)
(1.38773 1.0143 1.39264)
(1.37293 1.66305 0.8947)
(1.75726 1.36055 1.17637)
(1.45878 1.26362 1.38741)
(0.42116 0.933473 1.15188)
(0.674361 1.56123 1.10853)
(1.53484 1.26836 1.57723)
(1.52565 1.62577 1.23067)
(0.47158 1.35973 1.12256)
(0.74765 1.03942 1.53926)
(0.468043 1.17256 1.32233)
(0.880786 1.49027 1.64863)
(1.3097 1.44234 1.41019)
(1.33538 1.5572 0.626837)
(0.764773 1.32971 0.735931)
(1.41291 1.43901 0.630537)
(0.962179 1.30679 0.69351)
(0.83632 1.33864 0.908952)
(1.17356 1.12316 0.638696)
(1.39097 1.17132 0.911125)
(1.39889 1.46521 0.633267)
(1.55082 1.24112 0.567605)
(0.985773 1.22918 0.371868)
(0.745191 1.16338 0.506998)
(0.692127 1.36605 0.867728)
(1.03203 0.852321 0.951881)
(1.31544 1.20053 0.808835)
(1.51491 1.19293 0.520112)
(0.633886 1.14184 0.573515)
(0.868294 1.42093 0.368693)
(0.95407 1.36032 0.440777)
(1.54524 1.64417 1.20766)
(1.31075 1.26329 1.67464)
(1.30639 1.48843 1.5089)
(0.750826 1.08993 1.05533)
(1.55413 1.62664 1.17052)
(1.54998 1.60179 1.49568)
(1.29978 1.36661 1.57506)
(1.70805 1.31089 1.1857)
(1.23758 1.45215 1.50518)
(1.20107 1.05887 1.20087)
(1.43891 1.61796 0.498069)
(1.14156 1.77716 1.01434)
(1.18835 1.58019 0.432224)
(1.49809 1.62188 1.00838)
(0.681871 1.44441 0.725309)
(1.26932 1.35486 0.749994)
(0.579335 1.57521 0.893694)
(1.4975 1.27245 0.611694)
(1.14326 1.06187 1.19606)
(1.42124 1.60556 1.31274)
(1.66546 1.48587 1.27263)
(1.44088 1.41522 0.690405)
(1.39876 1.62869 1.20625)
(0.473151 0.942117 1.13464)
(1.54903 1.71463 1.17317)
(0.799586 1.26011 1.38812)
(1.24169 1.71758 0.787562)
(1.3026 1.28796 0.558902)
(1.71671 1.10839 1.14067)
(1.66342 1.12659 1.23)
(1.22596 1.1965 1.413)
(0.699234 1.20548 1.05749)
(1.79396 1.35819 1.36454)
(1.64401 1.09011 1.20091)
(1.77842 1.06637 1.13575)
(1.24742 1.15056 1.37568)
(0.605864 1.01889 1.13358)
(0.565124 1.37064 1.2972)
(0.794654 1.06615 1.48126)
(1.21446 1.40339 1.6113)
(0.968077 1.07547 1.59998)
(0.929684 1.00748 1.58164)
(1.49599 1.10116 1.46295)
(0.798419 0.958417 1.39615)
(0.510247 1.25973 1.42518)
(0.500359 1.54954 1.29863)
(1.07142 1.33657 1.58514)
(0.910425 1.02553 1.5127)
(0.94802 1.29464 1.40295)
(1.17585 1.75545 1.3455)
(1.27375 1.16637 1.51365)
(0.953543 1.35727 1.55648)
(1.25496 1.0354 1.4946)
(1.03975 1.14256 1.29822)
(1.3064 1.03933 1.32975)
(1.19806 1.07278 1.37321)
(1.08396 1.30233 0.935849)
(1.43034 1.06622 1.03774)
(1.36183 1.01697 1.57684)
(0.909186 1.34371 1.43031)
(1.17072 1.07449 1.42035)
(1.03785 1.18261 1.23833)
(1.21906 1.05636 1.36189)
(1.30257 1.29503 1.34572)
(1.2812 1.1979 0.96618)
(1.44586 1.04158 1.02042)
(0.88596 0.802934 0.8314)
(0.633914 1.56007 1.08209)
(0.890341 1.37468 0.598725)
(0.707952 1.7472 0.809091)
(0.854727 1.29205 0.532394)
(1.13857 1.01662 0.41402)
(1.03544 1.05103 0.354245)
(1.00051 1.06462 1.11122)
(1.12292 1.22642 0.276756)
(1.00451 1.65902 0.989324)
(0.879866 1.29839 1.22506)
(1.07488 0.915775 0.489345)
(0.690611 1.31871 0.628109)
(1.16262 1.0453 0.495256)
(1.07522 1.28908 0.404212)
(1.36296 1.11145 0.951179)
(1.08418 1.16396 0.986373)
(0.735639 1.3162 0.740238)
(1.44295 1.37611 0.902147)
(1.20589 1.39583 0.485606)
(1.15821 1.34595 0.538616)
(1.11211 1.03712 0.65343)
(1.39102 1.09154 0.969268)
(1.23685 1.21297 0.884701)
(1.00852 1.01606 1.00331)
(0.769508 1.42478 0.622935)
(1.23211 1.36326 0.384205)
(1.23099 1.30928 0.41979)
(1.19532 1.30422 0.560701)
(1.26504 1.05657 0.402019)
(1.59856 1.65178 1.31193)
(1.31536 1.72883 1.42645)
(1.51126 1.4609 1.42824)
(1.19118 1.54843 1.14087)
(0.886595 1.20094 1.48714)
(0.750055 0.881521 1.08396)
(1.34823 1.1375 1.03659)
(1.30492 1.73641 1.24421)
(1.24017 1.36631 0.803249)
(1.43765 1.35797 0.519549)
(1.6112 1.41248 1.40189)
(1.32814 1.679 1.34889)
(1.15631 1.34037 1.67488)
(0.801497 0.859201 1.16203)
(1.48294 1.0508 1.25052)
(1.47584 1.76735 0.588142)
(1.42119 1.73414 0.609647)
(1.58001 1.8072 0.716433)
(1.29359 1.33524 0.868872)
(1.28397 1.66314 0.462059)
(0.75547 1.27678 0.675145)
(0.985082 1.51583 0.421711)
(1.17136 1.46448 1.12408)
(1.36131 1.68609 0.703371)
(1.43303 1.70956 0.5971)
(1.41366 1.80308 0.761768)
(1.24347 1.74673 0.501198)
(1.11023 1.55747 0.372423)
(1.26794 1.04781 0.414366)
(1.2788 1.07536 0.402087)
(0.906924 0.837182 0.819007)
(1.476 1.41705 0.915908)
(1.10031 1.71488 1.43667)
(1.28067 1.57814 0.88761)
(1.45436 1.25797 1.40895)
(1.41882 1.43979 1.19053)
(0.763826 1.38653 1.23103)
(1.14762 1.73336 0.823215)
(0.978428 1.6375 0.983324)
(1.36054 1.72671 0.610399)
(0.927783 1.43105 0.332573)
(1.7565 1.45409 1.35752)
(1.49972 1.0665 1.3461)
(0.802964 1.0979 1.10821)
(0.767779 1.27635 1.37246)
(1.37467 1.29913 0.724933)
(1.54499 1.31613 1.23446)
(1.31736 1.24803 0.757616)
(1.57972 1.19098 1.06404)
(1.74947 1.28719 1.12834)
(1.52637 1.22828 1.23589)
(1.17181 1.32973 1.00035)
(1.61463 1.34328 1.3231)
(1.1361 1.40893 1.58473)
(1.80749 1.28999 1.23248)
(1.33037 1.26743 0.781831)
(1.62248 1.21585 1.26856)
(1.73598 1.29195 1.12397)
(1.22063 1.25499 1.07254)
(1.30879 1.21371 0.9556)
(1.15494 1.5481 0.482595)
(1.18941 1.19883 0.466651)
(0.803584 1.29276 0.746369)
(1.15529 1.38935 1.384)
(1.48745 1.66868 1.30095)
(0.780069 1.24342 1.32968)
(0.50592 1.55405 0.708691)
(0.682756 1.21206 0.428409)
(0.610315 1.6706 0.807734)
(1.22041 1.69707 0.605137)
(1.33201 1.28339 0.560537)
(0.848569 1.36507 0.748346)
(1.34766 1.26688 1.04378)
(1.34776 1.38441 1.02702)
(1.5583 1.77408 1.0854)
(1.64881 1.05049 1.23797)
(1.15829 1.3251 1.53994)
(1.45883 1.08867 1.15804)
(1.52349 1.08117 1.11369)
(1.58514 0.986456 1.26277)
(1.15599 1.65222 1.1183)
(1.70949 1.22658 0.935058)
(1.81674 1.3796 1.03947)
(1.45449 1.31319 0.498689)
(1.66855 1.09778 1.04938)
(1.64638 0.993896 1.20319)
(1.08994 1.18693 0.938698)
(1.53649 1.17588 1.30813)
(1.59834 1.02597 1.23999)
(1.62738 1.04914 1.1626)
(1.23025 1.61166 1.05028)
(0.909393 1.38195 1.4279)
(1.45671 1.29237 1.56585)
(1.31184 1.27073 0.749093)
(1.14135 1.33542 0.94826)
(1.53947 1.64678 1.11214)
(1.23575 1.35837 0.861788)
(1.65309 1.67445 1.07439)
(1.46258 1.06316 1.29783)
(1.71749 1.37105 1.05339)
(1.23666 1.58053 1.03445)
(0.764132 1.32135 1.30267)
(1.44669 1.15476 1.07936)
(1.55213 1.73764 1.09831)
(1.17055 1.58711 0.595654)
(1.49181 1.21146 1.23319)
(1.63738 1.19236 0.945561)
(1.83592 1.1264 1.16418)
(0.899495 1.22163 1.52453)
(1.10562 1.16257 1.41199)
(0.962707 1.19346 1.24336)
(0.93629 0.9862 1.26499)
(0.898841 1.32088 1.56629)
(1.34401 1.04865 1.14145)
(1.33032 1.13659 1.03044)
(1.38038 1.07426 1.24685)
(1.3665 1.11601 1.05249)
(1.39652 1.05412 1.16888)
(1.64627 1.10118 1.29167)
(1.39429 1.0883 1.09048)
(1.19676 1.2735 0.984919)
(1.59815 1.11152 1.33708)
(1.14051 1.3096 1.03105)
(1.24536 1.39727 1.09026)
(1.41406 1.09221 1.13601)
(1.35074 1.13984 1.01296)
(1.45297 1.1119 1.06138)
(1.37946 1.09933 1.0386)
(1.44575 1.09722 1.0394)
(1.40427 1.11591 1.00585)
(1.52375 1.12714 1.15531)
(1.27017 1.24839 1.00492)
(1.47674 1.25744 1.14952)
(1.4188 1.39035 1.04791)
(1.25278 1.59373 1.03179)
(1.40571 1.39133 1.07297)
(1.57251 1.55795 1.22928)
(1.25197 1.80381 1.17947)
(1.26551 1.7393 1.20214)
(1.57444 1.59324 1.26441)
(1.78482 1.4263 1.0281)
(1.62776 1.20728 0.983119)
(1.16492 1.75997 1.47883)
(1.66488 1.04161 1.18839)
(1.62665 1.19419 1.15656)
(1.84625 1.25156 1.2703)
(1.67073 1.31689 1.07389)
(1.54322 1.26062 1.25131)
(1.66829 1.07044 1.21091)
(1.47213 1.15678 1.14713)
(1.52074 1.23864 1.21432)
(1.58169 1.17637 1.30984)
(1.54531 1.15805 1.2469)
(1.30881 1.76605 1.20365)
(1.32045 1.76585 1.13872)
(1.30516 1.7678 1.1172)
(1.3786 1.33639 1.0638)
(1.59279 1.78633 1.1333)
(1.27681 1.78414 1.14204)
(1.24623 1.34016 0.831625)
(1.71445 1.17988 0.988208)
(1.58232 1.40033 0.896744)
(1.46612 1.39376 1.62864)
(1.63041 1.10536 1.29824)
(1.65017 1.19338 1.39702)
(1.16189 1.12758 1.41113)
(1.57052 1.0505 1.24781)
(1.65376 1.14945 1.07707)
(1.50906 1.29094 0.978372)
(1.37486 1.14331 1.413)
(0.904891 1.22666 1.34856)
(1.10866 1.3688 1.53819)
(0.621007 1.29538 1.29166)
(1.684 1.49825 1.07636)
(1.67146 1.13311 1.25894)
(1.6531 1.01136 1.21292)
(1.58157 1.2223 1.02439)
(1.7648 1.34876 1.02822)
(1.64026 1.22261 1.317)
(1.83159 1.21078 1.11954)
(1.61883 1.00702 1.24396)
(1.64091 1.00616 1.21739)
(1.62251 0.998439 1.23766)
(1.63464 1.01442 1.17342)
(1.74866 1.4281 1.06163)
(1.68721 1.58969 1.37432)
(1.17612 1.74397 1.05508)
(1.26198 1.86585 1.14743)
(1.35849 1.78347 1.20845)
(1.17784 1.46594 1.16031)
(1.25723 1.63203 1.11941)
(1.36134 1.31145 0.770405)
(1.11126 1.60196 1.47341)
(1.36415 1.67417 1.4385)
(1.20367 1.51704 0.576581)
(1.10032 1.56179 1.16116)
(1.23746 1.33587 0.525811)
(1.62918 1.40149 1.40509)
(0.745901 1.34682 0.755059)
(1.31395 1.06018 0.784299)
(1.49124 1.41471 1.37839)
(1.51937 1.47184 1.42121)
(1.26337 1.75862 0.758747)
(1.06227 1.65798 1.52952)
(1.40623 1.44614 0.757606)
(1.0393 1.13925 1.5464)
(1.30776 1.18021 1.01065)
(1.41919 1.0887 1.11242)
(0.894462 1.37539 1.37468)
(0.744914 1.19635 1.05174)
(1.3616 1.79868 1.31308)
(1.60858 1.39856 1.35426)
(1.26958 1.76871 1.1611)
(1.63473 1.61948 1.13601)
(1.44627 1.17529 1.40207)
(1.57261 1.28827 0.881359)
(1.56269 1.14742 1.24365)
(0.59264 1.29685 1.26203)
(0.766591 1.37516 1.27397)
(1.03522 1.49988 1.28916)
(0.724425 1.61664 1.11938)
(1.78519 1.51476 1.05718)
(1.5791 1.02248 1.1468)
(1.53358 1.00224 1.15992)
(1.44084 1.03758 1.11535)
(1.59967 1.14203 1.2081)
(1.56636 1.00133 1.21006)
(1.67855 1.36378 0.940227)
(1.49384 1.07833 1.25938)
(1.19949 1.7082 1.06977)
(1.67897 1.59344 1.33899)
(1.49328 1.33637 1.04845)
(1.74944 1.40827 1.08149)
(1.67749 1.14854 1.04799)
(1.62404 1.23019 0.927105)
(1.65279 1.43595 1.10506)
(1.58077 1.07517 1.21367)
(1.06491 1.23244 1.64458)
(0.626888 1.5351 1.31148)
(0.616111 1.2911 1.16728)
(0.539644 1.33778 1.41611)
(0.707947 1.43858 1.53398)
(1.13357 1.41273 1.65864)
(0.517658 1.03458 1.32894)
(1.48838 1.47237 0.757111)
(0.998168 1.06385 1.31774)
(1.31763 1.33047 1.66294)
(0.843497 1.07951 1.50234)
(1.37858 1.44026 0.75265)
(0.869622 1.19399 1.64707)
(0.539732 1.32265 1.22516)
(1.16675 1.54271 1.63001)
(0.805055 1.19841 0.933748)
(0.489419 1.39731 1.2983)
(1.04158 1.15723 1.65704)
(0.289372 1.20904 1.14757)
(0.713467 1.19085 1.61057)
(1.10579 1.23288 1.61213)
(1.05552 1.64954 1.21435)
(1.17383 1.43301 1.64319)
(0.841718 1.0519 1.49056)
(1.00908 1.19498 1.41418)
(1.44298 1.5625 1.22381)
(1.43686 1.31281 1.31292)
(0.601753 1.47813 1.33816)
(0.54494 1.25945 1.113)
(0.603599 1.37998 1.10637)
(0.838773 1.13639 1.33226)
(0.772652 0.946051 1.55504)
(1.26551 1.13514 1.25961)
(1.26713 0.995086 1.40428)
(0.733947 1.60068 0.99867)
(1.33577 1.47698 1.29709)
(1.57419 1.53946 1.3452)
(0.338253 0.987294 1.12334)
(0.361128 1.1556 1.28028)
(0.898778 1.02343 1.3217)
(0.9244 1.43905 1.53269)
(0.247874 1.24118 0.918943)
(0.582695 1.35936 1.40573)
(0.512383 1.41218 1.27578)
(0.617077 1.17936 1.15867)
(0.276439 1.39335 1.08041)
(0.279868 1.19729 1.09962)
(0.53698 1.39228 1.2817)
(0.971309 1.02126 1.57841)
(1.36242 1.28134 1.05426)
(1.11835 1.12152 1.65499)
(0.913246 0.95732 1.40185)
(0.593062 1.40512 1.0483)
(1.50688 1.06738 1.22666)
(1.46863 1.07701 1.12552)
(1.22924 1.4374 1.59174)
(0.964872 1.31268 1.07083)
(0.876285 1.30179 1.07508)
(0.794035 1.4417 1.47495)
(1.00801 1.33914 1.03343)
(1.08371 1.45332 1.22545)
(0.49441 1.52069 1.41804)
(0.617239 1.51966 1.23294)
(1.3067 1.76849 1.36744)
(0.792326 1.629 1.54065)
(0.63596 1.31768 1.59352)
(1.27951 1.49346 1.37624)
(0.813932 1.1907 1.48061)
(0.426183 0.870293 1.18195)
(0.278489 1.29234 1.17716)
(0.515762 1.35922 1.46196)
(0.842926 1.19715 1.2474)
(1.42128 1.41119 0.739332)
(0.87429 0.814445 0.69221)
(0.719618 1.59106 1.30519)
(1.40655 1.66774 1.14513)
(0.855614 1.52862 1.05596)
(1.32325 1.71446 1.44065)
(1.56909 1.76202 0.712309)
(1.24504 1.3693 0.743976)
(1.03362 1.2027 1.67567)
(0.891839 1.23244 1.523)
(1.54898 1.73772 1.11723)
(1.17212 1.45071 1.63568)
(1.31114 1.68295 1.48779)
(1.15665 1.43691 1.6531)
(1.12352 1.52265 1.66555)
(1.1742 1.28085 1.60039)
(1.08682 1.50889 1.67328)
(0.627458 1.29522 1.55738)
(1.05687 1.11808 1.65082)
(0.86497 1.31601 1.55777)
(0.962653 1.12398 1.61917)
(0.603104 1.3753 1.0784)
(0.99264 1.14865 1.64587)
(1.07074 1.21212 1.64785)
(1.00668 1.15215 1.65633)
(0.767413 0.934596 1.13211)
(1.09666 1.23322 1.65461)
(1.3973 1.75671 1.37557)
(1.30227 1.41307 1.11203)
(1.21726 1.35287 1.63131)
(1.20186 1.43194 1.58916)
(1.20561 1.38749 1.61915)
(1.17266 1.32469 1.64839)
(1.28115 1.42506 0.697697)
(1.30985 1.76865 1.34818)
(0.845843 0.84995 1.19435)
(0.45375 1.22461 1.04135)
(1.38683 1.57146 0.996341)
(0.60755 1.38182 1.09638)
(1.12012 1.13588 1.5218)
(0.924189 1.28712 1.44153)
(1.21333 1.12725 1.58866)
(0.928419 1.42547 1.24109)
(1.15846 1.39026 1.66622)
(1.36692 1.61025 1.13357)
(0.494792 1.4347 1.38988)
(0.94365 1.63477 1.49869)
(0.941997 1.23797 1.15739)
(0.682034 1.42854 1.21709)
(1.55149 1.49524 1.31698)
(0.747568 1.1604 1.05365)
(0.863335 1.18267 1.50208)
(1.49252 1.47117 0.739911)
(1.21904 1.62921 0.998481)
(1.60497 1.62207 1.31245)
(1.45207 1.48953 0.991941)
(1.21823 1.51165 1.39268)
(1.14713 1.25975 1.58478)
(0.855648 0.857 1.1685)
(0.66935 1.35775 1.56692)
(0.839432 1.44591 1.64221)
(1.01641 1.60653 1.29239)
(1.09553 0.842248 0.712355)
(0.833315 1.55506 1.12246)
(0.96658 1.39982 1.19904)
(1.23662 1.48809 1.22097)
(1.47957 1.6263 1.12251)
(1.58098 1.54092 1.00001)
(1.37587 1.6027 1.22279)
(0.744241 1.43627 1.28989)
(0.824031 1.55836 1.61963)
(0.842519 1.38223 1.6431)
(1.63928 1.39836 1.44921)
(1.14711 1.48409 1.39945)
(0.939341 1.18131 1.65092)
(0.93234 1.17512 1.62593)
(1.35206 1.53145 0.518438)
(0.868849 1.54402 1.56145)
(0.985074 1.39116 1.71699)
(0.866173 1.05265 1.50271)
(0.744266 1.30566 1.68179)
(0.833971 1.66317 1.43268)
(0.537299 1.23469 1.13514)
(1.15519 1.27694 1.61543)
(0.662579 1.33203 1.6016)
(0.846589 1.3516 1.24561)
(1.01171 1.29416 1.55778)
(0.889724 1.7897 0.826917)
(1.15935 1.60816 1.16807)
(0.541308 1.58571 1.28367)
(0.574713 1.50304 1.48545)
(0.629473 1.56028 1.33355)
(1.459 1.59121 1.04954)
(0.96284 1.39266 0.910641)
(0.668604 1.19665 1.64557)
(0.906696 1.09893 1.39575)
(0.561644 1.18089 1.48784)
(0.474998 1.66756 0.779911)
(1.14799 1.72277 0.968516)
(1.12534 1.09165 0.664095)
(0.424042 1.34324 0.641189)
(1.39144 1.68777 0.929388)
(1.28371 1.73795 0.680898)
(1.23773 1.70932 0.870038)
(1.03216 1.32485 0.367385)
(0.544128 1.0918 0.589769)
(1.58709 1.74715 0.736876)
(1.51603 1.72103 0.735271)
(1.19255 1.58378 0.615877)
(0.8998 1.84176 0.780578)
(0.414721 1.61322 0.786366)
(0.453298 1.2441 0.584283)
(1.43806 1.64095 0.657161)
(0.937914 1.49957 0.41095)
(0.451718 1.49964 0.676437)
(0.956739 0.888795 0.660561)
(0.716767 1.3578 0.392391)
(0.720665 1.752 0.90076)
(0.538302 1.59039 0.560769)
(0.966616 1.24126 0.980386)
(0.516448 1.47104 0.632406)
(1.47642 1.59013 0.607009)
(0.744089 1.1938 0.378586)
(0.947506 1.03045 0.741931)
(0.999921 0.857371 1.2257)
(1.03871 1.62078 0.417531)
(0.905778 1.75165 1.06039)
(0.90458 1.37519 0.227009)
(1.25296 1.46678 0.567356)
(1.41192 1.81097 0.652917)
(0.847806 1.5016 0.397879)
(0.881912 1.68966 0.453629)
(1.38942 1.30328 0.35434)
(0.507897 1.64104 1.00764)
(0.447667 1.47979 0.765481)
(1.03161 0.817635 0.780529)
(1.08914 1.04848 0.882821)
(0.497857 1.51014 0.656041)
(0.967965 1.2828 1.11247)
(1.42452 1.55399 0.644693)
(0.444637 1.40561 0.61156)
(0.981132 1.29062 0.606763)
(0.879933 1.28149 0.269459)
(1.10556 1.42102 0.426666)
(0.855138 1.39586 0.655938)
(1.3105 1.64988 0.517511)
(0.745826 1.62674 1.03895)
(1.15083 1.44409 0.442302)
(1.03065 1.53362 0.371343)
(0.732254 1.36572 0.351983)
(0.760494 1.75277 0.882473)
(1.34927 1.62626 0.563089)
(1.32105 1.62655 0.696145)
(0.941299 1.55251 0.998838)
(0.840737 1.50951 0.327209)
(1.05301 1.25285 0.303598)
(1.14672 1.16973 0.52053)
(1.17315 1.02598 0.664339)
(1.38993 1.72795 0.631433)
(1.19709 1.80409 0.636454)
(1.16522 1.80656 0.59358)
(1.38615 1.62696 0.722537)
(1.45594 1.64483 0.635781)
(1.39598 1.3209 0.683758)
(1.42421 1.31307 0.599256)
(1.46615 1.63063 0.584353)
(1.32357 1.72567 0.73773)
(1.30722 1.58009 0.934053)
(1.39361 1.79459 0.80252)
(1.34393 1.79742 0.825072)
(1.0518 0.867037 0.507796)
(0.896446 1.0645 0.352563)
(1.09604 1.65781 0.507322)
(1.17677 1.7113 0.489962)
(1.03492 1.22904 0.308342)
(0.562518 1.47297 0.635569)
(0.745948 1.36648 0.424708)
(0.85311 1.16711 0.504811)
(0.982848 1.27059 1.17502)
(0.599204 1.11466 0.496551)
(1.05955 1.07177 0.670463)
(1.15525 1.3185 0.433902)
(1.01244 1.06275 0.374586)
(0.437864 1.63421 0.933497)
(1.16903 1.7907 0.586534)
(0.776863 1.70136 0.799621)
(0.922554 1.69029 0.911012)
(1.40639 1.63184 0.696442)
(0.894129 1.31706 0.955754)
(0.808661 1.55373 0.725946)
(1.1962 1.79693 0.557506)
(0.93148 1.73429 1.01091)
(0.846219 1.34551 0.345126)
(1.23692 1.36407 1.24835)
(0.590861 1.57451 1.08761)
(0.591837 1.72537 0.710412)
(0.936354 1.47697 0.259325)
(1.23618 1.6356 0.531997)
(1.07685 1.35004 0.381723)
(1.48595 1.23599 0.533565)
(0.636528 1.43754 0.998418)
(0.841216 1.18229 0.517385)
(1.10255 1.67945 0.958529)
(1.44209 1.59791 0.662991)
(1.15984 1.58878 0.616955)
(1.69087 1.58278 0.70284)
(1.43961 1.71683 0.734531)
(1.56806 1.74866 0.664904)
(1.09267 1.53765 0.385076)
(1.34911 1.70068 0.511286)
(0.67281 1.15442 0.422242)
(1.17062 1.60039 0.558073)
(1.15727 1.64873 0.530503)
(0.942215 1.33495 0.873802)
(1.29283 1.74228 0.62311)
(1.34816 1.28311 0.726599)
(1.05808 1.17399 0.382324)
(0.9165 1.59394 0.555287)
(0.92303 1.73864 1.02101)
(1.05591 1.15854 0.392198)
(1.22908 1.60994 0.486039)
(0.427225 1.46313 0.606203)
(0.458632 1.3798 0.734067)
(1.15525 0.883175 0.746312)
(0.499521 1.64359 0.740242)
(0.452636 1.60157 0.713109)
(0.959854 1.2886 0.977181)
(0.737219 1.11777 0.912373)
(0.789049 1.30338 0.389119)
(0.808452 1.31671 1.4594)
(1.393 1.48589 0.900929)
(0.599291 1.57851 0.633068)
(0.634618 1.59177 1.08758)
(1.23443 1.09313 1.30593)
(0.399606 1.29461 0.826476)
(0.830851 1.38866 0.552915)
(1.64509 1.419 0.722472)
(1.2013 1.51816 1.1339)
(0.839323 1.47461 0.8837)
(0.842363 0.787819 0.589552)
(0.938868 1.2144 0.633954)
(1.10253 0.782996 0.850372)
(0.740755 0.875662 0.578112)
(1.3673 1.52766 0.535958)
(1.35254 1.55126 0.607627)
(0.989795 1.37594 0.443773)
(1.63042 1.4526 1.35818)
(1.12066 1.44322 0.463274)
(0.869456 1.31585 0.905325)
(1.41122 1.30007 0.675282)
(1.42101 1.32452 0.67166)
(0.832353 1.4755 1.03113)
(1.27731 1.64996 0.730328)
(1.27666 1.67743 0.86581)
(1.12593 1.66534 0.614518)
(1.31631 1.63045 0.833405)
(0.918026 1.25809 0.974986)
(0.75709 0.812139 0.611952)
(0.718756 1.39608 0.419208)
(0.697782 1.28149 0.407673)
(0.80684 1.7604 0.860347)
(0.596904 1.67221 1.00193)
(1.7035 1.67355 0.670611)
(1.47198 1.81522 0.853875)
(1.60632 0.991414 0.827466)
(0.785506 1.59768 1.04603)
(1.33479 1.74386 0.78237)
(1.43264 1.11426 0.944912)
(0.641073 1.49181 0.780256)
(1.52867 1.09088 0.693033)
(1.55036 1.72989 0.926421)
(1.58456 1.77233 0.905896)
(1.37603 1.71637 0.651986)
(1.591 1.1072 0.811569)
(1.50278 1.19197 0.718494)
(1.54212 1.281 0.619715)
(1.68362 1.32581 0.850735)
(1.09071 1.15378 0.614503)
(1.37351 1.13378 0.921069)
(0.652226 1.69164 0.882504)
(1.46432 1.32551 0.87731)
(1.21833 1.29473 0.98757)
(1.52913 1.21735 0.968806)
(1.56212 1.02332 0.783699)
(1.40085 1.41675 0.875263)
(1.45497 1.71904 0.590234)
(1.65662 1.56968 0.922121)
(1.59858 1.15915 0.730794)
(1.40066 1.4936 0.779222)
(1.18741 1.41929 0.486201)
(1.35747 1.81117 0.989142)
(1.37127 1.15905 0.972577)
(0.923258 1.06729 0.85841)
(1.69388 1.2761 0.752844)
(1.43734 1.22813 0.959471)
(1.24135 1.08912 0.716161)
(1.37604 1.75783 0.656818)
(1.31244 1.59532 1.3009)
(1.24414 1.29116 0.893318)
(1.37621 1.12823 0.977313)
(1.40848 1.10141 0.960169)
(1.67546 1.83046 0.867199)
(1.53523 1.86719 0.795236)
(1.70642 1.81482 0.83022)
(1.59378 1.75165 0.820899)
(1.70215 1.64012 0.656786)
(1.73126 1.5736 0.632688)
(1.60148 1.65053 0.876524)
(1.70829 1.61454 0.894058)
(1.70951 1.44738 0.833152)
(1.6759 1.42531 0.616824)
(1.69085 1.302 0.748507)
(1.70414 1.29155 0.798899)
(1.35802 1.12881 0.633792)
(0.94321 1.19719 0.862952)
(1.36955 1.7901 1.00582)
(1.02252 1.66884 0.579166)
(1.35135 1.74695 1.06278)
(1.54423 1.33602 0.889187)
(1.52685 1.12415 0.873968)
(1.44092 1.47018 0.786185)
(1.51686 1.13755 0.882297)
(1.6096 1.137 0.765603)
(1.7059 1.18007 0.812239)
(0.920749 1.40663 0.797108)
(1.25334 1.08408 0.753426)
(1.7172 1.16878 0.787302)
(1.21723 1.40835 1.01229)
(1.51116 1.18298 1.14125)
(1.30247 1.27298 0.973051)
(1.23238 1.25324 1.07183)
(1.15595 1.32564 0.942141)
(1.37696 1.21191 1.05279)
(1.295 1.25237 0.935939)
(0.880511 0.85716 0.494842)
(1.2464 1.21477 0.28284)
(1.02251 1.11596 0.799528)
(1.4796 1.7034 0.626915)
(1.39789 1.66285 0.712181)
(1.28408 1.62894 1.08372)
(1.53684 1.6081 0.555113)
(1.38364 1.62053 0.754874)
(1.40009 1.74417 0.6461)
(1.26055 1.81417 1.07602)
(1.24042 1.82779 1.03112)
(1.41503 1.75414 0.941657)
(1.41548 1.76327 0.685329)
(1.49886 1.07666 0.923603)
(1.4972 1.06863 0.881703)
(1.39654 1.12055 0.927406)
(1.12315 1.21292 0.955241)
(1.29528 1.17104 0.911543)
(1.40254 1.16929 0.98044)
(1.40357 1.13661 0.962732)
(1.47653 1.15308 0.993483)
(1.38357 1.11997 0.946714)
(1.34335 1.68392 0.709619)
(1.48114 1.82355 0.760895)
(1.64448 1.48509 0.656249)
(1.37381 1.6895 0.675698)
(1.20306 1.61515 0.650702)
(1.12695 1.73894 0.469934)
(1.53897 1.83763 0.794933)
(1.44067 1.74107 1.06005)
(1.21222 1.63406 0.628923)
(1.37181 1.76955 0.55027)
(1.11946 1.2221 0.630664)
(1.19491 1.15732 0.460382)
(0.824057 1.3573 0.729755)
(1.09958 0.990778 0.763957)
(0.722215 1.43381 0.709635)
(1.78782 1.51921 0.812773)
(1.41934 1.67852 0.910227)
(1.36908 1.48469 0.499939)
(1.50039 1.27691 0.641503)
(0.780182 1.32239 0.747113)
(0.789651 1.05479 1.138)
(1.62624 1.77698 0.767394)
(1.326 1.48497 0.501104)
(1.34824 1.64477 0.813091)
(1.45379 1.6159 0.954118)
(1.77288 1.55094 0.858755)
(1.16594 1.85518 0.724475)
(1.52093 1.85233 0.719345)
(0.963838 1.11738 0.638221)
(1.33587 1.68932 0.723495)
(0.612442 1.47762 0.771753)
(0.74293 1.46837 0.643711)
(1.13554 1.35646 0.616871)
(1.34534 1.08972 0.562099)
(0.649556 1.48512 0.734122)
(1.05357 1.25588 0.758994)
(1.16182 1.34768 0.590146)
(0.924205 1.17877 0.903157)
(1.21866 1.1726 0.89281)
(1.15424 1.22026 0.578811)
(0.862699 1.32264 0.672727)
(1.4692 1.21863 0.993974)
(1.32489 1.53549 0.708224)
(1.5283 1.68257 1.01662)
(1.43706 1.25835 0.721793)
(1.35194 1.70817 0.687172)
(1.6761 1.08761 0.849868)
(1.56011 1.18711 0.675935)
(1.615 1.03872 0.731212)
(1.41217 1.21945 1.02092)
(1.59775 1.13097 0.660448)
(1.33133 1.17134 0.826184)
(1.60366 1.17929 0.777147)
(1.16641 1.38983 0.885149)
(1.29677 1.26394 0.840941)
(1.43007 1.16507 0.953713)
(0.657024 1.46618 0.753584)
(0.941002 1.17534 0.90646)
(1.57147 1.01876 0.751103)
(1.14309 1.17565 0.627611)
(1.24191 1.55153 0.708289)
(0.79191 1.63476 0.860334)
(0.673903 1.50096 0.745944)
(0.772921 1.56118 1.00159)
(1.58064 1.07766 0.939699)
(1.65575 1.03913 0.84392)
(1.65065 1.06911 0.866845)
(1.65508 1.01938 0.743308)
(1.39583 1.3221 0.834764)
(0.865055 1.20079 0.879175)
(1.13577 1.17555 0.599829)
(0.593 1.51369 0.892297)
(1.12052 0.905021 0.687329)
(1.32353 1.45796 1.33262)
(1.44573 1.63776 1.19195)
(1.31061 1.6261 1.54865)
(1.44333 1.2425 1.51473)
(1.47849 1.50623 1.47985)
(1.53027 1.54477 1.4685)
(1.36947 1.65835 1.33634)
(1.25901 1.82883 1.17384)
(1.23357 0.939006 1.22429)
(1.42126 1.562 1.24294)
(1.51397 1.41308 1.63183)
(1.20142 0.937306 1.24417)
(0.608315 1.26574 1.0194)
(0.945706 0.936935 1.03712)
(0.664999 1.52762 0.861074)
(1.13725 1.50626 1.42252)
(1.71301 1.34149 1.44527)
(1.31253 1.14756 1.67451)
(0.684544 1.64189 1.18954)
(0.58628 1.47772 1.30106)
(0.787638 1.06544 1.61295)
(1.49569 1.46197 1.07148)
(0.50373 0.836692 1.20509)
(1.27904 1.10462 1.19202)
(1.38636 1.367 1.40168)
(1.38976 1.29988 1.58266)
(1.2732 0.955644 1.16447)
(0.669907 1.63319 1.27009)
(0.874771 1.38055 1.40999)
(1.30211 1.415 1.34691)
(1.03853 1.31961 1.22932)
(0.471784 1.49914 1.42362)
(1.60702 1.39188 1.38289)
(1.42778 1.5288 1.19436)
(1.47473 1.61239 1.09408)
(1.69761 1.45425 1.30878)
(1.0326 1.37998 1.25381)
(1.29822 1.42917 1.51081)
(1.39286 1.41134 1.38736)
(1.29869 1.23825 1.67826)
(0.732059 1.33757 1.22179)
(1.53066 1.56943 1.44372)
(1.55957 1.32627 1.04698)
(0.861214 1.26965 1.59033)
(1.58312 1.52767 1.29093)
(1.25612 1.35976 1.58388)
(1.28763 1.09617 1.14319)
(1.09286 1.23063 0.804313)
(1.58788 1.34286 1.38007)
(0.659955 1.37358 0.99938)
(1.00528 1.39261 1.46225)
(0.528416 1.4718 1.28481)
(1.41957 1.64347 1.33495)
(1.38155 1.61841 1.10135)
(1.33334 1.60181 1.03785)
(1.36292 1.46986 1.33922)
(1.50208 1.47353 1.54854)
(1.42535 1.32413 1.65083)
(1.54609 1.57584 1.30277)
(1.3957 1.26392 1.67192)
(0.980036 1.63151 1.54143)
(0.727835 1.35363 0.800345)
(1.4296 1.49173 1.06898)
(1.5324 1.63458 1.18259)
(1.39837 1.36201 1.63869)
(1.23764 1.38639 0.495178)
(1.08574 1.22996 1.11023)
(1.42664 1.35086 1.60187)
(1.39869 1.53557 1.10342)
(0.943337 1.49805 1.35412)
(1.31525 1.22021 0.722676)
(1.7731 1.53579 0.990845)
(1.81221 1.35884 1.30847)
(1.62139 1.12035 1.03959)
(1.6213 1.20367 1.15922)
(1.63016 1.31151 1.32715)
(1.59222 1.42125 0.98071)
(1.8333 1.16456 1.1165)
(1.59399 1.28004 1.37578)
(1.32308 1.05145 1.41241)
(1.72451 1.02296 1.05436)
(1.64875 1.3329 1.31426)
(1.48923 1.31546 1.01877)
(1.46859 1.19231 1.56066)
(1.51472 1.56362 1.54544)
(1.66784 1.21052 1.29658)
(1.73038 1.05248 1.1224)
(1.82421 1.2476 1.21427)
(1.79877 1.17121 1.05457)
(1.62999 1.14845 1.09247)
(1.30203 1.10343 0.810096)
(1.64027 1.07533 1.0811)
(1.41043 1.09432 0.786604)
(1.78272 1.27317 0.988657)
(1.45023 1.19685 0.592136)
(1.43742 1.27138 0.563091)
(1.62372 1.16664 1.10371)
(0.564587 1.27611 1.02197)
(1.07885 1.48976 1.45551)
(1.23366 1.38504 0.431188)
(1.41617 1.06897 0.644236)
(1.33868 1.51564 0.48143)
(1.74934 1.31708 1.00283)
(1.38018 1.05011 1.41854)
(1.66978 1.16802 1.22226)
(1.30515 1.03986 1.40466)
(1.31133 1.21393 1.53051)
(1.63782 1.31077 1.37891)
(1.47108 1.23822 1.36044)
(1.30076 1.84499 1.23623)
(1.18129 1.34045 0.6557)
(1.64977 1.0671 1.03096)
(1.60427 1.31793 1.41787)
(1.59564 1.59907 1.37894)
(1.65054 1.61665 1.08765)
(1.40949 1.41527 1.59361)
(1.69752 1.47274 1.37198)
(1.33568 1.74655 1.26811)
(1.61484 1.31995 1.43962)
(1.40436 1.23082 1.25491)
(1.34805 1.05737 1.36424)
(1.69177 1.45701 1.36964)
(0.970807 1.28929 0.795335)
(1.65432 1.0267 1.0569)
(1.60569 1.08928 1.0772)
(0.733331 1.54888 0.95376)
(1.74624 1.42923 1.40294)
(1.5199 1.3551 1.32548)
(1.34936 1.51922 1.53706)
(1.30672 1.25102 0.738764)
(1.47346 1.32594 1.01631)
(1.62964 1.29033 1.51292)
(1.52811 1.13519 1.3487)
(1.22971 1.10039 1.39182)
(1.75288 1.05148 1.13535)
(1.77316 1.06031 1.136)
(0.848549 1.47612 0.83098)
(1.58943 1.12092 1.10638)
(1.65253 1.11021 1.22897)
(1.76948 1.09023 1.0919)
(1.86376 1.17936 1.12996)
(1.80514 1.09345 1.13345)
(1.20413 1.1181 0.78427)
(1.69797 1.01304 1.14808)
(1.25777 1.15519 0.721213)
(1.47697 1.11924 0.79411)
(1.63195 1.04885 0.764237)
(1.65615 1.08932 1.18909)
(0.800119 0.841636 0.712618)
(1.15675 1.1583 0.66127)
(1.28689 1.55221 0.436964)
(1.44512 1.25775 1.36905)
(1.68895 1.20488 1.18917)
(1.47809 1.14213 0.769768)
(1.72783 1.32884 1.19257)
(1.25836 1.31863 0.426141)
(1.12858 1.19612 0.952847)
(0.572247 1.49631 0.849552)
(0.603775 1.42949 0.80202)
(0.56898 1.5248 0.856391)
(1.26288 1.11116 0.634552)
(1.00511 0.791074 1.13481)
(0.939888 1.73625 0.524991)
(1.0839 0.919019 1.25652)
(1.14406 1.393 0.261621)
(0.731782 1.03494 0.550127)
(1.68158 1.62408 0.768423)
(0.989605 1.31294 0.731236)
(1.39993 1.47164 0.624604)
(1.25777 1.11989 0.612764)
(1.59315 1.7119 0.801733)
(1.56498 1.74051 0.830365)
(0.892256 1.23661 0.836146)
(0.579531 1.4975 0.566912)
(1.70759 1.53355 0.923194)
(1.04583 1.76931 0.563612)
(0.694745 1.36389 0.885541)
(0.629555 1.62467 0.887754)
(1.40737 1.50413 0.648644)
(1.56453 1.13109 0.715041)
(0.830545 1.24131 0.818721)
(1.4355 1.15282 0.789346)
(1.67079 1.56858 0.880633)
(1.558 1.19383 0.550595)
(1.36986 1.19713 0.898789)
(1.17467 1.21992 0.877159)
(1.60818 1.31394 1.22844)
(1.47121 1.36981 0.841968)
(1.59899 1.22643 0.883339)
(1.27896 1.24163 0.813591)
(1.77632 1.19606 0.881129)
(1.13372 1.15599 0.723132)
(1.7231 1.18346 0.839681)
(1.45932 1.43546 0.695255)
(1.52459 1.45374 1.07423)
(1.8139 1.12018 1.09434)
(1.6801 1.04294 1.16418)
(1.15214 1.17686 0.750298)
(1.33063 1.48751 0.729297)
(0.836255 1.31671 0.745805)
(1.63944 1.19545 1.26666)
(1.63517 1.12108 1.19753)
(1.17229 1.35097 0.553102)
(1.55 1.11492 0.772131)
(1.29917 1.12673 1.40498)
(1.71588 1.07384 1.13832)
(1.74326 1.15585 1.17852)
(1.62078 1.31113 1.26398)
(1.13997 1.21867 0.75479)
(1.59381 1.2526 1.23296)
(0.760908 1.4407 0.432787)
(0.831339 1.27429 0.368658)
(1.42203 1.59693 0.788981)
(0.819095 1.40109 0.310945)
(1.66768 1.55599 0.876148)
(1.30349 1.30017 0.292173)
(1.15459 0.975532 0.813195)
(1.39591 1.75494 0.880579)
(0.561537 1.56579 0.544894)
(1.59832 1.53796 0.92712)
(1.34735 1.45703 0.440841)
(1.4793 1.57327 0.906347)
(1.44293 1.48481 0.786855)