/*--------------------------------*- C++ -*----------------------------------*\
| =========                 |                                                 |
| \\      /  F ield         | OpenFOAM: The Open Source CFD Toolbox           |
|  \\    /   O peration     | Version:  v1806                                 |
|   \\  /    A nd           | Web:      www.OpenFOAM.com                      |
|    \\/     M anipulation  |                                                 |
\*---------------------------------------------------------------------------*/
FoamFile
{
    version     2.0;
    format      ascii;
    class       volScalarField;
    location    "0.132";
    object      p;
}
// * * * * * * * * * * * * * * * * * * * * * * * * * * * * * * * * * * * * * //

dimensions      [0 2 -2 0 0 0 0];


internalField   nonuniform List<scalar> 
64000
(
0.000609028
0.02
0.0581612
0.212294
0.437198
0.692024
0.99625
1.31603
1.66999
2.05046
2.64666
3.34977
4.06553
4.76424
5.51479
6.23012
7.07215
7.77852
8.55459
9.16861
10.0295
10.2211
10.7968
11.05
11.5863
11.9126
12.3432
12.5952
12.8408
13.0452
13.1906
13.2692
13.2817
13.3068
13.2635
13.2887
13.2636
13.2724
13.2613
13.2659
-0.188697
-0.231531
-0.129189
0.0493402
0.288983
0.542523
0.852977
1.16409
1.53852
1.9421
2.64292
3.33624
4.03503
4.74821
5.49822
6.181
7.01651
7.83606
8.62241
9.3111
10.0368
10.2751
10.8483
11.1521
11.68
12.0046
12.4086
12.6478
12.9174
13.0392
13.24
13.2851
13.3096
13.3373
13.2857
13.3039
13.2685
13.2652
13.2423
13.2427
-0.563862
-0.543302
-0.40801
-0.216115
0.0443435
0.303367
0.586766
0.873019
1.29485
1.87654
2.41139
3.0996
3.7118
4.5774
5.38656
6.13775
7.01533
7.75501
8.55
9.19583
9.86496
10.0095
10.5691
10.8246
11.3258
11.6207
12.0012
12.2531
12.5224
12.73
12.8824
13.0547
13.1157
13.204
13.1851
13.2167
13.1821
13.1838
13.1622
13.1568
-1.0564
-0.999796
-0.833178
-0.648215
-0.45985
-0.213513
0.0629786
0.389218
0.919488
1.45181
1.98476
2.83593
3.58455
4.33488
5.17005
5.95761
6.80864
7.55718
8.35968
9.00439
9.6439
9.71181
10.2493
10.4891
10.9741
11.2722
11.6588
11.9263
12.2363
12.4626
12.6827
12.8528
12.9618
13.0856
13.0733
13.1528
13.1075
13.089
13.0419
13.0305
-1.80974
-1.6951
-1.50777
-1.34445
-1.09023
-0.849227
-0.53544
-0.202246
0.329999
0.929986
1.58326
2.29432
3.0455
3.86501
4.75363
5.57145
6.47974
7.25984
8.08416
8.76472
9.42596
9.45408
9.99031
10.2138
10.6938
10.9962
11.3828
11.6769
11.9852
12.2474
12.4834
12.686
12.7948
12.9282
12.9516
12.9722
12.9492
12.9082
12.8955
12.863
-2.81398
-2.65674
-2.4136
-2.12399
-1.92409
-1.58342
-1.23672
-0.839844
-0.286074
0.240207
0.858127
1.59091
2.43989
3.30812
4.24848
5.12415
6.08565
6.81136
7.84826
8.61769
9.28755
9.35022
9.90599
10.1488
10.62
10.9277
11.2947
11.5664
11.8608
12.1114
12.3656
12.6017
12.7548
12.8996
12.8329
12.8544
12.8373
12.7298
12.7045
12.6814
-3.73922
-3.66453
-3.51714
-3.2541
-2.91422
-2.68681
-2.20852
-2.00326
-1.47249
-0.888109
-0.109445
0.731563
1.66266
2.62649
3.6514
4.64853
5.67591
6.59641
7.39286
8.39745
9.23228
9.31755
9.92447
10.178
10.6316
10.9396
11.2565
11.5147
11.7721
12.0103
12.2306
12.4581
12.6104
12.7817
12.8006
12.7006
12.6913
12.5413
12.4942
12.457
-4.63408
-4.5688
-4.5036
-4.33674
-4.20937
-3.94886
-3.59369
-3.23291
-2.56677
-1.89299
-1.05474
-0.161859
0.831853
1.87415
2.98588
4.07603
5.19815
6.20091
7.18798
8.11207
9.28977
9.32944
9.98936
10.2782
10.7007
11.0143
11.2969
11.5209
11.7257
11.9489
12.1505
12.3229
12.4664
12.5956
12.6257
12.4948
12.4524
12.3178
12.2199
12.1985
-5.56991
-5.56082
-5.43115
-5.36556
-5.12347
-5.00043
-4.53524
-4.39028
-3.6609
-2.91751
-2.06786
-1.09933
-0.0371412
1.06733
2.25924
3.44987
4.67114
5.80173
7.00547
7.8344
9.24578
9.57738
10.0933
10.4787
10.8222
11.1496
11.3727
11.5675
11.7566
11.9318
12.0419
12.1951
12.2942
12.3835
12.4819
12.2805
12.2338
12.0655
11.9152
11.892
-6.55988
-6.51137
-6.44515
-6.38533
-6.21297
-6.11419
-5.67792
-5.31917
-4.85213
-3.98172
-3.0545
-2.0373
-0.903364
0.298855
1.57817
2.89136
4.23195
5.50634
6.81709
7.69324
9.2407
9.85828
10.2571
10.7203
10.9963
11.3131
11.4998
11.6521
11.8
11.8752
11.9647
12.0192
12.1119
12.1713
12.1865
12.0814
11.8744
11.7556
11.5904
11.5358
-7.63113
-7.54139
-7.5159
-7.47198
-7.36341
-7.23595
-6.81151
-6.38424
-5.83379
-5.19291
-4.10957
-2.99076
-1.76472
-0.446541
0.950054
2.40464
3.89092
5.32608
6.76891
7.79503
9.4336
10.1467
10.5216
11.0217
11.236
11.5761
11.6597
11.8214
11.8283
11.8871
11.9052
11.9279
11.9149
11.9237
11.9412
11.8161
11.568
11.3796
11.1806
11.1076
-8.72068
-8.64038
-8.63187
-8.60681
-8.5968
-8.39926
-7.9876
-7.49478
-6.92012
-6.20457
-5.3044
-4.01678
-2.64191
-1.19388
0.345241
1.95172
3.61185
5.21993
6.80185
8.06738
9.75152
10.4473
10.8698
11.3559
11.5524
11.7772
11.8683
11.9132
11.9574
11.9262
11.7728
11.7241
11.6715
11.5932
11.5775
11.5051
11.1829
10.9444
10.7558
10.6533
-9.884
-9.80495
-9.8003
-9.86416
-9.82099
-9.6353
-9.22395
-8.71633
-8.02559
-7.24818
-6.39554
-5.1421
-3.55986
-1.9542
-0.287099
1.52149
3.37663
5.14971
6.86648
8.56572
10.1837
10.7791
11.3256
11.7709
11.9704
12.2384
12.2132
12.1501
11.9534
11.8149
11.7474
11.5695
11.4097
11.25
11.1264
11.0042
10.7768
10.4322
10.1762
10.0603
-11.0677
-10.9826
-11.0176
-11.0933
-11.0562
-10.8354
-10.4363
-9.91484
-9.21427
-8.35548
-7.38384
-6.32695
-4.57374
-2.73514
-1.04159
1.01089
3.15797
5.24821
7.21244
9.03135
10.5807
10.9637
11.7777
12.1581
12.2295
12.376
12.3712
12.3524
12.2338
11.994
11.6786
11.3545
11.0338
10.7794
10.5584
10.3961
10.1636
9.83885
9.6119
9.47706
-12.3104
-12.2472
-12.2768
-12.358
-12.3289
-12.172
-11.72
-11.199
-10.4299
-9.55904
-8.39735
-7.42398
-5.66009
-3.45054
-1.31881
0.790103
3.00823
5.27509
7.43154
9.32148
11.0399
12.0219
12.5868
13.05
13.2798
13.1992
13.1809
12.9404
12.5784
12.134
11.6579
11.1634
10.6947
10.2667
9.9541
9.66133
9.42922
9.22522
8.81856
8.65494
-13.4647
-13.432
-13.4777
-13.554
-13.5422
-13.4102
-13.0388
-12.5293
-11.746
-10.7583
-9.51128
-8.31432
-6.11996
-3.92964
-1.78019
0.409487
2.71411
5.17446
7.71266
10.0072
11.809
12.8649
13.4834
14.0173
14.2386
14.2789
13.7458
13.33
12.8417
12.2378
11.5646
10.8944
10.2576
9.69352
9.2237
8.86946
8.57652
8.34873
8.27546
7.86669
-14.84
-14.8109
-14.8418
-14.9253
-14.9336
-14.872
-14.5447
-14.0469
-13.2027
-12.0135
-10.4496
-8.72101
-6.69538
-4.46539
-2.10065
0.265827
2.64318
5.5417
8.14832
10.6741
12.8638
13.7097
14.6475
15.1872
15.3154
15.1207
14.6127
14.0009
13.0179
12.2966
11.3806
10.4957
9.6737
8.9649
8.39683
7.95041
7.5736
7.25097
7.01048
6.9717
-15.5719
-15.6373
-15.7206
-15.8168
-15.9015
-15.9887
-15.7633
-15.3296
-14.4411
-13.1364
-11.2764
-9.4597
-7.46211
-5.06242
-2.45004
0.249737
2.94189
5.49274
8.61341
11.5796
13.6336
14.6914
15.7807
16.3995
16.5083
16.1941
15.5057
14.5022
13.4375
12.124
11.0533
10.1107
9.15442
8.23247
7.46471
6.90339
6.47322
6.22092
5.99004
6.00253
-17.2062
-17.2182
-17.2317
-17.3553
-17.3975
-17.5476
-17.4
-17.0562
-16.1349
-14.6443
-12.393
-10.5771
-8.23625
-5.68255
-2.91668
-0.123548
2.93327
5.85377
9.42637
12.4899
14.2481
15.492
16.7267
17.4862
17.5116
16.9614
16.2471
15.0793
13.6002
12.0876
10.903
9.5133
8.23433
7.2102
6.40431
5.74571
5.33988
4.85182
4.70336
4.59974
-17.1123
-17.3773
-17.4312
-17.6948
-17.9089
-18.3464
-18.6183
-18.5079
-17.581
-15.891
-13.7149
-11.8052
-9.18968
-6.40977
-3.1653
0.282968
3.65288
6.96759
10.3884
13.4311
15.0514
16.045
17.1218
17.8563
18.1319
17.7239
16.7176
15.1924
13.7088
12.0521
10.374
9.24306
7.78291
6.4998
5.44601
4.65485
4.08325
3.74836
3.35772
3.26417
-19.3646
-19.0771
-19.1137
-19.2813
-19.5459
-20.0288
-20.4194
-20.3059
-19.4303
-17.7751
-15.5847
-13.3566
-10.2151
-7.02587
-3.22208
0.645599
4.54377
8.1272
11.4084
14.4004
15.9875
16.8817
17.5705
17.9548
18.008
17.3693
15.9514
14.2533
12.4972
10.669
8.91714
7.99561
6.78516
5.42687
4.27149
3.45174
2.81217
2.50777
2.21022
2.03856
-19.6124
-19.6466
-19.8096
-20.067
-20.511
-21.1275
-21.4728
-21.3983
-20.5735
-19.1533
-16.9819
-14.5019
-11.0664
-7.4892
-3.42736
1.11522
5.3457
9.334
12.6451
15.5116
17.1972
18.1096
18.689
18.7226
18.3275
17.602
16.0557
13.9623
11.7028
9.45429
7.29351
5.81598
4.13677
3.28673
2.59528
1.98755
1.39984
1.02698
0.914165
0.615677
-20.2532
-20.242
-20.4561
-20.7808
-21.2589
-21.9646
-22.2254
-22.1281
-21.3732
-20.055
-18.2102
-15.4954
-11.865
-7.99292
-3.70367
1.37896
6.01506
10.5039
14.0271
16.7416
18.3792
19.4015
19.9264
19.883
19.2805
18.0883
16.4634
14.3053
11.8344
9.35802
6.96728
5.17003
3.56006
1.03122
0.265242
-0.105021
-0.518675
-0.745687
-0.764645
-0.897975
-20.1269
-20.4181
-20.5593
-20.9601
-21.472
-22.185
-22.4078
-22.209
-21.479
-20.2211
-18.9871
-16.0329
-12.3917
-8.40709
-3.97439
1.49592
6.89127
11.4675
15.4305
18.2094
19.7763
20.9293
21.3564
21.1936
20.5121
19.1521
17.0985
14.7761
12.111
9.36892
6.67109
4.53997
2.92147
0.557524
-0.334886
-1.02616
-1.64862
-2.04826
-2.1766
-2.29706
-19.7315
-19.8643
-20.2036
-20.672
-21.2056
-21.8636
-21.9718
-21.6486
-20.9507
-19.8781
-19.1265
-16.0152
-12.4947
-8.40395
-3.81249
1.80166
7.44778
12.5557
16.5606
19.7833
21.5302
22.8701
23.2208
22.8427
21.9491
20.4389
18.1905
15.5233
12.5772
9.69835
6.7655
4.28646
1.98248
0.596985
-0.59676
-1.42733
-2.12588
-2.51629
-2.7225
-2.76044
-18.8709
-18.9734
-19.3231
-19.8173
-20.34
-20.8246
-20.7797
-20.3386
-19.7457
-18.9664
-18.0913
-15.3103
-11.7782
-7.74124
-3.19045
2.35348
8.29202
13.7223
18.2902
21.8133
24.0525
25.4937
25.7415
25.1763
23.8915
21.9517
19.3474
16.3606
13.0882
9.95817
6.81063
3.95851
1.21443
0.221615
-1.13024
-2.03476
-2.8107
-3.23609
-3.58417
-3.75385
-17.6019
-17.7515
-17.9741
-18.5619
-18.9754
-19.16
-18.9344
-18.3945
-17.8188
-17.09
-15.9421
-14.0403
-10.2481
-6.43566
-2.02821
3.21733
9.28991
15.0819
20.2608
24.085
26.8128
28.5859
28.9225
27.9429
26.1006
23.6027
20.5816
17.293
13.7551
10.4647
7.13249
3.93245
1.67623
0.418951
-0.90055
-1.79873
-2.66237
-3.185
-3.64384
-3.7872
-15.7947
-16.083
-16.1007
-16.661
-16.9677
-16.8105
-16.3836
-15.6793
-14.9758
-14.1509
-12.8941
-11.4905
-8.12766
-4.03462
0.828039
6.34826
12.5482
18.4657
23.4669
26.8907
28.3285
29.7592
30.408
29.7883
27.9621
24.9936
21.4542
17.782
13.9538
10.4005
6.81282
3.29685
0.85471
-0.44887
-1.88426
-2.82473
-3.73706
-4.24417
-4.75167
-4.92772
-13.5518
-14.0868
-14.1159
-14.3686
-14.5108
-14.0251
-13.2354
-12.4243
-11.4349
-10.2393
-9.01498
-7.28523
-5.16103
-0.275309
5.15653
10.511
15.8899
21.0739
25.3793
28.4602
29.2507
30.6524
31.0536
29.9881
28.0331
25.3204
21.7322
18.0282
14.0631
10.478
7.12315
3.87718
1.25993
-0.0360828
-1.69238
-2.83059
-3.90132
-4.49501
-5.06742
-5.25588
-11.5167
-11.7242
-11.7132
-11.4611
-11.4783
-10.531
-9.69725
-8.68873
-7.4912
-6.01308
-4.18471
-2.1416
-0.038932
3.63633
8.05171
12.8474
17.7602
22.233
26.3661
29.256
29.6516
31.1141
31.2203
30.0753
27.7195
24.6667
21.206
17.5692
13.5239
9.93001
6.50545
3.84521
1.3626
-0.338812
-2.04708
-3.15695
-4.20984
-4.62422
-4.97902
-4.98217
-9.36381
-9.32296
-9.22509
-8.79617
-8.24689
-7.02969
-5.87795
-4.56781
-3.14816
-1.42056
0.591557
2.70175
4.61278
6.86734
10.6011
14.3758
19.1878
23.595
27.4137
29.8581
29.9396
31.1679
30.8754
29.8845
27.387
24.2226
20.5873
17.0401
12.988
9.37048
5.83074
3.57183
1.49186
-0.511001
-2.47413
-3.559
-4.60883
-4.83466
-5.07783
-4.95643
-6.74744
-6.53886
-6.36335
-5.85349
-4.99952
-3.31417
-1.8349
-0.341033
1.33205
3.31212
5.00762
6.76697
8.83032
10.4259
13.1074
16.6431
20.9148
24.6069
28.3363
30.5633
30.528
31.1534
30.5612
29.2839
27.1092
23.7579
19.6813
16.1245
11.5818
8.23715
5.18447
3.04053
1.37596
-1.03322
-3.16979
-4.20169
-5.19549
-5.1614
-5.31782
-4.93852
-4.39048
-4.0784
-3.77055
-2.96546
-2.03057
0.121658
1.90363
3.58453
5.37087
6.7663
8.35774
10.3357
12.5176
14.6644
16.3882
19.3971
22.6621
25.9451
29.1033
30.8015
30.8175
31.0855
30.1963
28.8202
26.4205
23.4443
18.7837
15.5809
10.5182
6.97383
4.29948
2.47999
0.577687
-1.13597
-3.94067
-4.98644
-5.93879
-5.66289
-5.74944
-5.07569
-2.01782
-1.68111
-1.01908
-0.0297108
0.963216
3.4225
5.43008
6.89966
8.24276
9.77389
11.6193
13.7155
15.966
18.2075
20.3817
22.6769
25.1393
27.8587
30.0471
31.1232
31.1255
31.2321
29.9315
28.3734
25.8005
22.7786
18.0777
15.0494
9.87549
6.00926
3.37527
1.84635
-0.210892
-2.01105
-4.23397
-5.36134
-6.75952
-6.12745
-6.23834
-5.06606
0.149398
0.485514
1.27801
2.25702
3.71053
6.14964
8.03812
9.14875
10.7553
12.5914
14.6155
16.8386
19.0387
21.2591
23.4941
25.4801
27.5813
29.6563
31.0644
31.8561
30.6869
30.8134
29.1001
27.4215
24.9421
22.0246
17.3294
14.4469
9.10547
5.22478
2.27759
0.934252
-0.934945
-2.94059
-4.70057
-6.05449
-7.37962
-6.93532
-6.8393
-5.0583
1.88459
2.67479
3.47543
4.67714
6.03327
8.22119
10.2229
11.4784
13.3316
15.3812
17.5029
19.627
21.7816
23.9396
26.1129
27.8862
29.488
31.1355
31.9947
32.4217
30.0151
30.7004
28.501
26.6973
24.3428
21.1995
16.541
13.9147
8.41219
4.74832
1.91743
-0.150544
-2.01358
-2.98441
-5.6011
-5.7028
-8.14833
-6.98777
-7.40432
-4.43514
4.46903
4.43758
5.30364
6.25663
7.75825
9.3448
11.895
13.6069
15.3908
17.4638
19.5301
21.6463
23.7099
25.7667
27.7273
29.4762
30.806
32.0962
32.5536
32.6626
29.7449
29.8535
28.2097
26.0051
23.1127
20.0977
16.1615
13.5175
7.71418
3.99604
1.08472
-0.86514
-3.0623
-4.1268
-5.76811
-6.54861
-7.84248
-7.78238
-7.45897
-3.39872
5.98864
6.9249
7.14155
8.37557
9.42593
10.9371
13.2908
15.2863
17.2253
19.2696
21.2597
23.3244
25.2602
27.1444
28.8057
30.3577
31.5525
32.5119
32.8585
32.7012
29.6693
29.1724
27.4537
24.9984
22.5692
19.7238
16.0871
13.122
7.12525
3.29853
0.189316
-1.43564
-3.71505
-4.49442
-6.46408
-6.36315
-7.79244
-5.87404
-6.54625
0.935704
7.19723
7.41561
8.29924
9.05265
10.1891
11.8452
14.1072
16.0257
18.3016
20.5135
22.5207
24.524
26.3496
28.0801
29.554
30.9285
31.987
32.8288
33.1332
32.6417
29.6862
28.4735
26.819
24.6184
22.221
19.6153
16.0955
12.9099
6.74949
2.76863
-0.476479
-1.80362
-4.02751
-4.89318
-6.92995
-6.60499
-8.28876
-5.28399
-3.95468
5.80872
5.41049
8.59665
9.03967
10.1059
11.0885
12.7331
14.8049
16.9681
18.9163
21.0812
23.1302
25.1549
26.9351
28.5706
29.904
31.15
32.1648
32.9089
33.2018
32.6158
29.9557
28.3733
26.6847
24.585
22.2255
19.7237
16.1009
12.4763
6.42791
2.34489
-0.922676
-2.2413
-4.12213
-4.81985
-6.72933
-5.91837
-6.56093
-1.21925
3.67871
18.7365
-0.0789267
-0.0216489
0.0366989
0.196308
0.446868
0.71599
1.02819
1.35487
1.7171
2.12517
2.69851
3.45547
4.12702
4.83884
5.58094
6.27412
7.09475
7.82091
8.45271
9.2671
9.93028
10.1952
10.6969
11.0183
11.5338
11.8596
12.258
12.5062
12.7807
12.9289
13.1361
13.2206
13.2566
13.3159
13.2226
13.2977
13.2658
13.2934
13.2768
13.2866
-0.310083
-0.27025
-0.155281
0.0334296
0.293721
0.561553
0.878142
1.25176
1.50251
2.0817
2.60154
3.37532
4.07142
4.76669
5.54359
6.26937
7.11843
7.87318
8.64626
9.29744
9.9264
10.1902
10.712
11.0334
11.5289
11.8422
12.225
12.4686
12.733
12.9091
13.0558
13.2176
13.2762
13.3291
13.2609
13.2923
13.2735
13.2743
13.2554
13.262
-0.633017
-0.605935
-0.491493
-0.216743
0.00533038
0.256136
0.598918
0.849494
1.25778
1.88429
2.44133
3.15071
3.85993
4.62272
5.42319
6.17544
7.04087
7.78192
8.56745
9.15476
9.71739
9.88197
10.3684
10.6387
11.1306
11.4248
11.7967
12.0526
12.3365
12.5559
12.7697
12.9592
13.0359
13.191
13.1787
13.2267
13.1777
13.1779
13.1658
13.1578
-1.0746
-1.09661
-0.839062
-0.679823
-0.474403
-0.231828
0.061965
0.459346
0.937658
1.49921
2.11822
2.84945
3.61327
4.3575
5.18334
5.96799
6.83426
7.57753
8.37958
8.94062
9.45265
9.55846
10.0192
10.3005
10.7789
11.09
11.4791
11.771
12.1111
12.3701
12.6072
12.8077
12.9472
13.0877
13.1039
13.0985
13.1532
13.0669
13.0497
13.0394
-1.69633
-1.57805
-1.47418
-1.30371
-1.03362
-0.890996
-0.510878
-0.141993
0.392264
0.981712
1.62752
2.31289
3.0651
3.88375
4.75611
5.57915
6.47305
7.2469
8.07036
8.69603
9.24204
9.30878
9.80727
10.0666
10.557
10.8789
11.2716
11.571
11.9262
12.2223
12.4884
12.6992
12.7942
12.9515
12.9547
12.9773
12.9572
12.9187
12.8874
12.868
-2.66723
-2.50635
-2.29525
-2.05399
-1.88172
-1.65905
-1.25705
-0.833681
-0.29044
0.238672
0.850466
1.58411
2.4338
3.31585
4.24634
5.14165
6.10437
6.94662
7.8767
8.57923
9.12757
9.23708
9.72037
10.0139
10.4943
10.8323
11.2196
11.5437
11.8884
12.1481
12.4192
12.6468
12.8106
12.9197
12.8454
12.8634
12.8219
12.7515
12.7056
12.6821
-3.66207
-3.57938
-3.38607
-3.13228
-2.84628
-2.68978
-2.24564
-1.99265
-1.48682
-0.872356
-0.099632
0.741062
1.6719
2.62814
3.67051
4.70135
5.71851
6.64958
7.57554
8.38512
9.10981
9.25498
9.79363
10.1039
10.5605
10.8772
11.2233
11.5073
11.8128
12.0558
12.3216
12.5306
12.6905
12.8438
12.8206
12.7221
12.6775
12.5636
12.5112
12.4548
-4.58833
-4.5387
-4.43931
-4.32518
-4.06806
-3.97311
-3.64611
-3.22308
-2.57205
-1.87852
-1.04582
-0.116274
0.864415
1.93426
3.04838
4.13967
5.2707
6.29826
7.34668
8.23397
9.18591
9.3501
9.9178
10.2488
10.6706
10.9671
11.2916
11.561
11.8141
12.0325
12.2152
12.4266
12.5378
12.7038
12.6719
12.5322
12.4594
12.3272
12.2477
12.196
-5.54512
-5.51529
-5.43516
-5.37285
-5.11294
-5.06806
-4.71067
-4.31947
-3.66719
-2.90917
-2.03972
-1.05597
0.00625108
1.15453
2.35796
3.55586
4.77865
5.93133
7.12319
8.09879
9.22141
9.58516
10.0853
10.4641
10.8167
11.0841
11.3744
11.6268
11.8096
11.9756
12.0875
12.1541
12.3054
12.4052
12.5692
12.3134
12.2388
12.0705
11.9492
11.8888
-6.555
-6.53378
-6.46828
-6.43445
-6.21774
-6.22256
-5.83255
-5.36431
-4.74907
-3.99031
-3.04565
-2.00115
-0.859039
0.377187
1.6956
3.01793
4.3608
5.6467
6.92854
8.01482
9.25294
9.88231
10.2942
10.7277
11.0097
11.2646
11.5182
11.6839
11.8901
11.838
11.9654
12.0892
12.138
12.2456
12.2232
12.1763
11.9166
11.7616
11.6221
11.5436
-7.66349
-7.60223
-7.59579
-7.54016
-7.33032
-7.31938
-7.0465
-6.59423
-5.87367
-5.04019
-4.10471
-2.96844
-1.71614
-0.368057
1.06772
2.55494
4.03867
5.47431
6.8719
8.08679
9.41453
10.1886
10.5731
11.0473
11.248
11.5507
11.7009
11.8803
11.7181
11.861
11.8799
11.7251
11.8187
11.7842
11.934
11.826
11.6181
11.3872
11.2037
11.1092
-8.74857
-8.71036
-8.70442
-8.65109
-8.64111
-8.49493
-8.17502
-7.6928
-7.25439
-6.31527
-5.16248
-3.93925
-2.58208
-1.09349
0.480695
2.13465
3.79249
5.39495
6.93347
8.31002
9.71036
10.5144
10.95
11.4208
11.6438
11.8725
11.9588
11.8142
11.9306
11.7145
11.6745
11.8137
11.6988
11.7169
11.5751
11.4576
11.264
10.9772
10.7781
10.6639
-9.92078
-9.88908
-9.89638
-9.95048
-9.87417
-9.66488
-9.4473
-8.94948
-8.28325
-7.62804
-6.42609
-4.96203
-3.432
-1.80635
-0.0874311
1.74473
3.59146
5.37733
7.0815
8.66481
10.1079
10.8387
11.3821
11.8728
12.115
12.3223
12.2009
12.3315
11.9683
12.09
11.9594
11.6781
11.4695
11.2611
11.2199
11.0367
10.725
10.5452
10.1949
10.0513
-11.1171
-11.0875
-11.1428
-11.2263
-11.1518
-10.9119
-10.5427
-10.1666
-9.56302
-8.7128
-7.82865
-6.05736
-4.30776
-2.52282
-0.665852
1.33549
3.39407
5.41265
7.31537
9.05281
10.4933
11.1668
11.8816
12.4192
12.6626
12.5742
12.5745
12.458
12.548
12.2815
11.867
11.5439
11.2061
10.8975
10.6211
10.4925
10.1837
9.88672
9.70423
9.48242
-12.3835
-12.3837
-12.4471
-12.5431
-12.4782
-12.2863
-11.8239
-11.3364
-10.5637
-10.1111
-9.05619
-7.11747
-5.11452
-3.14111
-1.11071
1.0111
3.22882
5.45309
7.54363
9.4121
10.9675
11.9619
12.6618
13.1763
13.3485
13.6255
13.5904
13.3143
12.9009
12.3738
11.8691
11.3186
10.8259
10.4034
10.03
9.71528
9.46146
9.08781
8.84152
8.63016
-13.5841
-13.5853
-13.6439
-13.7275
-13.7014
-13.5848
-13.2389
-12.7099
-11.9127
-10.9537
-10.1128
-8.10796
-5.92269
-3.81251
-1.63002
0.603774
2.95121
5.38457
7.64372
9.79935
11.6368
13.0783
13.7242
14.2603
14.5811
14.6286
14.2934
13.807
13.1733
12.4947
11.7399
11.0231
10.3618
9.78923
9.32769
8.92487
8.69504
8.35259
8.19559
8.03231
-14.9622
-14.9475
-15.0084
-15.1089
-15.0766
-15.061
-14.7656
-14.2614
-13.4353
-12.2551
-10.81
-8.81866
-6.7546
-4.50141
-2.05182
0.41206
2.8239
5.25535
7.77105
10.5233
12.9658
13.9875
14.8382
15.4219
15.607
15.4784
15.025
14.3321
13.4553
12.5234
11.5581
10.6293
9.77008
9.03781
8.43598
7.98441
7.60942
7.37269
6.95989
6.84795
-15.8068
-15.8951
-16.0031
-16.1738
-16.171
-16.2988
-16.0526
-15.6266
-14.7918
-13.5035
-11.9841
-9.40402
-7.48193
-5.22551
-2.54925
0.170659
2.72389
5.15656
8.52597
11.9213
13.6553
14.9834
16.0284
16.6484
16.7646
16.4796
15.8027
14.8625
13.7301
12.5057
11.3328
10.2289
9.18891
8.27357
7.52715
6.96587
6.54602
6.23968
6.05386
5.75633
-17.36
-17.3354
-17.4366
-17.498
-17.6531
-17.8398
-17.7038
-17.3653
-16.4767
-15.0925
-13.4779
-10.6266
-8.12799
-5.85954
-3.01374
-0.0861845
2.85147
5.65146
9.83296
12.7565
14.393
15.8483
16.993
17.6936
17.7599
17.3132
16.4523
15.2673
13.8598
12.3955
10.9873
9.64805
8.38732
7.31298
6.43624
5.78909
5.26267
4.86349
4.64868
4.36491
-17.5469
-17.6264
-17.8368
-17.9386
-18.3145
-18.7486
-18.9372
-18.8669
-18.0036
-16.6313
-14.9633
-12.0602
-8.97909
-6.55252
-3.33444
0.209956
3.62401
7.19882
10.9725
13.6445
15.3228
16.6882
17.6108
18.1214
18.2922
17.7999
16.7072
15.3013
13.7751
12.0853
10.457
9.04897
7.66796
6.441
5.41466
4.64594
4.07814
3.5929
3.36067
3.11549
-19.2495
-19.1749
-19.3342
-19.4287
-19.8462
-20.389
-20.7145
-20.7372
-19.9611
-18.6162
-16.7291
-13.9384
-10.2291
-7.27378
-3.43796
0.776336
4.76182
8.55581
11.9779
14.8082
16.4155
17.4899
18.1739
18.4146
18.403
17.6966
15.8974
14.1805
12.5112
10.6053
8.91554
7.65302
6.34567
5.056
3.9806
3.23017
2.66336
2.19503
1.95748
1.71412
-19.8262
-19.9085
-20.1271
-20.4614
-20.8739
-21.5851
-21.927
-22.0309
-21.4211
-20.1516
-18.2069
-15.5215
-11.4718
-7.94502
-3.54301
1.35025
5.98186
9.95877
13.1902
16.1566
17.6044
18.4932
19.061
18.8755
18.613
17.9958
16.2457
13.9429
11.4384
9.52186
7.37711
5.57066
3.94358
2.8224
2.0664
1.49969
1.01038
0.629534
0.498397
0.494725
-20.7544
-20.6086
-20.8258
-21.2348
-21.6941
-22.5243
-22.8854
-23.0016
-22.5109
-21.391
-19.5538
-16.9342
-12.7122
-8.78185
-3.99504
1.67886
6.97976
11.4517
14.6482
17.4152
18.7846
19.7872
20.2004
19.8428
19.1431
18.2172
16.6044
14.3184
11.668
9.07836
6.8532
4.80932
2.7986
1.01673
0.00711155
-0.379629
-0.806289
-0.998619
-1.17563
-1.13545
-20.5264
-20.6163
-20.9362
-21.4152
-21.9306
-22.872
-23.2724
-23.3277
-22.9208
-21.9553
-20.4039
-17.8827
-13.8899
-9.63366
-4.41517
1.75268
7.64926
12.8483
16.1658
18.7
20.232
21.2796
21.4872
21.0122
20.2754
19.0218
17.0772
14.7648
12.0482
9.13421
6.34409
4.22181
2.23031
0.391927
-0.75818
-1.41516
-2.01378
-2.36725
-2.56887
-2.63283
-20.0125
-20.1142
-20.6027
-21.1662
-21.7713
-22.7166
-23.0886
-23.0564
-22.6687
-21.8845
-20.6491
-18.229
-14.7634
-10.1043
-4.711
1.6643
7.85232
13.2724
17.4353
19.9198
21.8714
23.229
23.3992
22.728
21.8444
20.4522
18.2368
15.5481
12.6184
9.51927
6.19917
3.89401
1.84366
0.262055
-1.00731
-1.84508
-2.55428
-2.90408
-3.04571
-3.03159
-19.177
-19.3183
-19.672
-20.2892
-20.9877
-21.8234
-22.108
-21.9621
-21.5694
-20.9238
-19.8783
-17.749
-14.6254
-9.59269
-4.36393
1.84954
8.22351
14.0057
18.9606
22.179
24.1005
25.8752
26.1797
25.4544
24.1587
22.2571
19.6367
16.5411
13.1784
9.90933
6.21493
3.56479
1.53642
-0.121401
-1.46594
-2.39809
-3.14821
-3.52298
-3.83663
-3.81853
-17.9658
-18.153
-18.326
-18.9065
-19.5402
-20.2234
-20.3654
-20.0612
-19.6005
-18.976
-17.9946
-16.1789
-13.0648
-8.60492
-3.01345
2.79491
9.3615
15.6688
21.3754
24.4988
26.8743
29.0939
29.5713
28.6345
26.8131
24.2119
21.0489
17.5984
13.9539
10.4814
6.67696
3.87173
1.76553
0.11177
-1.2529
-2.18639
-3.02373
-3.61465
-3.99639
-3.98554
-16.2068
-16.4007
-16.4901
-16.9665
-17.399
-17.7022
-17.6522
-17.1761
-16.586
-15.8637
-14.853
-13.2472
-10.3851
-6.1802
-0.445222
5.7149
12.4001
19.0789
24.4001
27.5251
29.0873
30.1203
30.8383
30.5374
28.8014
25.7552
22.0291
18.1506
14.1854
10.5414
6.65176
3.33768
0.930287
-0.703326
-2.20879
-3.21327
-4.07268
-4.6426
-5.10588
-5.15414
-14.2078
-14.3947
-14.4985
-14.6761
-14.881
-14.7641
-14.2815
-13.6003
-12.7932
-11.8259
-10.6366
-8.9613
-6.34409
-1.97749
3.71819
9.49994
15.5969
21.5572
25.8894
29.1139
30.257
31.0381
31.4654
30.6792
28.9376
25.9517
22.2618
18.3959
14.3517
10.6993
7.03019
3.57042
1.20239
-0.431325
-2.16459
-3.25971
-4.29847
-4.92449
-5.22559
-5.4539
-11.9249
-12.0519
-12.0513
-11.9021
-11.7881
-11.2536
-10.3902
-9.44089
-8.35472
-7.04421
-5.47254
-3.53935
-0.946337
2.83057
7.54915
12.4507
17.5641
22.5067
26.7964
29.9494
30.8328
31.6562
31.7502
30.6056
28.2365
25.2473
21.6229
17.8774
13.8354
10.1646
6.51378
3.66109
1.04462
-0.67965
-2.53538
-3.59802
-4.648
-5.08995
-5.26487
-5.28458
-9.56909
-9.61002
-9.45941
-9.08915
-8.53974
-7.54811
-6.31251
-5.02039
-3.66009
-2.02192
-0.147432
1.95658
4.31806
7.19061
10.8928
14.9381
19.4254
23.8659
27.7625
30.6448
31.1708
31.8825
31.6528
30.2389
27.8163
24.6238
20.9067
17.2098
13.1937
9.5342
5.83432
3.39133
1.25701
-0.874794
-2.91807
-3.97129
-5.05794
-5.27247
-5.38395
-5.22603
-6.79629
-6.84834
-6.5303
-5.99648
-5.13444
-3.57147
-2.00871
-0.409905
1.07956
2.83965
4.73719
6.8074
9.04018
11.3067
14.2831
17.8319
21.8156
25.5989
28.9213
31.3501
31.4944
32.0239
31.6118
29.8805
27.3466
24.0122
20.0962
16.4116
11.8512
8.34528
5.14495
2.73174
0.644425
-0.672492
-3.69317
-4.56728
-5.69961
-5.6696
-5.83951
-5.41275
-4.49243
-4.26094
-3.83734
-3.12951
-1.99131
0.0158243
1.87421
3.5491
5.20579
6.74418
8.52897
10.6265
12.9242
15.2585
17.7578
20.9004
24.154
27.2115
29.9124
32.0124
31.8951
32.1459
31.2739
29.4257
26.7465
23.4063
19.2607
15.8106
10.6997
7.04216
4.25111
2.08119
-0.182213
-1.40527
-3.79022
-5.48277
-6.47138
-6.28693
-6.60118
-5.84749
-2.14411
-1.58444
-1.11954
-0.158137
1.05709
3.28572
5.39149
7.00479
8.48565
10.1392
11.8368
13.9902
16.3913
18.9283
21.3313
23.9467
26.4024
28.7231
30.8045
32.4306
31.7334
31.7026
30.7161
28.8423
26.0895
22.799
18.5151
15.2198
9.82889
6.05607
3.23565
1.35626
-1.0007
-2.51796
-4.34051
-5.49224
-7.55219
-6.82948
-7.59438
-6.27187
0.266661
0.598218
1.36817
2.19241
3.64871
5.72694
8.00741
9.46804
11.1525
13.0348
15.0054
17.4469
19.9393
22.2819
24.4666
26.2625
28.2732
30.3392
32.0232
32.8325
31.3487
31.2049
29.7785
27.9292
25.2246
22.0125
17.6812
14.5557
9.00061
5.19923
2.12414
0.47176
-1.88403
-3.37897
-5.49687
-6.3584
-7.8071
-7.95164
-8.59196
-6.73983
2.19511
2.89422
3.60263
4.84468
6.16025
7.90415
10.2048
11.8518
13.6566
15.7783
18.2037
20.387
22.6247
25.0074
27.1948
28.7452
30.4319
32.0579
32.8585
32.9942
30.8908
30.6553
29.0094
27.0381
24.2387
21.2128
16.9656
13.9124
8.37598
4.47597
1.36856
-0.507199
-2.6565
-3.88711
-6.15644
-6.58944
-8.64998
-7.83849
-9.46245
-6.38227
4.56792
4.59916
5.42666
6.44622
8.00146
9.60686
11.905
13.7995
15.8292
18.1466
20.1294
22.1482
24.1769
26.2124
28.0981
29.8503
31.3539
32.5655
33.1145
33.0285
30.4654
29.9478
28.277
26.1182
23.1339
20.277
16.4976
13.3625
7.67264
3.76924
0.770133
-1.27856
-3.62642
-4.5776
-6.80672
-7.15454
-9.09031
-8.30574
-9.65687
-4.87113
6.27634
7.06543
7.34721
8.52189
9.72939
11.2786
13.7143
15.7028
17.7147
19.7091
21.6875
23.7738
25.7214
27.5973
29.174
30.8157
32.0389
33.0598
33.5159
33.1635
30.307
29.3134
27.4947
25.3145
22.7228
19.8907
16.2675
12.9378
7.03099
3.04969
-0.258066
-2.06946
-4.4207
-5.11484
-7.17885
-6.99378
-8.6502
-6.86836
-7.23142
0.476689
7.59619
7.63136
8.41546
9.15477
10.6838
11.8744
14.5032
16.6975
18.8757
21.0653
22.9567
24.8767
26.6953
28.4624
29.9636
31.4049
32.4114
33.4389
33.5694
32.9478
30.1042
28.6373
26.8898
24.7056
22.3508
19.7621
16.1923
12.6848
6.61855
2.56822
-0.851912
-2.2882
-4.58505
-5.4969
-7.53138
-7.31598
-8.55159
-5.5021
-3.35377
7.85328
5.71235
8.88419
9.32413
10.3675
11.4097
12.9701
15.1686
17.4709
19.5828
21.7756
23.7545
25.7209
27.4359
29.0408
30.4018
31.638
32.5508
33.46
33.5882
32.9067
30.4185
28.6989
26.9022
24.6985
22.3279
19.888
16.2029
12.3723
6.2968
2.09667
-1.30269
-2.66925
-4.72561
-5.43623
-7.16492
-6.48796
-6.61163
-0.988779
6.37067
24.2285
-0.126097
-0.0502793
0.0697029
0.256021
0.500456
0.781499
1.09035
1.40845
1.71143
2.27337
2.89608
3.51803
4.22844
4.87658
5.62785
6.30205
7.17486
7.90247
8.68109
9.34936
10.029
10.1587
10.7518
11.0489
11.5657
11.9039
12.3304
12.6165
12.8971
13.0579
13.2004
13.3417
13.29
13.337
13.2964
13.331
13.2774
13.3257
13.3158
13.3218
-0.309494
-0.238951
-0.115179
0.0813691
0.353013
0.619567
0.984105
1.19469
1.58076
2.24089
2.79856
3.46457
4.14999
4.84986
5.63342
6.38873
7.24464
7.98031
8.7855
9.37718
9.97401
10.1473
10.6271
10.9367
11.4403
11.7818
12.1939
12.4588
12.74
12.8884
13.061
13.1634
13.2349
13.3361
13.2819
13.3296
13.2976
13.3094
13.2901
13.284
-0.60321
-0.575503
-0.479052
-0.211071
0.0079225
0.282751
0.590346
0.974179
1.40088
1.97184
2.57724
3.24706
3.96142
4.69416
5.47936
6.25629
7.12159
7.85649
8.66176
9.17429
9.69543
9.77183
10.2125
10.4822
10.9634
11.2868
11.6897
11.9997
12.2664
12.548
12.7196
12.9247
13.0322
13.1455
13.1868
13.2505
13.2027
13.2142
13.1932
13.2011
-1.06756
-1.06092
-0.825231
-0.645588
-0.506623
-0.181683
0.170937
0.545312
1.03636
1.60482
2.23367
2.9285
3.67288
4.39424
5.19996
6.00924
6.87209
7.61681
8.41233
8.89965
9.3514
9.40115
9.81041
10.0929
10.5818
10.9216
11.3449
11.5869
11.9824
12.2675
12.585
12.7949
12.9312
13.0778
13.0886
13.1364
13.0991
13.1191
13.0677
13.068
-1.50669
-1.42541
-1.41988
-1.26236
-1.03977
-0.786305
-0.425557
-0.0379882
0.498474
1.07877
1.71096
2.35224
3.08256
3.87635
4.74292
5.57647
6.48536
7.2542
8.08383
8.55974
9.05909
9.08866
9.56796
9.84303
10.3456
10.7052
11.1051
11.4609
11.8394
12.1644
12.4454
12.6771
12.8338
12.9909
12.9636
13.0151
12.9697
12.9417
12.9133
12.897
-2.38271
-2.27936
-2.21494
-2.01677
-1.81717
-1.54903
-1.16878
-0.754048
-0.230457
0.271063
0.858338
1.58291
2.43389
3.30034
4.23194
5.14624
6.07201
6.94401
7.84372
8.44623
8.99166
9.06805
9.53247
9.83658
10.3238
10.6707
11.053
11.3995
11.7002
12.0544
12.2934
12.6219
12.8081
12.9283
12.8346
12.8788
12.8347
12.7834
12.734
12.7066
-3.39432
-3.36051
-3.21131
-3.01572
-2.78173
-2.54141
-2.16691
-1.94168
-1.4756
-0.857342
-0.092599
0.744918
1.68143
2.63258
3.64535
4.62237
5.71846
6.66596
7.59819
8.34311
8.99497
9.12339
9.62685
9.94442
10.3887
10.7226
10.9671
11.3648
11.7029
11.9382
12.2579
12.4884
12.6409
12.8332
12.8538
12.768
12.7156
12.5982
12.5354
12.4826
-4.37965
-4.35947
-4.30466
-4.19975
-4.02322
-3.84069
-3.61313
-3.20014
-2.568
-1.87295
-1.05018
-0.12919
0.900038
2.01407
3.1073
4.18675
5.30038
6.35258
7.40861
8.25257
9.10758
9.25654
9.78954
10.1346
10.5498
10.8627
11.1096
11.426
11.5538
12.0306
12.2587
12.3779
12.5164
12.6622
12.5874
12.6177
12.4975
12.3829
12.2767