/*--------------------------------*- C++ -*----------------------------------*\
| =========                 |                                                 |
| \\      /  F ield         | OpenFOAM: The Open Source CFD Toolbox           |
|  \\    /   O peration     | Version:  v1806                                 |
|   \\  /    A nd           | Web:      www.OpenFOAM.com                      |
|    \\/     M anipulation  |                                                 |
\*---------------------------------------------------------------------------*/
FoamFile
{
    version     2.0;
    format      ascii;
    class       volVectorField;
    location    "0.132";
    object      U_0;
}
// * * * * * * * * * * * * * * * * * * * * * * * * * * * * * * * * * * * * * //

dimensions      [0 1 -1 0 0 0 0];


internalField   nonuniform List<vector> 
64000
(
(-0.014303 -0.00858321 -0.0121088)
(0.00932161 -0.00752869 -0.0106456)
(0.0102207 0.00137818 -0.00157185)
(0.0114942 0.00192125 0.000129076)
(0.00960043 0.0014377 0.000512418)
(0.00872995 0.000165044 0.000834447)
(0.00810545 -0.00135238 0.000549583)
(0.00540732 -0.00233801 0.00148163)
(0.0041489 -0.00371283 0.00204192)
(-0.00182884 -0.00323926 0.00266368)
(-0.00756734 -0.00594383 0.00309199)
(-0.019152 -0.00888067 0.00525776)
(-0.0301732 -0.013354 0.00424668)
(-0.0481631 -0.0185698 0.00334956)
(-0.0648629 -0.0203344 0.00301128)
(-0.0934469 -0.0210569 0.0018363)
(-0.10523 -0.00668007 -0.000511454)
(-0.139544 -0.0108298 -0.00439547)
(-0.124481 -0.0161002 0.00307205)
(-0.170406 -0.0339784 -0.0166085)
(-0.115113 -0.0209493 -0.0134407)
(-0.0453212 -0.0226487 -0.0320342)
(-0.0818681 -0.00351812 -0.0158619)
(-0.0777289 -0.00330079 -0.0329357)
(-0.103541 0.00356274 -0.0430782)
(-0.0933794 0.0115098 -0.0539449)
(-0.0834035 0.0227966 -0.0583754)
(-0.046878 0.0347359 -0.0552285)
(-0.0159602 0.0433031 -0.0503462)
(0.0342307 0.0582817 -0.0329673)
(0.0847854 0.0447999 -0.0353934)
(0.122315 0.0385558 -0.024471)
(0.135827 0.0281495 -0.0111025)
(0.133141 0.0133247 -0.00446263)
(0.115292 0.00524798 0.00304752)
(0.0912559 -0.00294088 0.00497038)
(0.0681559 -0.00605046 0.00908827)
(0.0444014 -0.00549235 0.00918001)
(0.0245392 -0.00342612 0.0081753)
(0.00524062 -0.00217434 0.00619108)
(-0.0106759 0.0207307 -0.00849332)
(-0.000453385 -0.000839691 -0.00942607)
(0.0083882 0.00408259 -0.0048481)
(0.0153756 0.00547844 -0.00276256)
(0.0186392 0.00759779 -0.00307073)
(0.0191837 0.00800643 -0.00284811)
(0.0183248 0.0102818 -0.00434287)
(0.0119146 0.0113757 -0.00401095)
(0.00557225 0.0160081 -0.00655943)
(-0.012863 0.0169698 -0.0062227)
(-0.0369857 0.0209768 -0.00943848)
(-0.0712127 0.0271665 -0.000900499)
(-0.110849 0.0364104 -0.00635107)
(-0.157861 0.0510763 -0.0086822)
(-0.205294 0.0629326 -0.0136036)
(-0.255916 0.0709159 -0.0197938)
(-0.31439 0.0772225 -0.0462734)
(-0.405843 0.0765613 -0.0617814)
(-0.43827 0.0823362 -0.0788895)
(-0.503596 0.0843654 -0.091289)
(-0.419249 0.117049 -0.0822166)
(-0.323164 0.140138 -0.120473)
(-0.346828 0.188984 -0.122661)
(-0.330839 0.20731 -0.138111)
(-0.329152 0.231448 -0.150568)
(-0.285943 0.252299 -0.158967)
(-0.240342 0.274186 -0.161472)
(-0.168464 0.29103 -0.151399)
(-0.0969513 0.30042 -0.131033)
(-0.0310407 0.30717 -0.108192)
(0.0374287 0.289144 -0.0659655)
(0.112135 0.252868 -0.0471325)
(0.142148 0.202866 -0.0355816)
(0.155529 0.15352 -0.0252268)
(0.147007 0.105525 -0.00972706)
(0.122571 0.0655299 -0.00247295)
(0.0988902 0.0389257 0.00224697)
(0.0699648 0.0247475 0.0030634)
(0.0416795 0.0161006 0.00368912)
(0.0106793 0.00902619 0.00469535)
(-0.00245081 0.0250438 -0.000204726)
(0.00528098 0.00375054 -0.00507986)
(0.0134485 0.00656109 -0.00505791)
(0.0205874 0.0126077 -0.00601804)
(0.0216281 0.0205138 -0.00738037)
(0.0197862 0.0293076 -0.00808081)
(0.0136454 0.0407885 -0.0102066)
(0.00067973 0.0548648 -0.00875952)
(-0.0196276 0.0721992 -0.0038221)
(-0.0531869 0.0874801 -0.00651107)
(-0.0874831 0.112684 -0.00959084)
(-0.135808 0.138746 -0.0139546)
(-0.186635 0.168698 -0.0202374)
(-0.258445 0.195191 -0.032979)
(-0.337961 0.213773 -0.0382797)
(-0.426135 0.22544 -0.0459325)
(-0.494075 0.229634 -0.0643107)
(-0.569552 0.244717 -0.0835552)
(-0.594633 0.278156 -0.101365)
(-0.646762 0.31597 -0.111653)
(-0.541696 0.350454 -0.0930241)
(-0.417555 0.397183 -0.121877)
(-0.423481 0.451485 -0.114175)
(-0.39578 0.479866 -0.117735)
(-0.385623 0.510821 -0.122823)
(-0.336999 0.53007 -0.123445)
(-0.290711 0.544002 -0.119401)
(-0.222924 0.545455 -0.104944)
(-0.161945 0.536997 -0.0824046)
(-0.0968625 0.515252 -0.0588512)
(-0.0456741 0.492466 -0.0378253)
(0.000284947 0.436986 -0.0242956)
(0.0386164 0.365738 -0.00951575)
(0.0659161 0.29314 -0.00768598)
(0.0723703 0.219452 -0.00732595)
(0.0721588 0.156873 -0.00843146)
(0.0691752 0.110119 -0.00363971)
(0.0552993 0.0772268 -0.00153585)
(0.0382472 0.0516551 0.00153569)
(0.011892 0.0279489 0.00459294)
(-0.00175602 0.0290418 5.72275e-05)
(0.00552097 0.0109523 -0.00404119)
(0.0142409 0.0176173 -0.00634974)
(0.0184874 0.0324168 -0.00862003)
(0.017745 0.0524999 -0.00921082)
(0.0121956 0.0747036 -0.0106304)
(0.001925 0.102648 -0.00650426)
(-0.0194165 0.134961 -0.0079268)
(-0.0514591 0.16862 -0.0113365)
(-0.09307 0.2055 -0.0143269)
(-0.139842 0.245031 -0.0209194)
(-0.203368 0.280477 -0.0263912)
(-0.27532 0.307186 -0.0296508)
(-0.357991 0.319359 -0.0308109)
(-0.43169 0.336278 -0.0342425)
(-0.501816 0.354555 -0.0407565)
(-0.55429 0.383058 -0.0577727)
(-0.615179 0.410917 -0.0683671)
(-0.627344 0.458488 -0.0791187)
(-0.670845 0.506454 -0.0747257)
(-0.547022 0.532288 -0.0311885)
(-0.400428 0.57163 -0.043687)
(-0.398075 0.606834 -0.0285835)
(-0.369355 0.611495 -0.0248992)
(-0.360722 0.623921 -0.024347)
(-0.321126 0.621142 -0.0212312)
(-0.286244 0.612397 -0.0178985)
(-0.234839 0.589996 -0.0104584)
(-0.190353 0.562616 0.00120742)
(-0.144325 0.52754 0.00837637)
(-0.115377 0.486747 0.0131136)
(-0.0860792 0.444125 0.0115413)
(-0.062056 0.387973 0.00555129)
(-0.0338984 0.323859 -0.00178116)
(-0.0119552 0.258435 -0.00432474)
(0.00714141 0.198476 -0.00433382)
(0.0253096 0.146643 -0.00549839)
(0.0292481 0.112926 -0.00495667)
(0.0282881 0.0773549 -0.000261226)
(0.0107364 0.0407942 0.00388715)
(-0.00273788 0.0343334 -0.00236039)
(0.00548823 0.0269564 -0.00739431)
(0.0193004 0.0436365 -0.01114)
(0.0259757 0.0732011 -0.0110586)
(0.0219732 0.106075 -0.0120084)
(0.0126145 0.147854 -0.0142267)
(-0.00298034 0.194501 -0.0110858)
(-0.0333658 0.244637 -0.008674)
(-0.0732989 0.296507 -0.00968175)
(-0.122724 0.341359 -0.012435)
(-0.177259 0.375635 -0.0161239)
(-0.248879 0.395414 -0.0188438)
(-0.321827 0.412632 -0.019891)
(-0.390631 0.42933 -0.0223955)
(-0.446731 0.453845 -0.0239123)
(-0.505958 0.480722 -0.0274153)
(-0.54499 0.509168 -0.0326398)
(-0.587131 0.539815 -0.0313766)
(-0.578154 0.597788 -0.0257136)
(-0.608119 0.645044 -0.0263128)
(-0.481113 0.667383 0.0215102)
(-0.32668 0.682586 0.0202661)
(-0.324846 0.685961 0.0393189)
(-0.305364 0.653685 0.0400983)
(-0.310729 0.638458 0.0394906)
(-0.290315 0.609788 0.0427461)
(-0.275483 0.5787 0.0458809)
(-0.242426 0.538944 0.0511357)
(-0.218104 0.497623 0.0441464)
(-0.190735 0.455806 0.0348117)
(-0.170618 0.410732 0.0241061)
(-0.156153 0.376912 0.0147543)
(-0.146807 0.340995 0.00859931)
(-0.12391 0.310093 -0.00221772)
(-0.098547 0.269873 -0.00922701)
(-0.067171 0.207323 -0.0111219)
(-0.024434 0.159692 -0.00975106)
(0.000389423 0.130784 -0.00929222)
(0.0132329 0.0959185 -0.00167126)
(0.00912645 0.0481484 0.0037081)
(-0.000711076 0.0427472 -0.00359358)
(0.012294 0.0500021 -0.0108367)
(0.0310278 0.0830276 -0.0127702)
(0.0347655 0.13176 -0.0129153)
(0.0309377 0.182275 -0.0189718)
(0.0220612 0.240935 -0.0170467)
(0.00264809 0.305529 -0.0114471)
(-0.029793 0.361802 -0.00579021)
(-0.080046 0.405366 -0.00727225)
(-0.144533 0.433805 -0.01001)
(-0.213104 0.454644 -0.0127269)
(-0.27883 0.470502 -0.0129369)
(-0.332615 0.492 -0.0114928)
(-0.384498 0.514832 -0.00863706)
(-0.422055 0.53775 -0.00361727)
(-0.463211 0.559839 -0.000311005)
(-0.479614 0.58716 0.00197539)
(-0.493171 0.616212 0.0039833)
(-0.476665 0.670619 0.00269273)
(-0.493832 0.707347 0.012035)
(-0.370406 0.712554 0.056496)
(-0.23817 0.68157 0.059069)
(-0.255106 0.65281 0.0793283)
(-0.255342 0.588038 0.0837721)
(-0.273155 0.552755 0.083654)
(-0.271975 0.509537 0.080878)
(-0.272397 0.471356 0.077434)
(-0.259421 0.429388 0.0687253)
(-0.246994 0.385205 0.0627394)
(-0.233782 0.345956 0.0434218)
(-0.224568 0.304871 0.03011)
(-0.207876 0.271913 0.017029)
(-0.193359 0.24861 0.0032931)
(-0.173631 0.237282 -0.00389012)
(-0.171419 0.223225 -0.0154948)
(-0.140398 0.184997 -0.0126251)
(-0.0661341 0.151067 -0.0104889)
(-0.0196734 0.128945 -0.0096606)
(0.00466946 0.100075 -0.0035626)
(0.00580214 0.0481709 0.00509271)
(0.0027345 0.050719 -0.00414828)
(0.0264619 0.0692617 -0.0129938)
(0.0576337 0.111427 -0.0160051)
(0.0660413 0.171646 -0.0183642)
(0.0578892 0.236923 -0.0256007)
(0.0483749 0.306022 -0.021032)
(0.0194183 0.371764 -0.0120338)
(-0.0377375 0.404754 -0.00309978)
(-0.104037 0.435555 -0.00699688)
(-0.164485 0.460292 -0.00823018)
(-0.212705 0.488024 -0.00835614)
(-0.259864 0.517684 -0.00631481)
(-0.299554 0.546679 -0.00257851)
(-0.337455 0.570723 0.00174764)
(-0.363872 0.594452 0.00699903)
(-0.386863 0.611213 0.0116394)
(-0.386316 0.633954 0.0204371)
(-0.388972 0.641247 0.0235261)
(-0.356606 0.658658 0.0238937)
(-0.369784 0.674187 0.0199312)
(-0.297336 0.663398 0.0553711)
(-0.186179 0.568682 0.0618456)
(-0.204317 0.533349 0.0777292)
(-0.218221 0.464548 0.0832878)
(-0.246878 0.433602 0.0820247)
(-0.262577 0.396548 0.0801855)
(-0.278424 0.369103 0.0760153)
(-0.282778 0.337547 0.065634)
(-0.284508 0.305774 0.0492901)
(-0.283319 0.27255 0.0314347)
(-0.280762 0.241638 0.0149132)
(-0.26814 0.215188 0.00139508)
(-0.250361 0.195032 -0.00688944)
(-0.222939 0.183393 -0.0110305)
(-0.213548 0.18399 -0.0159329)
(-0.182972 0.178874 -0.018036)
(-0.0998723 0.155564 -0.0161714)
(-0.0331675 0.134688 -0.0135982)
(0.000895835 0.106307 -0.00681714)
(0.00646939 0.0517911 0.00364552)
(0.00442397 0.062105 -0.00595757)
(0.0349382 0.0901905 -0.0166207)
(0.0773434 0.136129 -0.0176125)
(0.0922737 0.19521 -0.0145276)
(0.0884533 0.256815 -0.018744)
(0.0702008 0.331457 -0.0112158)
(0.0157208 0.365127 -0.00142017)
(-0.0433711 0.396734 -0.000639765)
(-0.0897146 0.438466 -0.00257454)
(-0.138235 0.476194 -0.00197799)
(-0.180367 0.510916 -0.00132786)
(-0.219393 0.537887 0.00310811)
(-0.249025 0.559279 0.00879595)
(-0.27326 0.574702 0.015425)
(-0.286635 0.587743 0.0196724)
(-0.300154 0.590048 0.0252953)
(-0.297543 0.59204 0.0293308)
(-0.29835 0.573701 0.0296411)
(-0.271545 0.565563 0.0268483)
(-0.279169 0.531468 0.0125446)
(-0.257086 0.53129 0.0327807)
(-0.169659 0.411644 0.0436663)
(-0.172958 0.391156 0.052952)
(-0.199868 0.340162 0.0636841)
(-0.233469 0.322901 0.0650986)
(-0.263307 0.298903 0.0670785)
(-0.288202 0.283284 0.0664017)
(-0.305508 0.26179 0.0553448)
(-0.319837 0.240847 0.0409442)
(-0.327757 0.214415 0.0163656)
(-0.328108 0.188856 0.00647266)
(-0.313832 0.168262 -0.00546449)
(-0.296318 0.155455 -0.0145517)
(-0.262688 0.149606 -0.0165572)
(-0.248824 0.153862 -0.0204056)
(-0.220599 0.175766 -0.0185485)
(-0.134505 0.156781 -0.0174909)
(-0.0503165 0.140036 -0.0122519)
(-0.00198755 0.109999 -0.00703536)
(0.00623936 0.0527375 0.00457158)
(0.00388193 0.0809239 -0.0077876)
(0.0418365 0.121831 -0.0196655)
(0.0971593 0.17646 -0.0200245)
(0.118482 0.232779 -0.0142153)
(0.122818 0.294118 -0.016322)
(0.0843837 0.351537 -0.0105998)
(0.0238197 0.377063 0.000258348)
(-0.0147581 0.416955 0.00340836)
(-0.0603419 0.457665 0.00299256)
(-0.104106 0.494022 0.00555195)
(-0.139765 0.516779 0.0086961)
(-0.171439 0.531108 0.0127225)
(-0.19129 0.539891 0.0210145)
(-0.207795 0.537995 0.0251703)
(-0.219072 0.528132 0.0277953)
(-0.228639 0.505974 0.0289417)
(-0.229607 0.483971 0.0285007)
(-0.233037 0.446235 0.0245119)
(-0.227436 0.422267 0.0179628)
(-0.228459 0.368783 0.00335253)
(-0.244484 0.373316 0.00397764)
(-0.18371 0.28345 0.0235501)
(-0.155844 0.272602 0.0275485)
(-0.192624 0.247228 0.0420779)
(-0.227351 0.241695 0.0473259)
(-0.266375 0.229123 0.0548109)
(-0.298442 0.220724 0.0571379)
(-0.326149 0.206941 0.0481785)
(-0.35015 0.190669 0.0306308)
(-0.364717 0.167224 0.0129417)
(-0.365993 0.148435 0.00267086)
(-0.353662 0.131276 0.0012761)
(-0.335492 0.118764 -0.00605581)
(-0.302364 0.121246 -0.0163064)
(-0.266489 0.126575 -0.0252444)
(-0.241512 0.160826 -0.026112)
(-0.166706 0.16011 -0.0200756)
(-0.0636144 0.147889 -0.0185062)
(-0.00547957 0.115618 -0.00905858)
(0.00794009 0.0566689 0.00282934)
(0.00258052 0.101985 -0.00898764)
(0.0493282 0.162094 -0.0224183)
(0.11629 0.223278 -0.023201)
(0.146045 0.276351 -0.0155884)
(0.145799 0.335413 -0.0161874)
(0.100547 0.365551 -0.00928394)
(0.0423936 0.405805 0.000849554)
(0.0102122 0.437391 0.0100387)
(-0.0232711 0.464387 0.0112085)
(-0.0638428 0.489767 0.0166462)
(-0.0995235 0.505445 0.0173826)
(-0.125839 0.507851 0.026483)
(-0.144384 0.498245 0.0316639)
(-0.160953 0.472378 0.0357875)
(-0.172509 0.439848 0.0354091)
(-0.184282 0.397789 0.0327283)
(-0.192435 0.357898 0.0274263)
(-0.198495 0.311056 0.0209529)
(-0.204491 0.279938 0.0117763)
(-0.204145 0.238504 0.00048499)
(-0.232836 0.233604 -0.00921653)
(-0.188102 0.197729 0.00924117)
(-0.144139 0.19199 0.0121692)
(-0.183151 0.183607 0.0275877)
(-0.216494 0.181344 0.0369664)
(-0.262046 0.175259 0.0482718)
(-0.297009 0.169534 0.0531445)
(-0.332401 0.159396 0.0433263)
(-0.362664 0.144126 0.0317965)
(-0.378273 0.125314 0.025149)
(-0.38655 0.10367 0.0220802)
(-0.38069 0.0851041 0.0205139)
(-0.361883 0.0702071 0.0161392)
(-0.329412 0.0724927 0.00732608)
(-0.292668 0.0834462 -0.00606684)
(-0.261073 0.1223 -0.0239999)
(-0.188909 0.149158 -0.0206391)
(-0.085688 0.144335 -0.0149889)
(-0.0106264 0.119836 -0.00821063)
(0.00912404 0.0587434 0.00383558)
(0.003203 0.126978 -0.00975774)
(0.0582225 0.210034 -0.0276832)
(0.135353 0.272933 -0.0271169)
(0.17259 0.324561 -0.0175059)
(0.164537 0.367806 -0.0135923)
(0.120228 0.39133 -0.0106287)
(0.0751875 0.42847 0.000869419)
(0.0380784 0.455895 0.0142043)
(0.00811106 0.471535 0.0218206)
(-0.0258269 0.480992 0.0224436)
(-0.0601995 0.483214 0.0293653)
(-0.0882948 0.473202 0.0366214)
(-0.110672 0.447839 0.0402083)
(-0.130042 0.406527 0.0414951)
(-0.145774 0.357755 0.0397978)
(-0.160015 0.305602 0.0338481)
(-0.173104 0.260385 0.0252409)
(-0.18206 0.217015 0.0166089)
(-0.19214 0.187131 0.00679494)
(-0.194324 0.161516 -0.00446055)
(-0.220671 0.150357 -0.0137489)
(-0.176334 0.144929 0.00118627)
(-0.13072 0.141861 0.00449326)
(-0.168345 0.13686 0.01957)
(-0.198834 0.133451 0.0320643)
(-0.245091 0.127121 0.0438283)
(-0.284213 0.123643 0.0480159)
(-0.32184 0.113091 0.0421901)
(-0.355285 0.099449 0.0451378)
(-0.383784 0.0776448 0.0456146)
(-0.400437 0.0554938 0.0455571)
(-0.403447 0.0381638 0.0346493)
(-0.388457 0.0282586 0.0307017)
(-0.356626 0.0276686 0.0204592)
(-0.30453 0.0416361 0.00714155)
(-0.267012 0.0766846 -0.0113012)
(-0.204734 0.121581 -0.0227572)
(-0.0965161 0.136472 -0.0161571)
(-0.0120186 0.116853 -0.00846171)
(0.00941633 0.0589773 0.00312443)
(0.00446654 0.150602 -0.00971143)
(0.0646445 0.253733 -0.0303139)
(0.151541 0.320073 -0.0294396)
(0.19042 0.364406 -0.0158762)
(0.179577 0.391725 -0.0092034)
(0.142499 0.416791 -0.00699008)
(0.103602 0.441439 0.00386762)
(0.0672336 0.460459 0.0136524)
(0.0345943 0.469194 0.0218694)
(0.00361502 0.464033 0.0340755)
(-0.0271175 0.453537 0.0372599)
(-0.0604527 0.430565 0.0413635)
(-0.0895573 0.393359 0.0440741)
(-0.113538 0.341955 0.0433152)
(-0.132677 0.288321 0.0385654)
(-0.148078 0.233399 0.0317153)
(-0.162124 0.189225 0.0210159)
(-0.171182 0.152198 0.0120216)
(-0.180229 0.127607 0.00293863)
(-0.184275 0.111258 -0.00740845)
(-0.20324 0.100264 -0.0135263)
(-0.153991 0.109248 -0.00186431)
(-0.11178 0.100834 0.000717445)
(-0.142883 0.0938315 0.0153029)
(-0.169931 0.0858813 0.0276198)
(-0.214545 0.0785473 0.0392307)
(-0.250776 0.0727164 0.0428171)
(-0.291907 0.0626588 0.053249)
(-0.332836 0.0489832 0.0596405)
(-0.364189 0.0310086 0.0670321)
(-0.385147 0.00743345 0.0659795)
(-0.396121 -0.0178219 0.0562501)
(-0.398637 -0.0359845 0.0326433)
(-0.378365 -0.0355489 0.0237429)
(-0.339198 -0.0207987 0.0214207)
(-0.291398 0.0202893 0.0149038)
(-0.216872 0.0816789 -0.0146849)
(-0.115164 0.120654 -0.0183695)
(-0.018967 0.114327 -0.00809205)
(0.0122745 0.0604502 0.00256643)
(0.00475183 0.172889 -0.00725624)
(0.0706931 0.296086 -0.0305226)
(0.162811 0.364668 -0.0295864)
(0.202864 0.396625 -0.0130852)
(0.197723 0.415914 -0.00291827)
(0.165176 0.437322 0.00135456)
(0.128846 0.451983 0.00678697)
(0.0937248 0.460319 0.0167033)
(0.059334 0.461893 0.0256243)
(0.0275398 0.451021 0.0360046)
(-0.00363259 0.425311 0.0469209)
(-0.0390456 0.390919 0.0449521)
(-0.0747832 0.344743 0.043664)
(-0.104726 0.288491 0.0404108)
(-0.126776 0.232248 0.0344158)
(-0.142522 0.179977 0.026506)
(-0.155486 0.137099 0.0158947)
(-0.16203 0.104266 0.0072892)
(-0.167921 0.0815904 -0.000403338)
(-0.170685 0.0683313 -0.00813038)
(-0.173616 0.0591461 -0.0100303)
(-0.121154 0.0801427 -0.00276412)
(-0.0874569 0.0601318 -0.000429383)
(-0.111014 0.0486014 0.0117036)
(-0.133054 0.0351913 0.022558)
(-0.172842 0.0307626 0.0319251)
(-0.207488 0.0254958 0.050331)
(-0.246491 0.014676 0.0600055)
(-0.286243 -0.00228549 0.0699695)
(-0.332699 -0.0256772 0.0682326)
(-0.37766 -0.0572263 0.0598969)
(-0.410961 -0.089781 0.0495305)
(-0.414841 -0.119163 0.0354162)
(-0.398598 -0.131422 0.0111796)
(-0.351465 -0.115432 -0.000952003)
(-0.299 -0.0670144 0.00186219)
(-0.229611 0.0211506 0.010461)
(-0.122336 0.0791602 -0.0190173)
(-0.0216302 0.0977632 -0.00592568)
(0.01158 0.054053 0.00337841)
(0.0053267 0.184918 -0.00462264)
(0.0719192 0.325858 -0.0303216)
(0.164091 0.395322 -0.029975)
(0.207898 0.419849 -0.0118449)
(0.213068 0.432451 0.00321502)
(0.186442 0.44576 0.01086)
(0.147628 0.453608 0.0159889)
(0.114327 0.455007 0.0196491)
(0.0814229 0.449849 0.0302323)
(0.0443659 0.431418 0.0383321)
(0.0106699 0.398473 0.0474104)
(-0.0274492 0.352489 0.0478337)
(-0.0688466 0.300209 0.0399482)
(-0.102372 0.24167 0.0340493)
(-0.126285 0.185144 0.0275485)
(-0.141487 0.134735 0.0196945)
(-0.151369 0.0945591 0.010488)
(-0.153823 0.0634515 0.00355811)
(-0.153136 0.0398456 -0.00174504)
(-0.148676 0.0285895 -0.00659566)
(-0.1281 0.019227 -0.00533309)
(-0.0801645 0.0339452 -0.00475612)
(-0.0639728 0.00807464 -0.00163095)
(-0.0744818 -0.00430205 0.00775861)
(-0.0861045 -0.0169545 0.0143121)
(-0.114709 -0.0241182 0.030215)
(-0.148245 -0.0347255 0.0435191)
(-0.192858 -0.0492679 0.055718)
(-0.244065 -0.0703764 0.058871)
(-0.297691 -0.0991356 0.0576174)
(-0.351291 -0.127389 0.0523781)
(-0.392489 -0.157688 0.0414932)
(-0.415923 -0.184952 0.0257939)
(-0.407642 -0.204884 0.0135442)
(-0.372163 -0.199581 -0.00864813)
(-0.307189 -0.159777 -0.00772819)
(-0.239772 -0.0666221 -0.00599761)
(-0.144826 0.0463678 -0.00254996)
(-0.0255257 0.0807459 -0.0168976)
(0.0144647 0.0539626 0.00324269)
(0.0058502 0.194376 0.000390338)
(0.0720922 0.348549 -0.0276882)
(0.162654 0.42074 -0.0298502)
(0.211927 0.442437 -0.0103665)
(0.226966 0.44725 0.00931482)
(0.204597 0.449601 0.022169)
(0.168254 0.452604 0.0285307)
(0.134223 0.451835 0.0315377)
(0.0971021 0.440103 0.0332335)
(0.0575889 0.415581 0.0381494)
(0.0180268 0.377086 0.045364)
(-0.0230035 0.324141 0.0443643)
(-0.0660903 0.264125 0.034983)
(-0.103273 0.202209 0.0247347)
(-0.128377 0.146259 0.0192702)
(-0.141583 0.0988306 0.0144335)
(-0.14629 0.0605152 0.0068538)
(-0.144787 0.0293132 0.00132147)
(-0.134814 0.00569565 -0.00169666)
(-0.121647 -0.0147908 -0.00526321)
(-0.0894576 -0.0225402 -0.000648212)
(-0.0455244 -0.029647 -0.00205095)
(-0.0320361 -0.0559469 0.000182183)
(-0.0311343 -0.0707042 0.00395166)
(-0.0401407 -0.0893453 0.0127524)
(-0.0685158 -0.0995141 0.0255969)
(-0.0997365 -0.110676 0.0384349)
(-0.139362 -0.127388 0.0455139)
(-0.187479 -0.14395 0.0498843)
(-0.244376 -0.16375 0.0498123)
(-0.303232 -0.188793 0.045558)
(-0.358499 -0.220032 0.0368486)
(-0.39626 -0.252979 0.0243563)
(-0.408456 -0.279204 0.00725048)
(-0.379724 -0.288478 -0.00897958)
(-0.319845 -0.252531 -0.0213721)
(-0.230479 -0.175098 -0.0153348)
(-0.141631 -0.0270058 0.000393443)
(-0.0426204 0.0495676 -0.0064355)
(0.0133922 0.0442214 0.00125644)
(0.00369733 0.183182 0.00127427)
(0.0654877 0.348582 -0.0272263)
(0.155214 0.426846 -0.0293619)
(0.209181 0.45023 -0.00994654)
(0.232815 0.451219 0.0128467)
(0.221337 0.44854 0.0267214)
(0.190071 0.448583 0.0351522)
(0.152371 0.440094 0.0395302)
(0.110094 0.422577 0.039027)
(0.0644996 0.391142 0.0365229)
(0.0191661 0.344632 0.0351975)
(-0.028832 0.285129 0.0331562)
(-0.0759766 0.220493 0.0238742)
(-0.110625 0.159607 0.0168846)
(-0.13028 0.107633 0.0114584)
(-0.14013 0.0637742 0.0072953)
(-0.142258 0.0282278 0.00226145)
(-0.133637 -0.00211615 -0.00187006)
(-0.122434 -0.0342515 -0.00434929)
(-0.0969134 -0.0638146 -0.00102078)
(-0.0551287 -0.0770981 -0.00109258)
(-0.0213588 -0.100545 -0.00584203)
(-0.00621846 -0.125344 -0.00372889)
(-0.00232799 -0.145147 0.00207884)
(-0.0027826 -0.163558 0.0106067)
(-0.0145435 -0.174824 0.0175577)
(-0.0434627 -0.181727 0.0234068)
(-0.0812831 -0.189484 0.0336344)
(-0.125016 -0.202291 0.0390574)
(-0.179502 -0.220894 0.0424272)
(-0.241027 -0.242871 0.0415869)
(-0.303211 -0.273992 0.0369509)
(-0.354887 -0.310359 0.0256799)
(-0.385221 -0.348061 0.0104476)
(-0.377363 -0.367157 -0.00901293)
(-0.333023 -0.353981 -0.0239315)
(-0.244718 -0.274266 -0.0290759)
(-0.152403 -0.137014 -0.0137949)
(-0.0459359 0.0154347 -0.0113224)
(0.0129627 0.0319292 0.00218053)
(0.00586522 0.168884 0.00866829)
(0.0658287 0.342844 -0.0187792)
(0.152516 0.427163 -0.0226232)
(0.212384 0.448759 -0.00185329)
(0.246729 0.446512 0.0210525)
(0.244221 0.439808 0.031242)
(0.212616 0.432789 0.0401306)
(0.169624 0.419333 0.0427583)
(0.119421 0.399569 0.0417478)
(0.0646828 0.366259 0.0361667)
(0.0107992 0.319795 0.0308764)
(-0.0389717 0.255016 0.0259808)
(-0.0813823 0.192679 0.0178475)
(-0.111414 0.135235 0.0107643)
(-0.129173 0.0831313 0.00390745)
(-0.135181 0.0364025 -8.44176e-05)
(-0.132684 -0.00254407 -0.00352398)
(-0.129271 -0.0399863 -0.00545219)
(-0.115847 -0.0784123 -0.000820163)
(-0.0793256 -0.113501 0.000531023)
(-0.0375461 -0.141921 -0.00679201)
(-0.00230756 -0.171829 -0.00748591)
(0.0186542 -0.195574 -0.00260547)
(0.0292093 -0.214377 0.000525363)
(0.0337073 -0.226927 0.00434733)
(0.025219 -0.237994 0.00907759)
(0.00813587 -0.244838 0.0152076)
(-0.0244499 -0.2474 0.0198436)
(-0.0685981 -0.253679 0.0281559)
(-0.116859 -0.265211 0.0343396)
(-0.175264 -0.28641 0.0372451)
(-0.240224 -0.31939 0.0354144)
(-0.300236 -0.358571 0.0283339)
(-0.344573 -0.405002 0.014664)
(-0.3557 -0.438059 -0.00344207)
(-0.32608 -0.44013 -0.0203489)
(-0.248687 -0.378899 -0.0306261)
(-0.142067 -0.241668 -0.0255276)
(-0.0432454 -0.0526797 0.0028691)
(-0.000381478 0.0200224 0.00585454)
(-0.00102286 0.149012 0.00352999)
(0.050115 0.327404 -0.0209741)
(0.1357 0.418981 -0.0265849)
(0.204618 0.446922 -0.00308868)
(0.254645 0.445163 0.0125623)
(0.264525 0.432284 0.0290368)
(0.23859 0.417681 0.0365951)
(0.192849 0.400223 0.0372941)
(0.136268 0.376736 0.0336343)
(0.0730976 0.342379 0.0274868)
(0.00571821 0.287387 0.0232326)
(-0.0518272 0.226336 0.0210648)
(-0.0909935 0.165997 0.00841892)
(-0.120377 0.108225 -5.14246e-05)
(-0.136999 0.0552995 -0.00655024)
(-0.140793 0.00880919 -0.0100728)
(-0.137415 -0.0378739 -0.0111094)
(-0.128437 -0.0805614 -0.00613077)
(-0.113421 -0.118016 -0.00181302)
(-0.0760995 -0.161745 -0.00736101)
(-0.0278455 -0.192091 -0.00961245)
(0.0117038 -0.226677 -0.00694718)
(0.0384481 -0.253172 -0.00341105)
(0.0551828 -0.272368 -0.000742794)
(0.066133 -0.286327 0.00128562)
(0.0665204 -0.297902 0.00356381)
(0.055835 -0.302495 0.00595068)
(0.0314267 -0.306721 0.00979442)
(-0.00344086 -0.305701 0.0153952)
(-0.0518757 -0.313397 0.0206524)
(-0.111227 -0.32568 0.0281824)
(-0.173108 -0.353508 0.0319398)
(-0.236162 -0.394406 0.0282957)
(-0.290531 -0.450809 0.0173579)
(-0.316849 -0.504307 -0.002566)
(-0.312168 -0.535445 -0.022744)
(-0.259212 -0.49417 -0.0382286)
(-0.161399 -0.35524 -0.0331195)
(-0.0407189 -0.149732 -0.0118338)
(0.0119158 -0.00511499 0.00155788)
(-0.00452116 0.141747 0.00977593)
(0.0374917 0.334818 -0.00807126)
(0.121661 0.432373 -0.013614)
(0.196995 0.459016 0.000489398)
(0.256494 0.451685 0.011353)
(0.275248 0.428154 0.027316)
(0.25475 0.413499 0.0347034)
(0.207585 0.406677 0.0355572)
(0.143736 0.392654 0.0316239)
(0.0637342 0.361558 0.0256231)
(-0.0109426 0.308576 0.0287084)
(-0.0624551 0.256003 0.0251608)
(-0.101479 0.197104 0.00873954)
(-0.127905 0.134057 -0.00163994)
(-0.139749 0.0739079 -0.00996524)
(-0.144148 0.00891625 -0.01699)
(-0.140973 -0.0485469 -0.0166486)
(-0.12913 -0.101254 -0.0114862)
(-0.116033 -0.147159 -0.0125428)
(-0.0720136 -0.188907 -0.0155343)
(-0.0215731 -0.218459 -0.0132326)
(0.0164541 -0.253191 -0.00825931)
(0.0522498 -0.285803 -0.00548051)
(0.0760774 -0.315223 -0.00433642)
(0.0909445 -0.333542 -0.00339342)
(0.096763 -0.344333 -0.00115239)
(0.0953898 -0.34772 0.000794207)
(0.080743 -0.351429 0.002237)
(0.0503835 -0.35322 0.00522093)
(0.0119929 -0.361666 0.0102932)
(-0.0375056 -0.373061 0.0139487)
(-0.10195 -0.40025 0.0162448)
(-0.173132 -0.441008 0.0168785)
(-0.241876 -0.509488 0.0099735)
(-0.290065 -0.586244 -0.00355786)
(-0.295681 -0.647785 -0.0208198)
(-0.241205 -0.638756 -0.039798)
(-0.158635 -0.500102 -0.0471449)
(-0.0459841 -0.268229 -0.0183558)
(0.0119773 -0.0550444 0.00828917)
(-0.0152 0.230804 -0.000437337)
(0.0148156 0.455589 -0.017568)
(0.0935966 0.56268 -0.0193359)
(0.170643 0.594919 -0.00729203)
(0.239286 0.586868 0.00747528)
(0.281932 0.55294 0.0258074)
(0.291591 0.528798 0.0328609)
(0.253639 0.510232 0.0308484)
(0.174712 0.482046 0.0234408)
(0.0744843 0.437145 0.0180477)
(-0.0109603 0.383819 0.0210231)
(-0.0716279 0.32608 0.0168173)
(-0.120321 0.255159 -0.000373009)
(-0.152526 0.178104 -0.0119937)
(-0.174762 0.0959503 -0.0229353)
(-0.179667 0.0176325 -0.0274535)
(-0.16617 -0.0504641 -0.0311568)
(-0.146856 -0.112731 -0.0259634)
(-0.122274 -0.161798 -0.0267396)
(-0.069827 -0.198373 -0.0280455)
(-0.0163395 -0.22851 -0.0260013)
(0.0184193 -0.256928 -0.0168445)
(0.0496133 -0.287255 -0.00975739)
(0.0809129 -0.317767 -0.00537954)
(0.112599 -0.340732 -0.00354719)
(0.132116 -0.350443 -0.00294414)
(0.135455 -0.352599 -0.00339862)
(0.123724 -0.359266 -0.00299224)
(0.100364 -0.366445 0.000423493)
(0.064856 -0.38273 0.00322626)
(0.0157578 -0.409738 0.00852194)
(-0.0409033 -0.455006 0.0113051)
(-0.114147 -0.497154 0.0110482)
(-0.196477 -0.569179 0.00856721)
(-0.258448 -0.651575 -0.000676577)
(-0.288172 -0.73993 -0.017224)
(-0.242391 -0.761862 -0.0321921)
(-0.168266 -0.674501 -0.0494286)
(-0.0485694 -0.381257 -0.0181123)
(0.022542 -0.110856 0.0109593)
(-0.0146179 0.253159 0.00490987)
(0.00829457 0.48962 -0.0258301)
(0.0822112 0.612355 -0.0315582)
(0.164259 0.663969 -0.0273707)
(0.233191 0.669011 -0.0158798)
(0.283017 0.642787 0.00344243)
(0.29771 0.603301 0.0123542)
(0.247166 0.553779 0.0152799)
(0.156388 0.501355 0.0141223)
(0.0522722 0.44801 0.013713)
(-0.0342618 0.392742 0.0181634)
(-0.102055 0.331353 0.0150298)
(-0.159899 0.25718 0.000227189)
(-0.198565 0.175463 -0.010645)
(-0.213535 0.0937236 -0.0196299)
(-0.206289 0.017782 -0.0328293)
(-0.189788 -0.0524187 -0.0404174)
(-0.161206 -0.116866 -0.0415245)
(-0.125008 -0.16658 -0.040168)
(-0.0647781 -0.204418 -0.0399102)
(-0.00842629 -0.237108 -0.0375826)
(0.0277086 -0.263504 -0.0306046)
(0.0604642 -0.282331 -0.0222987)
(0.091956 -0.297059 -0.0144985)
(0.129374 -0.309174 -0.00895538)
(0.159516 -0.313197 -0.00329458)
(0.167176 -0.306796 -0.000215267)
(0.157203 -0.3052 0.000672614)
(0.132352 -0.305822 0.00343226)
(0.096614 -0.32558 0.00753417)
(0.0485684 -0.356289 0.0135161)
(0.00602588 -0.423879 0.0180112)
(-0.0522113 -0.510125 0.0145352)
(-0.131951 -0.628101 0.0101611)
(-0.210985 -0.746104 0.00408236)
(-0.259008 -0.866592 -0.00709249)
(-0.242811 -0.916893 -0.0245395)
(-0.154139 -0.864327 -0.0359306)
(-0.0499507 -0.570688 -0.0425293)
(-0.00102277 -0.178284 0.0299453)
(-0.00673057 0.220488 0.0135413)
(0.0164497 0.445264 -0.0171865)
(0.074804 0.573684 -0.027777)
(0.148782 0.63235 -0.0235382)
(0.215871 0.640899 -0.0137035)
(0.264484 0.621972 0.00277148)
(0.279581 0.578158 0.014852)
(0.234786 0.523733 0.0205876)
(0.150082 0.475051 0.0228986)
(0.0455885 0.427741 0.0230535)
(-0.0488636 0.383294 0.026006)
(-0.126755 0.326816 0.0221365)
(-0.193508 0.262854 0.00762972)
(-0.23188 0.190084 -0.00523123)
(-0.248353 0.11945 -0.0233135)
(-0.242488 0.0398286 -0.0390683)
(-0.219354 -0.0347339 -0.0538683)
(-0.182369 -0.0989448 -0.0584596)
(-0.134447 -0.152542 -0.0565967)
(-0.0681826 -0.194406 -0.0532652)
(-0.00599404 -0.233523 -0.046448)
(0.0408376 -0.261574 -0.0391432)
(0.0829584 -0.277849 -0.0328893)
(0.121175 -0.28483 -0.0269634)
(0.164842 -0.282823 -0.0239009)
(0.205695 -0.281408 -0.01613)
(0.219691 -0.27205 -0.00652267)
(0.209101 -0.262788 -0.00104127)
(0.177128 -0.253886 0.000536289)
(0.131708 -0.260761 0.00494636)
(0.0650756 -0.273746 0.0139257)
(-0.00654356 -0.326834 0.0234374)
(-0.0829182 -0.40164 0.030669)
(-0.15196 -0.528422 0.0341327)
(-0.201528 -0.692058 0.0288712)
(-0.236797 -0.87065 0.0196352)
(-0.228644 -0.992304 0.00161793)
(-0.159066 -1.00773 -0.0209794)
(-0.0239388 -0.788643 -0.0364793)
(0.0337043 -0.329079 -0.00287835)
(-0.00480582 0.19491 0.0142403)
(0.0209934 0.3964 -0.00890068)
(0.0779575 0.52676 -0.0195796)
(0.145823 0.591269 -0.0167644)
(0.210307 0.608412 -0.00638361)
(0.255016 0.59407 0.00933402)
(0.263262 0.555018 0.0221898)
(0.218155 0.501387 0.0297024)
(0.135511 0.450323 0.0332116)
(0.0364777 0.401265 0.0347481)
(-0.0590599 0.365474 0.0332503)
(-0.144643 0.319073 0.0287027)
(-0.216202 0.268128 0.0165807)
(-0.25939 0.210216 0.00147)
(-0.280247 0.142358 -0.0180368)
(-0.27698 0.0688118 -0.0400821)
(-0.246216 -0.006474 -0.0588479)
(-0.199466 -0.0694945 -0.0727947)
(-0.144681 -0.123762 -0.069941)
(-0.0737215 -0.169685 -0.0643475)
(-0.00661594 -0.211678 -0.0547357)
(0.0504293 -0.244767 -0.0470404)
(0.10342 -0.262841 -0.0402898)
(0.153357 -0.271015 -0.0338892)