/*--------------------------------*- C++ -*----------------------------------*\
| =========                 |                                                 |
| \\      /  F ield         | OpenFOAM: The Open Source CFD Toolbox           |
|  \\    /   O peration     | Version:  v1806                                 |
|   \\  /    A nd           | Web:      www.OpenFOAM.com                      |
|    \\/     M anipulation  |                                                 |
\*---------------------------------------------------------------------------*/
FoamFile
{
    version     2.0;
    format      ascii;
    class       volVectorField;
    location    "0.0835";
    object      U;
}
// * * * * * * * * * * * * * * * * * * * * * * * * * * * * * * * * * * * * * //

dimensions      [0 1 -1 0 0 0 0];


internalField   nonuniform List<vector> 
64000
(
(-0.00983611 -0.0111979 -0.00773583)
(0.0144238 -0.0110358 -0.00522738)
(0.0204524 -0.00370491 0.000521178)
(0.02491 -0.00331081 0.00118547)
(0.0259868 -0.00239565 0.00151286)
(0.0262532 -0.0027052 0.00221428)
(0.0258049 -0.00362711 0.00243608)
(0.0224504 -0.00398686 0.00284643)
(0.0212051 -0.00493948 0.00426769)
(0.0140931 -0.00452559 0.00371753)
(0.0086144 -0.00519808 0.00594685)
(-0.00413031 -0.00849567 0.00639777)
(-0.0230317 -0.0125024 0.00615595)
(-0.0470679 -0.0176445 0.00387845)
(-0.0759155 -0.0180904 0.00489697)
(-0.112119 -0.016822 0.00249144)
(-0.140855 0.000189665 0.00170287)
(-0.18573 -0.00445685 -0.00270211)
(-0.18487 -0.00963941 0.00524578)
(-0.245593 -0.0275632 -0.014646)
(-0.215234 -0.0219065 -0.02216)
(-0.107357 -0.0234451 -0.038544)
(-0.108466 -0.00866451 -0.0257778)
(-0.105614 -0.00341879 -0.0372029)
(-0.122656 0.00289022 -0.0481271)
(-0.116774 0.011115 -0.0576516)
(-0.105068 0.0211454 -0.0623408)
(-0.0690614 0.0321376 -0.0583165)
(-0.0354424 0.0388004 -0.0538805)
(0.00825065 0.0514357 -0.0383459)
(0.0540912 0.0471439 -0.0320348)
(0.0895091 0.0381017 -0.0242497)
(0.105725 0.027483 -0.0123292)
(0.102203 0.0139309 -0.00487924)
(0.0885618 0.00545097 0.00125947)
(0.0698761 -0.00257665 0.00387415)
(0.0504399 -0.0064722 0.00510554)
(0.0301051 -0.00573822 0.00596024)
(0.0160632 -0.00422193 0.00646692)
(0.00211489 -0.00270463 0.00427956)
(-0.00710188 0.00181666 -0.00405781)
(0.00864277 -0.0163941 -0.00384361)
(0.0237933 -0.0107647 -0.00161162)
(0.033926 -0.0074114 -0.000838124)
(0.0394926 -0.00264804 -0.00116261)
(0.0395338 -0.000556176 -0.00163827)
(0.038196 0.00346997 -0.00311714)
(0.0309318 0.0050351 -0.00288309)
(0.0239018 0.0106728 -0.00710002)
(0.00626419 0.0162631 -0.00426599)
(-0.0177681 0.0250042 -0.0081687)
(-0.0548059 0.0317853 0.00063708)
(-0.10228 0.0426377 -0.00400975)
(-0.154546 0.0624313 -0.00681608)
(-0.213167 0.0757517 -0.0112572)
(-0.271239 0.0847081 -0.0182006)
(-0.350341 0.0930057 -0.0436428)
(-0.455837 0.0951591 -0.0585906)
(-0.503129 0.101233 -0.0760769)
(-0.588901 0.100044 -0.098333)
(-0.542681 0.127247 -0.0965052)
(-0.407069 0.14229 -0.126068)
(-0.389733 0.187507 -0.136225)
(-0.373272 0.211927 -0.14599)
(-0.363335 0.236812 -0.157605)
(-0.324532 0.258279 -0.163808)
(-0.275586 0.279201 -0.165189)
(-0.203962 0.294746 -0.153594)
(-0.128082 0.300817 -0.133694)
(-0.0559382 0.305825 -0.109934)
(0.00874913 0.289539 -0.0763279)
(0.0724802 0.259196 -0.0468689)
(0.109675 0.210533 -0.0389246)
(0.12197 0.159474 -0.0264225)
(0.116849 0.108763 -0.0127999)
(0.0980391 0.0691175 -0.0053251)
(0.0785758 0.0405755 -0.000954486)
(0.0539235 0.025905 3.64607e-05)
(0.0322309 0.016098 0.00156669)
(0.00784909 0.00768125 0.00175049)
(-0.000589821 -0.00545452 0.00152242)
(0.0149112 -0.0224122 -0.00175597)
(0.0316718 -0.0172167 -0.00278405)
(0.0423346 -0.00511908 -0.00385196)
(0.0446809 0.00483359 -0.00560177)
(0.0423822 0.016104 -0.00699354)
(0.0350301 0.0313137 -0.00817385)
(0.0208379 0.0454974 -0.0097072)
(0.0049401 0.069535 -0.00191154)
(-0.0255053 0.0900952 -0.00492525)
(-0.0635203 0.117076 -0.00814082)
(-0.116566 0.149472 -0.0132978)
(-0.17158 0.183153 -0.0176777)
(-0.249925 0.211458 -0.032293)
(-0.346726 0.23117 -0.035453)
(-0.443191 0.244791 -0.0422783)
(-0.528347 0.249727 -0.0589112)
(-0.616401 0.269845 -0.0774327)
(-0.658414 0.299757 -0.095159)
(-0.728935 0.334092 -0.116102)
(-0.668824 0.372287 -0.106416)
(-0.506788 0.401536 -0.123789)
(-0.465888 0.458403 -0.125657)
(-0.438295 0.489493 -0.123461)
(-0.419305 0.521667 -0.126174)
(-0.376323 0.543371 -0.12463)
(-0.326872 0.557679 -0.120065)
(-0.260986 0.561067 -0.104989)
(-0.194499 0.551038 -0.0829677)
(-0.128994 0.531092 -0.0594054)
(-0.0732101 0.499959 -0.0400112)
(-0.0294145 0.452118 -0.0278151)
(0.00439303 0.37949 -0.0168409)
(0.0266684 0.306902 -0.00841131)
(0.039663 0.227273 -0.0109065)
(0.0460056 0.162515 -0.0109088)
(0.0463702 0.114849 -0.00722638)
(0.0376002 0.0777771 -0.00499209)
(0.0267609 0.0516737 -0.0012755)
(0.00779009 0.0251972 0.00148631)
(0.000513097 -0.00970781 0.0021167)
(0.0172144 -0.0236739 -0.0011442)
(0.0380681 -0.0108811 -0.00352823)
(0.0457511 0.00645299 -0.00667118)
(0.0438283 0.0303396 -0.00741122)
(0.0395887 0.0550402 -0.00914719)
(0.0267418 0.0903027 -0.00893702)
(0.00789697 0.122988 -0.00579448)
(-0.0192993 0.167665 -0.0105885)
(-0.0650956 0.207751 -0.0129914)
(-0.111097 0.251944 -0.0173019)
(-0.176046 0.288491 -0.0248281)
(-0.260739 0.317108 -0.0272406)
(-0.351715 0.333626 -0.0290025)
(-0.437928 0.354679 -0.0315562)
(-0.517253 0.378411 -0.0364972)
(-0.586501 0.408544 -0.0513696)
(-0.661374 0.437427 -0.0611085)
(-0.689345 0.47856 -0.0704649)
(-0.745588 0.523016 -0.0776202)
(-0.674572 0.556485 -0.0481862)
(-0.491694 0.576552 -0.0458642)
(-0.436477 0.61901 -0.040499)
(-0.409225 0.626195 -0.029486)
(-0.391411 0.639402 -0.02698)
(-0.357655 0.639927 -0.0219419)
(-0.319878 0.632507 -0.0184749)
(-0.270759 0.61391 -0.0109677)
(-0.221859 0.588334 0.000980904)
(-0.176417 0.555871 0.00820696)
(-0.145024 0.515377 0.0132549)
(-0.120005 0.471067 0.011901)
(-0.0963872 0.412759 0.00617717)
(-0.0742113 0.349636 -0.00192388)
(-0.0510775 0.269868 -0.0055666)
(-0.0213449 0.201931 -0.0104996)
(-0.00072557 0.146981 -0.0106537)
(0.00827524 0.110726 -0.00796264)
(0.0165117 0.0774924 -0.00346158)
(0.00617741 0.0373963 0.00118212)
(0.00102888 -0.00997958 0.000743777)
(0.0233544 -0.0129467 -0.00425981)
(0.0457248 0.0041048 -0.00757243)
(0.0543028 0.0388099 -0.0085324)
(0.0518002 0.0763365 -0.00802422)
(0.0458857 0.122235 -0.0153865)
(0.0272857 0.17717 -0.013007)
(-0.000520164 0.236703 -0.00632628)
(-0.0334639 0.29259 -0.00793357)
(-0.0869443 0.338964 -0.010038)
(-0.147953 0.375378 -0.012766)
(-0.226999 0.395086 -0.01543)
(-0.301483 0.417608 -0.0162616)
(-0.376327 0.442761 -0.0213928)
(-0.449083 0.472894 -0.0204626)
(-0.516728 0.505522 -0.0213633)
(-0.573037 0.533337 -0.0251862)
(-0.628818 0.569194 -0.0225334)
(-0.63724 0.614426 -0.0175716)
(-0.679047 0.660625 -0.0261074)
(-0.609278 0.688651 0.00362344)
(-0.420056 0.693756 0.0160561)
(-0.36043 0.707079 0.0271219)
(-0.342456 0.681223 0.0365329)
(-0.336632 0.664198 0.0370492)
(-0.32217 0.638099 0.0428479)
(-0.304506 0.606119 0.0441164)
(-0.273832 0.569504 0.0482011)
(-0.245547 0.528535 0.0414683)
(-0.220253 0.489069 0.0333987)
(-0.200028 0.444281 0.0233344)
(-0.190279 0.411272 0.0160337)
(-0.182176 0.374135 0.00836595)
(-0.176375 0.343365 -0.0036563)
(-0.153622 0.27847 -0.0135226)
(-0.104276 0.208893 -0.0144656)
(-0.0527984 0.160945 -0.0137622)
(-0.0172273 0.13047 -0.0116914)
(0.00266622 0.0961682 -0.00613144)
(0.00331828 0.0470244 0.00116193)
(0.00572645 -0.00481285 -0.000173972)
(0.028421 0.00202747 -0.00652539)
(0.0600559 0.0286216 -0.00622636)
(0.0721649 0.0808625 -0.00994216)
(0.0664223 0.138822 -0.0148662)
(0.0626564 0.202624 -0.0185976)
(0.0458486 0.278178 -0.0138695)
(0.010978 0.330851 -0.00486788)
(-0.042805 0.375479 -0.00548297)
(-0.113627 0.409185 -0.00753989)
(-0.182576 0.438825 -0.00964787)
(-0.247422 0.46659 -0.00983188)
(-0.306962 0.500302 -0.00806919)
(-0.365445 0.528089 -0.00509869)
(-0.41573 0.557912 0.000757219)
(-0.46802 0.586224 0.00616822)
(-0.500791 0.616272 0.00863458)
(-0.535544 0.64763 0.00852646)
(-0.538515 0.695065 0.0106718)
(-0.566996 0.729561 0.00929441)
(-0.500811 0.754293 0.0374097)
(-0.328623 0.705169 0.0520332)
(-0.285174 0.687453 0.06226)
(-0.28898 0.630746 0.0745085)
(-0.298031 0.589931 0.0769013)
(-0.302378 0.547358 0.076653)
(-0.300793 0.504533 0.0739812)
(-0.290325 0.462906 0.0677425)
(-0.275609 0.415831 0.0655238)
(-0.264346 0.377603 0.0445747)
(-0.254557 0.334264 0.033337)
(-0.243699 0.303665 0.018729)
(-0.229816 0.278107 0.00748768)
(-0.237622 0.266164 -0.00433074)
(-0.241378 0.24196 -0.0163307)
(-0.175391 0.193021 -0.0144724)
(-0.09339 0.16193 -0.0153527)
(-0.0408248 0.135839 -0.0120052)
(-0.00490906 0.104199 -0.0069339)
(0.00234957 0.0505315 0.00169258)
(0.0069938 0.000610157 -0.000467555)
(0.0381279 0.0148477 -0.0101514)
(0.0808961 0.0554621 -0.010192)
(0.105335 0.110602 -0.0122338)
(0.100359 0.175877 -0.0168376)
(0.0976378 0.2497 -0.0194444)
(0.0570649 0.315155 -0.0122363)
(-0.00753578 0.344652 0.00168924)
(-0.057757 0.388295 -0.00328894)
(-0.115118 0.427066 -0.00387853)
(-0.164149 0.472204 -0.00391418)
(-0.215367 0.514298 -0.00204795)
(-0.262151 0.553655 0.00130425)
(-0.309315 0.587073 0.00649343)
(-0.349331 0.619919 0.0143753)
(-0.384247 0.644716 0.0197861)
(-0.407419 0.672093 0.0258492)
(-0.4254 0.684109 0.0292003)
(-0.41546 0.709715 0.0269919)
(-0.43617 0.722756 0.0176247)
(-0.429862 0.742572 0.0337127)
(-0.291968 0.636565 0.0552121)
(-0.2347 0.587189 0.0594282)
(-0.255379 0.525092 0.0715146)
(-0.274729 0.482744 0.0718407)
(-0.295721 0.444373 0.0712373)
(-0.309972 0.409193 0.067377)
(-0.316057 0.374851 0.0602301)
(-0.314583 0.33811 0.0471418)
(-0.315239 0.303922 0.0314183)
(-0.312118 0.270988 0.0181784)
(-0.304038 0.243104 0.00566144)
(-0.290106 0.223265 -0.00296552)
(-0.286119 0.207778 -0.0101309)
(-0.289445 0.218524 -0.0190155)
(-0.227445 0.193426 -0.0210711)
(-0.127984 0.167458 -0.0220945)
(-0.0562378 0.14686 -0.0170373)
(-0.0101043 0.113167 -0.0108975)
(0.00229679 0.0553956 -6.66258e-05)
(0.00723836 0.00721793 -0.00362706)
(0.0454096 0.0337257 -0.0137565)
(0.0994684 0.0828854 -0.0138449)
(0.125173 0.138871 -0.0114491)
(0.128389 0.197922 -0.0123759)
(0.116073 0.271003 -0.0131238)
(0.055103 0.302278 -0.00266154)
(0.00476625 0.35104 0.00473831)
(-0.0279964 0.397496 0.000663583)
(-0.0783252 0.451142 0.00216466)
(-0.120942 0.495589 0.00286788)
(-0.164141 0.533166 0.00929261)
(-0.200536 0.566819 0.0151556)
(-0.232235 0.59386 0.0232302)
(-0.259712 0.619762 0.0276734)
(-0.288702 0.635018 0.031876)
(-0.307225 0.646728 0.0346883)
(-0.325545 0.645517 0.0339435)
(-0.323451 0.640834 0.0311724)
(-0.337303 0.617164 0.0152386)
(-0.379436 0.622245 0.0165788)
(-0.294773 0.542357 0.0357579)
(-0.223052 0.459841 0.0384831)
(-0.243788 0.418612 0.0497394)
(-0.270588 0.382951 0.0532919)
(-0.301616 0.357915 0.0545879)
(-0.326007 0.332153 0.0555396)
(-0.343373 0.306358 0.0482123)
(-0.353158 0.278637 0.0388032)
(-0.360671 0.24865 0.016693)
(-0.36192 0.217181 0.00805835)
(-0.352231 0.192606 -0.00125116)
(-0.337521 0.179844 -0.008875)
(-0.320332 0.17071 -0.0128274)
(-0.327671 0.192385 -0.0222866)
(-0.277397 0.196786 -0.0210555)
(-0.162051 0.172886 -0.0227458)
(-0.0747415 0.156148 -0.0177207)
(-0.0152353 0.120498 -0.0105217)
(0.00333926 0.0592517 0.000738133)
(0.0059979 0.0197489 -0.00625871)
(0.0537585 0.0647608 -0.0178986)
(0.119753 0.121221 -0.0194307)
(0.151765 0.176974 -0.0135501)
(0.159912 0.238364 -0.01421)
(0.129756 0.290478 -0.0129012)
(0.0732621 0.325061 -0.00333871)
(0.0338371 0.382869 0.00434967)
(0.00602826 0.420559 0.0104986)
(-0.0287906 0.461279 0.0102628)
(-0.0686516 0.499159 0.0144982)
(-0.100525 0.526477 0.0199745)
(-0.126897 0.549474 0.0273165)
(-0.152192 0.562846 0.0337215)
(-0.175767 0.567676 0.0360027)
(-0.201611 0.564426 0.0365072)
(-0.223946 0.558387 0.0351973)
(-0.250846 0.542257 0.0304677)
(-0.271744 0.528264 0.0244424)
(-0.28773 0.494424 0.0101593)
(-0.339665 0.484097 -0.0003894)
(-0.31804 0.454827 0.0105591)
(-0.243738 0.355889 0.0199614)
(-0.242714 0.337782 0.0260007)
(-0.274659 0.312541 0.033808)
(-0.309729 0.297869 0.0379936)
(-0.343453 0.28007 0.0432375)
(-0.368268 0.258464 0.0390824)
(-0.388206 0.235095 0.0238264)
(-0.405291 0.202274 0.00822844)
(-0.407451 0.177648 -0.00163185)
(-0.39446 0.154651 -0.0071502)
(-0.379118 0.141371 -0.0126216)
(-0.351378 0.142245 -0.0211273)
(-0.341183 0.155462 -0.0249752)
(-0.307167 0.191752 -0.0294061)
(-0.197628 0.175576 -0.0266286)
(-0.0899866 0.16561 -0.0248085)
(-0.0202357 0.130581 -0.0138215)
(0.0042539 0.0655155 -0.00145629)
(0.00768145 0.0358203 -0.00899479)
(0.0627999 0.103014 -0.0255305)
(0.138294 0.163625 -0.0245617)
(0.177085 0.217497 -0.0148852)
(0.179704 0.271711 -0.0155181)
(0.14834 0.304827 -0.014318)
(0.105136 0.351349 -0.00433592)
(0.0724289 0.39823 0.00751072)
(0.0417845 0.436255 0.0145444)
(0.0172808 0.462874 0.0253046)
(-0.00959278 0.486023 0.0222408)
(-0.0407388 0.49917 0.0327076)
(-0.0639316 0.507962 0.0378543)
(-0.0874725 0.49898 0.0435454)
(-0.110834 0.484187 0.043821)
(-0.137903 0.461109 0.0406774)
(-0.165618 0.438234 0.0353153)
(-0.196842 0.412565 0.0275763)
(-0.228461 0.395765 0.0188311)
(-0.259142 0.37674 0.00458149)
(-0.312118 0.360953 -0.00842994)
(-0.34219 0.360462 -0.00719675)
(-0.275736 0.292742 0.00897091)
(-0.240709 0.282883 0.0113732)
(-0.275743 0.26515 0.0221442)
(-0.311107 0.257431 0.0292647)
(-0.350791 0.2387 0.0386135)
(-0.382983 0.222474 0.0324413)
(-0.411587 0.192983 0.0245394)
(-0.426722 0.166675 0.00916442)
(-0.432163 0.138853 0.0103501)
(-0.426931 0.117088 0.0168621)
(-0.407094 0.0977857 0.0134465)
(-0.381755 0.0995553 0.00860666)
(-0.361792 0.113039 -0.0140184)
(-0.330169 0.161505 -0.0250859)
(-0.228034 0.172785 -0.0254255)
(-0.107787 0.165658 -0.0216106)
(-0.0261058 0.138321 -0.0129133)
(0.00525673 0.0698502 -0.000271093)
(0.00880267 0.0586829 -0.0115759)
(0.0715462 0.146366 -0.0318091)
(0.156163 0.210572 -0.0310673)
(0.200755 0.25979 -0.0186422)
(0.199043 0.298285 -0.0117298)
(0.173197 0.331593 -0.0144402)
(0.144576 0.372126 -0.00380551)
(0.113533 0.40947 0.00389776)
(0.0880857 0.438135 0.0121835)
(0.0599905 0.459393 0.0280047)
(0.0314426 0.464833 0.0365311)
(0.0140908 0.465649 0.0467311)
(-0.00954685 0.453359 0.0469665)
(-0.0395754 0.431888 0.0498315)
(-0.0664208 0.403625 0.0483409)
(-0.0981046 0.371524 0.0421609)
(-0.13074 0.342102 0.0337857)
(-0.166596 0.315106 0.024568)
(-0.201746 0.298926 0.0157218)
(-0.240182 0.285065 0.00269604)
(-0.291039 0.275209 -0.00765672)
(-0.336466 0.278867 -0.0117735)
(-0.280887 0.259719 0.00176317)
(-0.234666 0.246172 0.00267254)
(-0.264191 0.23385 0.0150465)
(-0.30253 0.22221 0.0235447)
(-0.347548 0.207392 0.0327674)
(-0.384167 0.185177 0.0305569)
(-0.416606 0.159757 0.0199396)
(-0.439729 0.130284 0.0297022)
(-0.45373 0.0958406 0.0311879)
(-0.455108 0.0676747 0.0175683)
(-0.440859 0.0530096 0.0125891)
(-0.406914 0.050018 0.00412114)
(-0.369156 0.0647877 -0.00115878)
(-0.33815 0.112329 -0.0232618)
(-0.252214 0.152271 -0.028723)
(-0.124984 0.162209 -0.0237703)
(-0.0291293 0.142539 -0.0150975)
(0.00461562 0.0747256 -0.00193158)
(0.00975363 0.0773897 -0.0122836)
(0.0775227 0.186374 -0.0357745)
(0.169728 0.253465 -0.0342881)
(0.214192 0.291512 -0.0179438)
(0.217978 0.319743 -0.0101781)
(0.202444 0.351979 -0.00755557)
(0.179229 0.383663 -0.00623832)
(0.152663 0.408186 0.00694633)
(0.125919 0.428499 0.0123192)
(0.101625 0.437284 0.02413)
(0.0785308 0.440714 0.0360654)
(0.0498064 0.429951 0.0512162)
(0.0243693 0.404301 0.0553704)
(-0.000470749 0.370095 0.054809)
(-0.032638 0.338344 0.0486663)
(-0.0676516 0.305132 0.0397988)
(-0.104756 0.278754 0.0288524)
(-0.141278 0.256311 0.0194402)
(-0.180012 0.247429 0.0102893)
(-0.223337 0.236017 0.000415303)
(-0.270422 0.232344 -0.00749693)
(-0.313376 0.233248 -0.0118733)
(-0.265432 0.236272 -0.00108413)
(-0.217475 0.220255 -0.00206611)
(-0.244526 0.204979 0.0101044)
(-0.280263 0.189427 0.01934)
(-0.328151 0.172792 0.027265)
(-0.368364 0.15021 0.0218205)
(-0.405135 0.123179 0.0379987)
(-0.437795 0.0885484 0.0450118)
(-0.459482 0.0551873 0.0388919)
(-0.460915 0.0294552 0.0498123)
(-0.453526 0.00668926 0.0389189)
(-0.435475 0.00308007 0.0344487)
(-0.397661 0.0124116 0.024684)
(-0.353929 0.0590719 0.00354067)
(-0.265205 0.114086 -0.0254501)
(-0.139078 0.149974 -0.0253135)
(-0.0352227 0.140986 -0.0145858)
(0.00573862 0.0777022 -0.0019011)
(0.0104309 0.099 -0.0114305)
(0.082317 0.227545 -0.0381977)
(0.175316 0.295349 -0.0372524)
(0.225364 0.324356 -0.0188135)
(0.240064 0.346677 -0.0059675)
(0.232188 0.37027 -0.000190592)
(0.211249 0.392353 0.00416902)
(0.18678 0.406913 0.0050595)
(0.165483 0.416485 0.0154913)
(0.142045 0.418474 0.0259032)
(0.115038 0.409158 0.0353288)
(0.0880852 0.390184 0.0423378)
(0.0546144 0.362041 0.0552424)
(0.023119 0.325355 0.05523)
(-0.00598032 0.285581 0.0475845)
(-0.0432526 0.258879 0.0349435)
(-0.0822695 0.23483 0.0229393)
(-0.117824 0.218763 0.0144771)
(-0.157222 0.212645 0.0055389)
(-0.200975 0.204771 -0.000280841)
(-0.242585 0.205495 -0.00680423)
(-0.27644 0.20312 -0.00970692)
(-0.232927 0.225859 -0.00219012)
(-0.194307 0.202042 -0.00413619)
(-0.215259 0.178606 0.00635442)
(-0.250021 0.157134 0.0146993)
(-0.296087 0.133839 0.0195353)
(-0.3389 0.111915 0.0326131)
(-0.383547 0.0795576 0.0447483)
(-0.421345 0.0479066 0.0465004)
(-0.444311 0.0158476 0.0662441)
(-0.469499 -0.0214612 0.0469047)
(-0.476157 -0.0616305 0.0345833)
(-0.458937 -0.0821165 0.0126548)
(-0.417854 -0.0696335 0.00411569)
(-0.372181 -0.0217328 0.00787575)
(-0.286256 0.0631558 -0.00252951)
(-0.153685 0.119956 -0.03125)
(-0.0401864 0.134452 -0.0145133)
(0.00584093 0.080381 -0.00344009)
(0.00984811 0.104739 -0.0105741)
(0.080806 0.250108 -0.0404852)
(0.175658 0.3211 -0.0411557)
(0.231384 0.347426 -0.0218946)
(0.256866 0.361434 -0.00355905)
(0.256417 0.373112 0.00607448)
(0.237666 0.384964 0.0123348)
(0.214997 0.393629 0.0157586)
(0.194598 0.39897 0.0189371)
(0.171843 0.393492 0.0230112)
(0.147716 0.378823 0.029322)
(0.115637 0.354851 0.0400277)
(0.0816225 0.322262 0.0418165)
(0.0443243 0.289727 0.0499388)
(0.0133889 0.252611 0.0456848)
(-0.0182242 0.223389 0.0283075)
(-0.0598565 0.20477 0.0174794)
(-0.0918528 0.191319 0.010205)
(-0.130582 0.185361 0.00251764)
(-0.169325 0.181336 -0.000260232)
(-0.20698 0.178578 -0.0054434)
(-0.219364 0.187268 -0.00370709)
(-0.185946 0.214369 -0.00168271)
(-0.17283 0.183912 -0.00209218)
(-0.18912 0.151956 0.00301442)
(-0.216912 0.120874 0.0105125)
(-0.257468 0.0977813 0.0156111)
(-0.299992 0.0689268 0.0333872)
(-0.345037 0.0417927 0.0407537)
(-0.382804 0.012036 0.0620242)
(-0.43101 -0.0294878 0.0459062)
(-0.47254 -0.0824994 0.038257)
(-0.489788 -0.126287 0.0239182)
(-0.47692 -0.158407 0.013033)
(-0.436033 -0.160711 -0.00737692)
(-0.375239 -0.120244 -0.00710831)
(-0.292272 -0.0184926 -0.00113762)
(-0.171861 0.0780605 -0.0171403)
(-0.0444127 0.119496 -0.020324)
(0.00706658 0.0800277 -0.00226544)
(0.00871813 0.115692 -0.00852059)
(0.0796939 0.275406 -0.0398222)
(0.175421 0.351143 -0.0425161)
(0.237582 0.37481 -0.0227874)
(0.270079 0.381087 -0.00237476)
(0.275291 0.379959 0.0116475)
(0.263552 0.382677 0.0213323)
(0.246406 0.385308 0.0240686)
(0.227365 0.383846 0.026854)
(0.203243 0.372872 0.0288906)
(0.176054 0.353933 0.0307352)
(0.144232 0.324357 0.0290714)
(0.107019 0.293106 0.0307852)
(0.0678469 0.25642 0.03286)
(0.0307276 0.229458 0.03449)
(-0.000859315 0.195935 0.0222379)
(-0.0345701 0.179749 0.0116554)
(-0.0661967 0.169986 0.00670442)
(-0.0983962 0.160575 0.00076662)
(-0.135352 0.155378 -0.000809557)
(-0.156821 0.15704 -0.00115797)
(-0.153678 0.1807 0.00263894)
(-0.142084 0.185039 0.00030505)
(-0.153495 0.156564 -0.000450892)
(-0.166744 0.124835 0.00233041)
(-0.183766 0.088955 0.00643381)
(-0.217682 0.0621282 0.0194138)
(-0.255382 0.0330172 0.0285776)
(-0.294082 0.00636902 0.0475044)
(-0.347745 -0.0324541 0.0407935)
(-0.404536 -0.0846403 0.0384844)
(-0.452952 -0.135851 0.0285388)
(-0.483086 -0.187395 0.0179649)
(-0.486395 -0.227843 0.00248461)
(-0.452402 -0.24656 -0.0127594)
(-0.386487 -0.215639 -0.0211847)
(-0.296232 -0.126151 -0.0186174)
(-0.180379 0.0190633 0.00101294)
(-0.0540807 0.0980072 -0.0268473)
(0.00608352 0.0824946 -0.00357441)
(0.00636572 0.0951486 -0.00857637)
(0.07349 0.268533 -0.0397933)
(0.169431 0.350239 -0.0416931)
(0.236163 0.374324 -0.0222583)
(0.275802 0.375216 0.00112702)
(0.289745 0.369844 0.015194)
(0.285318 0.368358 0.0212406)
(0.268698 0.363146 0.0249104)
(0.248499 0.355016 0.0273908)
(0.225167 0.341973 0.0283514)
(0.198123 0.321262 0.028109)
(0.164607 0.295594 0.0248107)
(0.126436 0.263164 0.0204961)
(0.0883775 0.232307 0.0144284)
(0.0505676 0.205329 0.0190665)
(0.0183721 0.183029 0.0124959)
(-0.00759165 0.163167 0.0066907)
(-0.0365007 0.151024 0.00156454)
(-0.069063 0.140442 -0.000984595)
(-0.0912106 0.140593 0.000603272)
(-0.0939229 0.152766 0.00382255)
(-0.0986806 0.160381 0.00447763)
(-0.111231 0.14929 0.00310625)
(-0.128712 0.125231 0.00225523)
(-0.145457 0.102416 0.00289574)
(-0.159346 0.0642147 0.00536378)
(-0.182466 0.0343547 0.0160691)
(-0.212967 0.00571581 0.0313006)
(-0.256478 -0.0285118 0.0309092)
(-0.311136 -0.0738577 0.0338988)
(-0.366926 -0.121808 0.030278)
(-0.419682 -0.178252 0.0259676)
(-0.458012 -0.236778 0.0159566)
(-0.474307 -0.291531 0.00250403)
(-0.452877 -0.324015 -0.0147799)
(-0.394116 -0.313362 -0.0277208)
(-0.290295 -0.233882 -0.0313294)
(-0.179657 -0.0810713 -0.0194092)
(-0.0593229 0.0527268 -0.0194723)
(0.00792414 0.0708632 -0.00827522)
(0.00658712 0.105418 -0.00406261)
(0.0719068 0.285211 -0.034534)
(0.16668 0.370774 -0.039458)
(0.239782 0.392616 -0.0186848)
(0.288955 0.388033 0.005928)
(0.312682 0.3741 0.0150945)
(0.311503 0.364142 0.0226895)
(0.29583 0.352745 0.0244058)
(0.278052 0.342167 0.0233697)
(0.25407 0.324316 0.0208051)
(0.227205 0.300243 0.0179134)
(0.192726 0.270529 0.0132764)
(0.152252 0.239827 0.0091445)
(0.112979 0.209351 0.00573534)
(0.0750382 0.18583 0.00438503)
(0.041714 0.167782 0.00235422)
(0.0125236 0.155711 -0.000276389)
(-0.0104646 0.143366 -0.00108588)
(-0.0275759 0.141172 -0.000855492)
(-0.0379385 0.143653 0.0015846)
(-0.0481321 0.143838 0.00407313)
(-0.0649581 0.130961 0.00619308)
(-0.0823077 0.116374 0.00554087)
(-0.102026 0.0969141 0.00462149)
(-0.124478 0.0769654 0.0070952)
(-0.140561 0.0488271 0.00558631)
(-0.154381 0.0132343 0.0125125)
(-0.183535 -0.0197562 0.0146674)
(-0.224086 -0.0612204 0.0197281)
(-0.273428 -0.103248 0.0212357)
(-0.32817 -0.15156 0.0227582)
(-0.381668 -0.208184 0.0205622)
(-0.424683 -0.270026 0.0149425)
(-0.450087 -0.335392 0.00310485)
(-0.441298 -0.384528 -0.0133071)
(-0.392935 -0.396701 -0.0303676)
(-0.300267 -0.332569 -0.0442333)
(-0.18514 -0.1823 -0.0330911)
(-0.0584769 0.0103678 -0.00876161)
(0.00662767 0.0714784 -0.0119375)
(-0.00366406 0.0773536 -0.0153278)
(0.0508028 0.26586 -0.0405492)
(0.147137 0.361676 -0.0463745)
(0.227689 0.385593 -0.0266357)
(0.286472 0.38273 -0.00531178)
(0.321148 0.361967 0.0077788)
(0.330656 0.344797 0.0140267)
(0.317922 0.326209 0.0147082)
(0.29716 0.312858 0.0136793)
(0.269689 0.301069 0.0102597)
(0.240372 0.286631 0.00752923)
(0.206682 0.266572 0.00431041)
(0.16841 0.244328 0.00193731)
(0.132446 0.222153 0.000240708)
(0.0994717 0.202015 0.00169594)
(0.0721524 0.191385 -0.000143564)
(0.048443 0.183044 -0.00556455)
(0.0295446 0.170996 -0.00273824)
(0.0136644 0.162789 -0.00244128)
(-0.00389904 0.149807 0.00169007)
(-0.0204029 0.128973 0.00471009)
(-0.0390669 0.10999 0.00695514)
(-0.0577036 0.0911417 0.00625115)
(-0.0787325 0.0734653 0.00635367)
(-0.100594 0.0547994 0.00275391)
(-0.123779 0.0354798 0.00263755)
(-0.14188 0.00380641 0.00191351)
(-0.165376 -0.0319616 0.004071)
(-0.200502 -0.0688004 0.0075024)
(-0.241572 -0.113192 0.0118039)
(-0.288733 -0.164659 0.0143255)
(-0.337408 -0.229803 0.0143033)
(-0.381782 -0.302715 0.0100057)
(-0.413745 -0.381734 0.000611004)
(-0.415943 -0.446089 -0.013854)
(-0.377016 -0.476568 -0.0314306)
(-0.286762 -0.435038 -0.0545699)
(-0.17416 -0.305141 -0.0522708)
(-0.0505136 -0.0794198 -0.018336)
(0.0076639 0.0447203 -0.00524271)
(-0.00433341 0.156226 -0.00605275)
(0.0469366 0.362079 -0.0209211)
(0.13678 0.461397 -0.0317227)
(0.220132 0.483435 -0.0120628)
(0.286946 0.471868 -0.00475316)
(0.328305 0.440531 0.0122385)
(0.344436 0.405189 0.015855)
(0.339051 0.390386 0.0180656)
(0.332616 0.393052 0.0141446)
(0.31311 0.391451 0.00946689)
(0.283892 0.380397 0.00378044)
(0.246485 0.357668 -0.000119609)
(0.205507 0.326719 -0.00314326)
(0.164937 0.295571 -0.00371969)
(0.132441 0.264778 -0.00316653)
(0.106125 0.238748 0.000356189)
(0.0732082 0.21467 -0.00631765)
(0.0497526 0.194328 -0.00803936)
(0.0326854 0.166161 -0.00576693)
(0.0100953 0.142981 -0.00325871)
(-0.00669406 0.119588 0.00303419)
(-0.0223428 0.0936102 0.00545298)
(-0.0387121 0.074538 0.00632349)
(-0.0575065 0.0539961 0.00786186)
(-0.0789154 0.0349071 0.000687314)
(-0.102715 0.0160393 0.00285813)
(-0.124452 -0.00288102 0.00182421)
(-0.146241 -0.0345499 -0.00332234)
(-0.178442 -0.0739799 -0.00623785)
(-0.220444 -0.119154 -0.00545583)
(-0.268526 -0.164462 -0.00138686)
(-0.316381 -0.219998 0.0034379)
(-0.357927 -0.2862 0.00662445)
(-0.387056 -0.370226 0.00164919)
(-0.391065 -0.452639 -0.0130223)
(-0.365663 -0.52015 -0.0387635)
(-0.302802 -0.516885 -0.0682947)
(-0.190992 -0.391209 -0.0624947)
(-0.0505799 -0.165673 -0.038169)
(0.00981968 0.0289184 -0.00507917)
(-0.0182692 0.240502 -0.0234326)
(0.018426 0.481345 -0.0435661)
(0.108045 0.591292 -0.0519771)
(0.193205 0.631153 -0.0377706)
(0.264943 0.622628 -0.0268596)
(0.313217 0.59362 -0.0104919)
(0.353818 0.550109 -0.000247855)
(0.382848 0.523797 0.000137149)
(0.378035 0.508877 -0.00547703)
(0.341031 0.485126 -0.00924161)
(0.295306 0.453518 -0.0106832)
(0.245415 0.413929 -0.0114953)
(0.20023 0.368678 -0.0109622)
(0.162824 0.324029 -0.00957097)
(0.130826 0.281829 -0.00743966)
(0.105592 0.242493 -0.00388864)
(0.0853931 0.20723 0.000110486)
(0.0612995 0.180601 -0.00480255)
(0.0411958 0.15443 -0.00491779)
(0.0273973 0.126914 -0.00318561)
(0.00642791 0.104976 -0.000561847)
(-0.00939805 0.0820564 0.00421926)
(-0.0233363 0.0581151 0.00527043)
(-0.0440221 0.0376762 0.00496551)
(-0.0619265 0.0178424 0.00386464)
(-0.0804105 -0.000148575 0.00775413)
(-0.10403 -0.0156906 0.0064857)
(-0.136606 -0.03729 0.00414122)
(-0.16859 -0.0667814 0.00284963)
(-0.192624 -0.109142 -0.000317968)
(-0.221418 -0.160353 -0.00576567)
(-0.256137 -0.233393 -0.0128808)
(-0.297794 -0.320044 -0.0193453)
(-0.337758 -0.433725 -0.0255672)
(-0.36444 -0.540442 -0.0332577)
(-0.360574 -0.641683 -0.0512015)
(-0.290319 -0.669341 -0.0743253)
(-0.205019 -0.560396 -0.0868343)
(-0.076854 -0.276976 -0.0519382)
(0.0125734 0.0021643 -0.00634481)
(0.000239168 0.208831 0.00161856)
(0.0382015 0.452009 -0.0354037)
(0.111924 0.577221 -0.0478015)
(0.196313 0.633498 -0.0435383)
(0.266761 0.637996 -0.0352952)
(0.316968 0.618306 -0.0240365)
(0.354823 0.582158 -0.0169227)
(0.379702 0.541103 -0.00796666)
(0.376327 0.49925 -0.00935788)
(0.341289 0.461604 -0.00847271)
(0.297989 0.423917 -0.00797774)
(0.249571 0.385252 -0.00637238)
(0.205037 0.344296 -0.00510705)
(0.167132 0.305327 -0.0035069)
(0.137935 0.265822 -0.00317566)
(0.115651 0.230184 -0.000896807)
(0.0924449 0.193961 -9.62877e-05)
(0.0760466 0.163007 0.00223521)
(0.0560149 0.141094 0.0012578)
(0.0351114 0.115786 -0.0022481)
(0.0208095 0.0937399 0.000290382)
(0.00147696 0.0714385 0.00163415)
(-0.0132896 0.0493925 0.00744156)
(-0.0277088 0.0275201 0.00628504)
(-0.0447107 0.0108468 0.00563308)
(-0.060619 -0.00769517 0.00868552)
(-0.07957 -0.024403 0.00929888)
(-0.105609 -0.0408854 0.00669678)
(-0.143893 -0.0528703 0.00343283)
(-0.185754 -0.0780503 0.00347536)
(-0.234498 -0.118143 0.00567518)
(-0.281452 -0.184115 0.00841443)
(-0.323359 -0.270396 0.00881281)
(-0.340023 -0.397117 0.00265852)
(-0.340331 -0.536373 -0.00824604)
(-0.330223 -0.679195 -0.0217187)
(-0.273452 -0.760606 -0.0430594)
(-0.164501 -0.736955 -0.0613649)
(-0.0410707 -0.458796 -0.0637445)
(0.0107357 -0.0927691 0.00583349)
(0.000257965 0.22508 -0.000847712)
(0.0369086 0.443589 -0.0309129)
(0.104643 0.566831 -0.0416611)
(0.182156 0.623304 -0.0394786)
(0.251127 0.629101 -0.0251043)
(0.303566 0.607409 -0.0186749)
(0.347113 0.569087 -0.00932438)
(0.375943 0.529414 -0.00292343)
(0.375046 0.48473 -0.00270418)
(0.34322 0.447879 -0.00184077)
(0.298077 0.409598 -0.00135441)
(0.248126 0.370201 -0.000402264)
(0.205495 0.331025 6.80543e-05)
(0.170707 0.293076 0.000425705)
(0.141443 0.25633 0.00081681)
(0.117898 0.218465 0.00203495)
(0.099939 0.182285 0.00322073)
(0.0872794 0.148183 0.00465673)
(0.0697007 0.121743 0.0045174)
(0.0528328 0.100525 0.00587959)
(0.0322686 0.0812855 0.0022003)
(0.0145843 0.0604988 0.00169801)
(0.00025126 0.0400972 0.00722214)
(-0.0148018 0.0219031 0.00693108)
(-0.0278382 0.00112389 0.00654495)
(-0.0433171 -0.0158648 0.0083618)
(-0.0595973 -0.0354354 0.00939028)
(-0.0790244 -0.0560557 0.00980373)
(-0.106793 -0.072696 0.00869985)
(-0.139416 -0.0907483 0.00661889)
(-0.180209 -0.108633 0.00661087)
(-0.222897 -0.143965 0.00663139)
(-0.283038 -0.192747 0.00829207)
(-0.336609 -0.280292 0.0111801)
(-0.365527 -0.397583 0.0102665)
(-0.37005 -0.552224 0.0061137)
(-0.32994 -0.669994 -0.00738312)
(-0.229105 -0.701285 -0.030019)
(-0.0597735 -0.491177 -0.044354)
(0.0259741 -0.0728255 -0.0228243)
(0.00680548 0.198665 -0.00111426)
(0.0450786 0.396858 -0.0251616)
(0.106151 0.528225 -0.0344959)
(0.180541 0.58984 -0.0337109)
(0.246979 0.606259 -0.0213853)
(0.298516 0.588496 -0.0137784)
(0.343859 0.552549 -0.00448313)
(0.370505 0.50931 0.00126893)
(0.370749 0.46013 0.00195753)
(0.342846 0.418377 0.00222866)
(0.297943 0.37794 0.00299091)
(0.25106 0.341074 0.00411554)
(0.210817 0.306137 0.00440176)
(0.177223 0.271505 0.00467936)
(0.148549 0.237308 0.00427959)
(0.126075 0.202819 0.00469823)
(0.104732 0.170515 0.005418)
(0.0951565 0.135551 0.00812676)
(0.0845075 0.108143 0.00845997)
(0.0671957 0.0850027 0.00766527)
(0.050354 0.0705191 0.00749394)
(0.0279872 0.0513163 0.00675668)
(0.014859 0.0336563 0.0049892)
(0.000307264 0.0160171 0.00506753)
(-0.014206 -0.00223488 0.0077933)
(-0.0265161 -0.0222661 0.00761083)