/*--------------------------------*- C++ -*----------------------------------*\
| =========                 |                                                 |
| \\      /  F ield         | OpenFOAM: The Open Source CFD Toolbox           |
|  \\    /   O peration     | Version:  v1806                                 |
|   \\  /    A nd           | Web:      www.OpenFOAM.com                      |
|    \\/     M anipulation  |                                                 |
\*---------------------------------------------------------------------------*/
FoamFile
{
    version     2.0;
    format      ascii;
    class       vectorField;
    location    "0.0665";
    object      currentcloudofpoints;
}
// * * * * * * * * * * * * * * * * * * * * * * * * * * * * * * * * * * * * * //


2409
(
(0.886989 1.3835 1.00092)
(0.688937 1.01509 1.00827)
(1.30137 1.33734 0.999324)
(0.962048 1.15002 0.83252)
(0.958728 1.14784 1.16256)
(1.11093 1.10573 1.00027)
(0.841638 1.56495 1.00023)
(0.60438 0.806291 0.997137)
(1.47311 1.48297 0.999611)
(1.06209 1.10937 0.638335)
(1.04305 1.10352 1.35176)
(1.27952 1.32497 1.07747)
(1.22388 1.2895 1.13317)
(1.14601 1.22693 1.16213)
(1.06257 1.16618 1.1763)
(1.29201 1.33347 1.04036)
(1.2533 1.30698 1.10708)
(1.18331 1.26089 1.14885)
(1.10485 1.1891 1.16872)
(1.01146 1.16163 1.16992)
(0.724096 1.03228 1.12647)
(0.777899 1.05216 1.18083)
(0.824103 1.06111 1.15377)
(0.878129 1.08441 1.13761)
(0.701058 1.02224 1.07088)
(0.749678 1.04818 1.15917)
(0.803933 1.05674 1.16868)
(0.847427 1.06603 1.13226)
(0.91387 1.11514 1.14613)
(1.27532 1.32577 0.919327)
(1.21834 1.29007 0.864563)
(1.14028 1.23035 0.839926)
(1.06009 1.16258 0.822615)
(1.29035 1.33239 0.957293)
(1.24778 1.30866 0.890394)
(1.1785 1.2619 0.850956)
(1.1001 1.19253 0.832955)
(1.01123 1.1541 0.823665)
(0.878336 1.08324 0.862585)
(0.825125 1.06096 0.851529)
(0.779044 1.0536 0.832552)
(0.720725 1.02172 0.890466)
(0.915114 1.11936 0.854045)
(0.848086 1.06349 0.868267)
(0.804655 1.05938 0.840472)
(0.748631 1.04099 0.859059)
(0.698158 1.02163 0.945632)
(0.922577 1.2297 1.14787)
(0.928103 1.32056 1.19874)
(0.897554 1.37103 1.15175)
(0.876792 1.38459 1.09469)
(0.932713 1.18492 1.13827)
(0.928308 1.27441 1.1801)
(0.913303 1.35249 1.17407)
(0.886093 1.37924 1.12349)
(0.883013 1.38191 1.04788)
(0.87676 1.38579 0.902599)
(0.891316 1.37456 0.834198)
(0.931784 1.32925 0.788193)
(0.919989 1.23061 0.852339)
(0.885774 1.38308 0.953531)
(0.881194 1.38165 0.866698)
(0.912065 1.35986 0.81127)
(0.932124 1.27911 0.809112)
(0.933158 1.18486 0.862151)
(0.676388 1.08594 1.01468)
(0.680155 1.13689 1.01538)
(0.708789 1.19079 1.00475)
(0.763835 1.28312 0.999187)
(0.683105 1.0587 1.01571)
(0.679871 1.11718 1.01427)
(0.6977 1.16433 1.01105)
(0.733279 1.23188 1.00006)
(0.819993 1.33803 1.00046)
(1.00198 1.43103 1.00813)
(1.0998 1.42981 1.00822)
(1.17508 1.40345 0.999768)
(1.24537 1.37338 1)
(0.948474 1.41306 1.0028)
(1.05493 1.43091 1.01093)
(1.13829 1.41762 1.00238)
(1.20586 1.38096 1.00012)
(1.27858 1.3636 0.999422)
(0.609814 0.834994 1.18582)
(0.68577 0.873681 1.28857)
(0.752172 0.915768 1.37318)
(0.817431 0.941559 1.40982)
(0.863622 0.964499 1.38974)
(0.919889 1.00909 1.36501)
(1.00091 1.04968 1.34088)
(0.600611 0.819937 1.1059)
(0.653014 0.840804 1.23691)
(0.717418 0.900238 1.33544)
(0.787571 0.929403 1.3953)
(0.84327 0.951551 1.40107)
(0.88714 0.984848 1.37577)
(0.965926 1.02826 1.33954)
(1.02911 1.07424 1.34069)
(1.11995 1.1743 1.38271)
(1.20031 1.20452 1.35992)
(1.25872 1.25015 1.32307)
(1.31812 1.29868 1.29051)
(1.38369 1.34799 1.24101)
(1.43472 1.4139 1.17467)
(1.46543 1.46611 1.09292)
(1.07027 1.14089 1.37218)
(1.16579 1.18956 1.37275)
(1.22901 1.2256 1.33814)
(1.28581 1.275 1.30452)
(1.3491 1.32044 1.26678)
(1.40984 1.37869 1.20798)
(1.45142 1.44033 1.13547)
(1.47028 1.47579 1.04682)
(0.618338 0.828681 0.812446)
(0.680939 0.878792 0.698831)
(0.756293 0.903831 0.623325)
(0.81215 0.940136 0.591022)
(0.866688 0.969 0.602612)
(0.919698 1.00897 0.634303)
(1.0024 1.05012 0.651163)
(0.607509 0.816127 0.901238)
(0.635789 0.86367 0.744477)
(0.726574 0.886413 0.658258)
(0.785894 0.922879 0.604643)
(0.841856 0.953557 0.596059)
(0.890207 0.987821 0.619603)
(0.964183 1.02758 0.653886)
(1.03685 1.07722 0.648562)
(1.46442 1.46593 0.907369)
(1.43534 1.41522 0.825193)
(1.38484 1.34897 0.759331)
(1.3202 1.29739 0.708809)
(1.25906 1.24796 0.675857)
(1.20032 1.20512 0.642329)
(1.13143 1.1697 0.623917)
(1.46919 1.47539 0.952745)
(1.45125 1.44096 0.864931)
(1.41077 1.38036 0.791817)
(1.35098 1.32005 0.73368)
(1.28734 1.27293 0.693559)
(1.22818 1.22459 0.662728)
(1.16729 1.1888 0.632184)
(1.09482 1.14233 0.629167)
(0.842291 1.56523 1.17494)
(0.832816 1.5386 1.26764)
(0.849229 1.47596 1.3343)
(0.904483 1.37674 1.40931)
(0.944006 1.29688 1.42086)
(0.96916 1.22514 1.41688)
(0.990457 1.16117 1.36766)
(0.844757 1.57475 1.1028)
(0.838775 1.5513 1.2299)
(0.838162 1.50943 1.30261)
(0.878383 1.42828 1.37526)
(0.92866 1.33036 1.42305)
(0.954075 1.26489 1.40887)
(0.974456 1.19284 1.40237)
(1.01978 1.13077 1.34748)
(0.83857 1.56282 0.827843)
(0.829846 1.53852 0.735767)
(0.854185 1.47304 0.65953)
(0.90604 1.37514 0.593996)
(0.947904 1.29974 0.574733)
(0.963377 1.23924 0.586155)
(0.993807 1.16752 0.619359)
(0.840385 1.56134 0.897503)
(0.833475 1.55306 0.776301)
(0.839522 1.50735 0.69387)
(0.882085 1.4262 0.627651)
(0.931977 1.33044 0.57411)
(0.955693 1.27258 0.587238)
(0.96704 1.20699 0.595625)
(1.02714 1.13548 0.632859)
(0.576663 0.896865 0.999886)
(0.563479 0.976449 1.00615)
(0.559095 1.07386 0.998436)
(0.56424 1.17034 0.994497)
(0.587784 1.26525 1.00129)
(0.638605 1.35197 0.998204)
(0.721452 1.45202 0.999375)
(0.588064 0.85562 0.997356)
(0.569553 0.936807 1.00373)
(0.559809 1.02348 1.00483)
(0.561675 1.12155 0.992201)
(0.572774 1.21884 1.00038)
(0.610275 1.30868 0.998616)
(0.676723 1.3966 0.999092)
(0.777318 1.5121 0.99966)
(0.952732 1.61639 0.998378)
(1.03215 1.63077 0.999725)
(1.10543 1.63383 1.00219)
(1.18837 1.62293 1.00169)
(1.26559 1.60968 1.00012)
(1.33295 1.58551 0.999298)
(1.40356 1.54096 0.999963)
(0.901856 1.5982 1.00007)
(0.995978 1.62371 0.998689)
(1.06992 1.63203 1.00112)
(1.14826 1.62663 1.00221)
(1.23103 1.61388 1.00096)
(1.30078 1.59464 0.999388)
(1.36748 1.56124 0.99966)
(1.44041 1.51203 0.999787)
(1.02657 1.10195 0.753826)
(1.06314 1.09716 0.680504)
(0.992503 1.13395 0.793018)
(1.02909 1.10196 1.2394)
(0.991206 1.13418 1.19515)
(1.05565 1.09458 1.31094)
(0.681411 0.84695 0.995012)
(0.688011 0.940433 0.994874)
(0.616594 0.830841 0.995279)
(1.38688 1.38684 0.999102)
(1.34343 1.36257 0.999468)
(1.43583 1.42145 0.999049)
(1.05807 1.55868 1.29039)
(1.08708 1.62865 1.19931)
(1.0988 1.3126 1.37936)
(1.26552 1.58048 1.18163)
(0.984276 1.63754 1.129)
(1.13138 1.24546 1.3942)
(1.39679 1.51526 1.14646)
(1.32405 1.52547 1.23921)
(0.992659 1.62334 1.22239)
(1.16455 1.58818 1.24424)
(1.17168 1.61677 1.14424)
(0.952362 1.52174 1.3325)
(1.21535 1.51005 1.29697)
(1.32956 1.56795 1.14427)
(1.12042 1.48838 1.3295)
(1.35987 1.56526 1.0702)
(1.19714 1.29839 1.39484)
(1.29944 1.59077 1.08365)
(0.914379 1.6077 1.19995)
(1.02969 1.22741 1.37064)
(1.01606 1.31485 1.39659)
(1.16792 1.40507 1.36425)
(1.36843 1.43229 1.24957)
(1.08206 1.63874 1.10881)
(0.903285 1.57416 1.27484)
(1.08408 1.3909 1.37204)
(1.32201 1.37139 1.30169)
(1.27529 1.44268 1.32276)
(0.919301 1.61922 1.11726)
(1.05698 1.18544 1.37645)
(1.42287 1.52303 1.06234)
(1.03655 1.45981 1.35878)
(0.975693 1.38982 1.40343)
(1.26278 1.34719 1.34928)
(1.13973 1.62767 1.06624)
(1.24323 1.60461 1.0895)
(1.11869 1.21166 1.39195)
(1.1684 1.23076 1.38885)
(1.03879 1.14268 1.36534)
(1.078 1.18197 1.38592)
(1.09401 1.21816 1.38343)
(1.20426 1.25176 1.37561)
(1.2339 1.27397 1.35305)
(1.16988 1.27135 1.39633)
(1.26203 1.29772 1.32858)
(1.29044 1.32183 1.31102)
(1.22993 1.3229 1.37125)
(1.31847 1.33377 1.29129)
(1.35056 1.35578 1.26457)
(1.2915 1.35982 1.32605)
(1.37646 1.38604 1.23942)
(1.3987 1.41991 1.20688)
(1.3468 1.39647 1.2754)
(1.4186 1.46298 1.1629)
(1.43091 1.48869 1.11815)
(1.38528 1.47408 1.20501)
(1.44651 1.49608 1.07788)
(1.45024 1.50306 1.03061)
(1.40896 1.51884 1.1042)
(1.41322 1.53179 1.03162)
(1.01666 1.63196 1.06659)
(0.974511 1.62927 1.07568)
(0.95392 1.63003 1.12635)
(0.940499 1.62053 1.06028)
(0.885446 1.59937 1.06952)
(1.0994 1.63083 1.05858)
(1.06243 1.63229 1.06326)
(1.03691 1.63743 1.12154)
(1.16645 1.62207 1.03582)
(1.12405 1.62986 1.03549)
(1.11293 1.63124 1.08831)
(1.25501 1.60473 1.04457)
(1.22021 1.61072 1.04774)
(1.1984 1.61009 1.08462)
(1.31575 1.58551 1.04153)
(1.28366 1.59643 1.04343)
(1.2727 1.59532 1.08773)
(1.38123 1.5512 1.03606)
(1.34586 1.57393 1.03487)
(1.32927 1.57647 1.07737)
(1.39049 1.54167 1.06825)
(1.02652 1.59246 1.26109)
(1.04069 1.62479 1.21363)
(1.07151 1.59898 1.25033)
(1.12394 1.60828 1.22452)
(1.10853 1.57478 1.27139)
(1.0409 1.63716 1.1681)
(1.08617 1.6362 1.1557)
(1.13082 1.62324 1.1717)
(1.16956 1.6053 1.19697)
(1.12687 1.62757 1.12597)
(1.12305 1.28086 1.38142)
(1.15301 1.31155 1.39029)
(1.08509 1.23936 1.36919)
(1.06534 1.27088 1.36859)
(1.13367 1.35955 1.37605)
(1.18066 1.35098 1.38312)
(1.04963 1.3101 1.37835)
(1.01676 1.26876 1.38199)
(1.08733 1.34815 1.37575)
(1.04834 1.35154 1.38225)
(1.12453 1.40027 1.36381)
(1.25625 1.5903 1.13989)
(1.28538 1.58198 1.13647)
(1.22267 1.59225 1.17091)
(1.21308 1.60453 1.12355)
(1.26873 1.51247 1.27286)
(1.24843 1.54616 1.2453)
(1.29656 1.55252 1.21217)
(1.29931 1.57107 1.16542)
(1.33121 1.54779 1.19429)
(1.31425 1.57845 1.11428)
(1.22208 1.57543 1.21877)
(1.1942 1.54559 1.2743)
(0.954968 1.61664 1.21449)
(0.950953 1.62717 1.16706)
(0.988165 1.6327 1.18154)
(0.917557 1.61419 1.16523)
(0.880516 1.58734 1.19383)
(0.875119 1.57329 1.23954)
(0.881184 1.5963 1.15056)
(0.868574 1.55706 1.27312)
(0.873373 1.52782 1.30743)
(0.908588 1.59056 1.24136)
(0.901549 1.50065 1.33551)
(0.924993 1.45031 1.37119)
(0.928037 1.55124 1.30651)
(0.960809 1.33626 1.41686)
(0.941656 1.38422 1.40733)
(0.962757 1.45726 1.37014)
(0.979808 1.30796 1.40715)
(0.987333 1.27031 1.39784)
(0.998876 1.35037 1.40308)
(0.991529 1.22288 1.39483)
(1.00912 1.19393 1.37111)
(1.0272 1.16971 1.36161)
(1.05059 1.20666 1.36337)
(1.01041 1.5382 1.31217)
(1.04734 1.50805 1.32385)
(0.99772 1.49032 1.34721)
(1.07778 1.47184 1.34139)
(1.09077 1.51913 1.30965)
(0.976534 1.57286 1.28694)
(1.14311 1.53865 1.29409)
(1.37903 1.54024 1.11061)
(1.00624 1.42594 1.38095)
(1.02878 1.38286 1.38616)
(1.06174 1.42197 1.36671)
(1.10154 1.44191 1.35243)
(1.15867 1.621 1.1076)
(1.36364 1.54083 1.15008)
(1.36334 1.5164 1.19865)
(1.34679 1.47794 1.25456)
(1.34465 1.56352 1.10878)
(1.29795 1.47951 1.28703)
(1.24124 1.47732 1.31189)
(1.32585 1.43282 1.29063)
(0.951996 1.59885 1.25278)
(1.1677 1.4996 1.31378)
(1.14206 1.44537 1.34711)
(1.18933 1.45694 1.33603)
(1.22058 1.42507 1.34678)
(1.21777 1.37852 1.36497)
(1.26962 1.39261 1.34139)
(1.30244 1.40555 1.31809)
(0.731918 1.19175 1.41562)
(0.609794 1.3056 1.26627)
(0.601245 1.09522 1.26657)
(0.621387 1.03298 1.27722)
(0.661629 1.33747 1.31977)
(0.833178 1.21121 1.42949)
(0.607308 0.929903 1.24507)
(0.761615 1.49558 1.23554)
(0.908567 1.10022 1.42009)
(0.646778 1.26172 1.33713)
(0.688658 1.08683 1.35555)
(0.661594 1.39898 1.2418)
(0.764055 1.27229 1.41163)
(0.849424 1.07112 1.41859)
(0.869482 1.28493 1.43201)
(0.783036 1.36082 1.38232)
(0.682343 0.991769 1.32056)
(0.939982 1.16823 1.42594)
(0.576089 0.991036 1.17939)
(0.576024 1.27409 1.16601)
(0.876362 1.16065 1.41261)
(0.743572 1.43262 1.30548)
(0.907886 1.23772 1.40879)
(0.56071 1.18512 1.15839)
(0.774422 1.07688 1.40447)
(0.758394 1.00771 1.38832)
(0.638555 1.177 1.33371)
(0.725584 1.13001 1.4042)
(0.81842 1.01546 1.41527)
(0.799857 1.14242 1.42114)
(0.578539 1.16523 1.23936)
(0.598686 1.2362 1.26646)
(0.580965 0.895473 1.14418)
(0.974155 1.10921 1.35012)
(0.556673 1.0861 1.13264)
(0.719428 1.45757 1.11909)
(0.624223 1.34576 1.10729)
(0.586946 0.972897 1.22157)
(0.593487 1.01577 1.23953)
(0.613539 0.98208 1.26097)
(0.585631 0.92207 1.20413)
(0.577935 0.946007 1.16438)
(0.650422 1.01209 1.29403)
(0.647431 0.957358 1.27914)
(0.604834 0.882142 1.21797)
(0.647068 0.894883 1.26058)
(0.588712 0.873395 1.16778)
(0.679587 0.934672 1.30319)
(0.917194 1.04937 1.38624)
(0.959983 1.0656 1.35132)
(0.859512 1.01847 1.41325)
(0.882119 1.03533 1.4144)
(0.878011 1.085 1.42187)
(0.995618 1.07737 1.33562)
(1.01632 1.10294 1.33589)
(0.933527 1.10111 1.38173)
(0.631907 1.35041 1.25585)
(0.665274 1.36759 1.28919)
(0.638064 1.32239 1.29822)
(0.707641 1.41672 1.28255)
(0.704962 1.38077 1.31981)
(0.713549 1.3058 1.37052)
(0.724356 1.3486 1.35667)
(0.776631 1.31174 1.40026)
(0.655173 1.29729 1.33169)
(0.704458 1.26927 1.37792)
(0.758883 1.39888 1.3444)
(0.632835 1.28429 1.3084)
(0.613457 1.06526 1.27385)
(0.587479 1.04296 1.22826)
(0.567744 1.03207 1.15528)
(0.573747 1.08751 1.20755)
(0.5643 0.965281 1.10074)
(0.572111 0.926995 1.10159)
(0.579649 0.881274 1.07448)
(0.553062 1.02096 1.07816)
(0.712547 1.4468 1.245)
(0.752683 1.464 1.27591)
(0.68776 1.43593 1.19432)
(0.741367 1.4849 1.18844)
(0.60903 1.33146 1.20766)
(0.637653 1.37811 1.18899)
(0.666407 1.39932 1.11514)
(0.824484 1.27489 1.42644)
(0.834043 1.3166 1.41599)
(0.851306 1.24856 1.42512)
(0.806361 1.23544 1.43089)
(0.751671 1.23011 1.41624)
(0.789386 1.19858 1.4302)
(0.690303 1.22697 1.3807)
(0.846174 0.989678 1.41316)
(0.834664 1.04287 1.41329)
(0.859059 1.11723 1.41049)
(0.892585 1.13014 1.4176)
(0.824935 1.11128 1.40884)
(0.838327 1.15414 1.41267)
(0.814693 1.07525 1.40601)
(0.795674 1.04802 1.40386)
(0.785525 1.11079 1.41019)
(0.887906 1.32547 1.42381)
(0.852377 1.36627 1.40097)
(0.908336 1.29426 1.42384)
(0.923021 1.26954 1.41072)
(0.889289 1.2648 1.41524)
(0.870207 1.22915 1.40947)
(0.820752 1.41357 1.36468)
(0.800444 1.45183 1.3248)
(0.955434 1.16349 1.40024)
(0.955321 1.19593 1.42238)
(0.926633 1.19938 1.41375)
(0.939156 1.23146 1.41237)
(0.979429 1.13605 1.35692)
(0.939715 1.14032 1.39781)
(0.920214 1.1356 1.41837)
(0.908285 1.16237 1.41415)
(0.892015 1.19944 1.40391)
(0.6443 1.09809 1.31395)
(0.654305 1.06669 1.31329)
(0.62401 1.14198 1.30281)
(0.665249 1.1338 1.34911)
(0.566064 1.12568 1.19068)
(0.587877 1.12881 1.25173)
(0.612959 1.17619 1.29171)
(0.688614 1.04314 1.33707)
(0.79946 1.51607 1.25602)
(0.801714 1.52922 1.20712)
(0.781107 1.5163 1.15343)
(0.775399 1.51102 1.0681)
(0.789154 1.48222 1.29006)
(0.81586 1.1784 1.42317)
(0.773388 1.16455 1.42487)
(0.68102 1.1873 1.37746)
(0.647565 1.21701 1.3406)
(0.72965 1.16078 1.41113)
(0.679288 1.15686 1.37297)
(0.765107 1.13464 1.41621)
(0.591389 0.841404 1.07462)
(0.548402 1.07603 1.07049)
(0.550109 1.12766 1.06691)
(0.583537 1.26744 1.08361)
(0.565795 1.22157 1.08874)
(0.555585 1.17583 1.08051)
(0.558607 1.1373 1.14542)
(0.566323 1.22943 1.1651)
(0.634892 1.3432 1.04814)
(0.606819 1.30097 1.05008)
(0.596697 1.31163 1.14025)
(0.719834 1.44772 1.05929)
(0.675592 1.39301 1.05434)
(0.716821 0.955946 1.34781)
(0.792395 0.97513 1.40351)
(0.757794 0.963503 1.38174)
(0.721078 1.0032 1.35767)
(0.820944 0.978542 1.41437)
(0.79041 1.01115 1.40227)
(0.854218 1.1912 1.4118)
(0.723131 1.04861 1.36956)
(0.605697 1.27057 1.26925)
(0.629564 1.25069 1.30929)
(0.623553 1.20611 1.30494)
(0.766745 1.04326 1.39384)
(0.733405 1.08011 1.38676)
(0.70833 1.10948 1.38154)
(0.752502 1.1037 1.40499)
(0.582878 1.25678 1.22236)
(0.592328 1.29309 1.22373)
(0.568064 1.17505 1.20434)
(0.575643 1.21302 1.22046)
(0.589892 1.20189 1.25483)
(0.684974 1.12909 0.633487)
(0.71176 1.2875 0.633337)
(0.649707 1.09512 0.670089)
(0.608699 1.05017 0.726844)
(0.632519 1.35339 0.756457)
(0.851977 1.18207 0.577747)
(0.713735 1.44242 0.756282)
(0.916907 1.18267 0.572751)
(0.638916 1.1668 0.670312)
(0.620801 1.29487 0.694054)
(0.795903 1.06275 0.596242)
(0.793818 1.35739 0.620018)
(0.794447 1.215 0.570196)
(0.669763 1.20993 0.64123)
(0.801299 1.14877 0.584773)
(0.674936 1.37102 0.687259)
(0.890359 1.24319 0.569487)
(0.67211 0.987847 0.679531)
(0.90518 1.09743 0.584023)
(0.601838 0.947328 0.755434)
(0.555473 1.05793 0.886511)
(0.582866 1.26731 0.818671)
(0.552336 1.15823 0.846216)
(0.575116 0.976215 0.84576)
(0.759532 1.43877 0.682898)
(0.590356 1.21362 0.720296)
(0.727821 1.03517 0.62324)
(0.576161 1.11182 0.761113)
(0.856895 1.2851 0.557971)
(0.644539 1.38228 0.880358)
(0.854753 1.08191 0.577275)
(0.588784 0.888755 0.871306)
(0.76042 1.50397 0.837103)
(0.740669 1.13351 0.5939)
(0.789393 1.2815 0.586998)
(0.970016 1.11154 0.629468)
(0.656923 1.18806 0.653491)
(0.681664 1.16988 0.63413)
(0.664353 1.14888 0.649863)
(0.670624 1.11205 0.650618)
(0.64814 1.13204 0.667824)
(0.71264 1.13031 0.612367)
(0.710693 1.17182 0.612982)
(0.691962 1.06099 0.645355)
(0.708957 1.08113 0.627296)
(0.734945 1.08656 0.610462)
(0.880091 1.14338 0.584229)
(0.886438 1.18361 0.584949)
(0.906863 1.14176 0.578154)
(0.868452 1.21475 0.576876)
(0.903295 1.21712 0.583757)
(0.880347 1.08844 0.576455)
(0.853153 1.13381 0.586339)
(0.826963 1.16582 0.582494)
(0.797987 1.18397 0.57998)
(0.825315 1.19969 0.573908)
(0.844906 1.22991 0.56707)
(0.829783 1.11956 0.589695)
(0.97849 1.14093 0.61998)
(1.0206 1.10683 0.643767)
(0.99526 1.0782 0.651728)
(0.694343 1.40455 0.71236)
(0.653321 1.36394 0.712974)
(0.671513 1.39649 0.751708)
(0.720789 1.40204 0.679729)
(0.73649 1.44202 0.712555)
(0.680387 1.4177 0.807947)
(0.641759 1.36997 0.815347)
(0.796961 1.48588 0.704827)
(0.777161 1.48792 0.736942)
(0.738454 1.47392 0.793246)
(0.800355 1.52211 0.773028)
(0.698836 1.44526 0.853246)
(0.930147 1.14978 0.583822)
(0.931445 1.10216 0.609048)
(0.925768 1.24632 0.583968)
(0.937263 1.21349 0.578702)
(0.945404 1.17681 0.583965)
(0.615445 1.19116 0.694107)
(0.635278 1.21473 0.674302)
(0.614744 1.11336 0.707572)
(0.608831 1.1479 0.708687)
(0.582645 1.16492 0.739731)
(0.916515 1.04698 0.618406)
(0.957738 1.06513 0.644143)
(0.884891 1.03955 0.585567)
(0.695693 1.24535 0.634534)
(0.650867 1.24918 0.663707)
(0.664866 1.29254 0.661532)
(0.610921 1.25233 0.700876)
(0.647397 1.33131 0.687521)
(0.623218 1.32525 0.717114)
(0.6916 1.3284 0.657198)
(0.598108 1.28724 0.73778)
(0.606291 1.31136 0.782871)
(0.574812 1.24175 0.759011)
(0.772997 1.14053 0.589195)
(0.797356 1.10704 0.595764)
(0.768701 1.09851 0.598292)
(0.828421 1.07398 0.590044)
(0.835919 1.0178 0.589246)
(0.808396 1.00225 0.597053)
(0.763157 1.04838 0.607528)
(0.776291 0.987714 0.609166)
(0.861052 1.02499 0.584841)
(0.757573 1.31903 0.62209)
(0.737817 1.36472 0.649447)
(0.776558 1.39823 0.648084)
(0.856112 1.36455 0.602417)
(0.828533 1.41005 0.634758)
(0.810886 1.4536 0.667142)
(0.828898 1.31683 0.585707)
(0.884029 1.32425 0.571755)
(0.792843 1.31662 0.602183)
(0.755986 1.28371 0.608915)
(0.824773 1.28222 0.569712)
(0.763509 1.24715 0.594901)
(0.741549 1.21057 0.60139)
(0.769756 1.17665 0.587119)
(0.878242 1.26281 0.561083)
(0.826081 1.25003 0.5637)
(0.794413 1.24579 0.574886)
(0.917403 1.27281 0.575355)
(0.90647 1.29378 0.565001)
(0.659397 1.04247 0.675955)
(0.634476 1.02645 0.701214)
(0.627919 1.0762 0.696902)
(0.605752 1.00199 0.740709)
(0.631299 0.981139 0.714168)
(0.677079 0.933942 0.690636)
(0.720559 0.938471 0.651163)
(0.631265 0.922872 0.725685)
(0.704214 1.00657 0.649978)
(0.747102 0.969267 0.625729)
(0.612201 1.32214 0.849069)
(0.595414 1.08172 0.744338)
(0.59033 0.96014 0.796045)
(0.58867 1.01265 0.779578)
(0.574089 1.04378 0.80128)
(0.79923 1.53428 0.830002)
(0.798525 1.53295 0.905984)
(0.566533 0.978904 0.919411)
(0.573448 0.939776 0.917283)
(0.579641 0.898108 0.933541)
(0.591397 0.851261 0.932043)
(0.583017 0.933183 0.855921)
(0.565905 1.06328 0.935744)
(0.563272 1.01761 0.939822)
(0.563112 1.01386 0.86669)
(0.575031 1.15445 0.904752)
(0.569547 1.10928 0.904874)
(0.552131 1.10833 0.864929)
(0.575572 1.21682 0.900717)
(0.583181 1.26414 0.907337)
(0.565124 1.21431 0.828885)
(0.63891 1.36641 0.941174)
(0.608998 1.31986 0.941803)
(0.679971 1.41636 0.937603)
(0.73997 1.48403 0.911555)
(0.601381 0.859561 0.840719)
(0.605701 0.888513 0.780203)
(0.594946 0.910218 0.806377)
(0.557333 1.07967 0.819195)
(0.55406 1.1293 0.800308)
(0.559514 1.1872 0.776544)
(1.12205 1.61421 0.785112)
(1.04693 1.60126 0.731407)
(1.33785 1.55844 0.828181)
(1.07326 1.40032 0.618015)
(0.938027 1.61426 0.818694)
(1.40449 1.50878 0.857088)
(1.13948 1.25337 0.601906)
(1.14716 1.35596 0.616086)
(1.03356 1.62674 0.827396)
(1.10338 1.52073 0.692752)
(1.00382 1.49789 0.656754)
(1.12574 1.62158 0.894617)
(1.17024 1.46949 0.667335)
(1.07661 1.30492 0.616285)
(1.20487 1.56005 0.743071)
(1.03293 1.23907 0.628464)
(1.36939 1.46532 0.765681)
(1.01796 1.29719 0.602753)
(0.985047 1.61652 0.8958)
(1.36691 1.56228 0.928021)
(1.28536 1.60189 0.905165)
(1.27654 1.50985 0.72215)
(1.22322 1.30199 0.619199)
(0.935341 1.58505 0.721575)
(1.05137 1.62587 0.918697)
(1.26871 1.58372 0.809026)
(1.27747 1.33915 0.661314)
(1.22967 1.40659 0.644862)
(0.916235 1.59923 0.886556)
(1.42535 1.51973 0.937916)
(1.06823 1.1881 0.623279)
(1.20077 1.60882 0.839165)
(1.21732 1.61783 0.926515)
(1.32054 1.38943 0.69773)
(0.920968 1.49443 0.653738)
(0.994405 1.36893 0.596506)
(1.41482 1.52969 0.968396)
(1.45072 1.50148 0.969097)
(1.44665 1.49418 0.922418)
(1.07725 1.61954 0.800834)
(1.04094 1.62321 0.777992)
(1.08835 1.60902 0.755573)
(1.07773 1.55664 0.704804)
(1.12071 1.57231 0.726539)
(1.12563 1.61222 0.832501)
(1.08346 1.61446 0.851134)
(1.1546 1.53492 0.713348)
(1.16699 1.58831 0.760246)
(1.16267 1.60777 0.807652)
(1.16552 1.61091 0.8611)
(1.20626 1.59389 0.790339)
(0.968072 1.61352 0.940009)
(1.00868 1.6214 0.946692)
(0.878715 1.5826 0.934344)
(0.932912 1.60482 0.941077)
(0.953446 1.60916 0.889898)
(1.04141 1.62768 0.956381)
(1.07852 1.63053 0.960388)
(1.02025 1.61972 0.906134)
(1.11497 1.62845 0.945813)
(1.1588 1.62382 0.947447)
(1.08909 1.62228 0.903513)
(1.24471 1.61305 0.962867)
(1.20364 1.62029 0.962192)
(1.17414 1.61752 0.908461)
(1.27789 1.60401 0.950654)
(1.31209 1.58859 0.9504)
(1.25431 1.60779 0.914237)
(1.35056 1.57204 0.96367)
(1.38483 1.54859 0.96323)
(1.32717 1.57906 0.913914)
(1.39513 1.53817 0.931251)
(1.05412 1.14873 0.62665)
(1.03383 1.17418 0.630026)
(1.09336 1.18141 0.617402)
(0.88088 1.58537 0.774164)
(0.890729 1.59147 0.817388)
(0.929798 1.60572 0.845779)
(0.879491 1.58423 0.853342)
(0.883585 1.56341 0.725104)
(0.934165 1.60816 0.76928)
(1.01143 1.6188 0.854625)
(0.965717 1.61465 0.853215)
(0.989945 1.62238 0.821045)
(0.990651 1.61974 0.771471)
(1.37129 1.53127 0.837497)
(1.35589 1.51452 0.789625)
(1.38856 1.4868 0.809363)
(1.40106 1.43687 0.800301)
(1.42245 1.46106 0.839874)
(1.38622 1.53645 0.889841)
(1.41454 1.51438 0.89775)
(1.35302 1.55861 0.876044)
(1.43444 1.48571 0.884191)
(0.894637 1.52971 0.685574)
(0.913363 1.43419 0.626709)
(0.889112 1.48425 0.655675)
(0.926841 1.54061 0.683068)
(0.971549 1.33117 0.585681)
(0.9531 1.37236 0.594058)
(0.961464 1.42878 0.625456)
(0.989679 1.26731 0.600876)
(0.982145 1.30242 0.592685)
(1.00812 1.33188 0.596576)
(1.01019 1.2037 0.626862)
(0.990079 1.23651 0.607784)
(1.02168 1.26671 0.616581)
(1.05595 1.21318 0.633924)
(1.15599 1.41176 0.641812)
(1.11941 1.43736 0.648905)
(1.10507 1.37472 0.620819)
(1.07168 1.34635 0.611171)
(1.11223 1.33314 0.616565)
(1.04484 1.29885 0.613302)
(1.04557 1.34395 0.606084)
(1.03464 1.38512 0.610782)
(1.05289 1.50819 0.677615)
(1.04211 1.44583 0.642815)
(1.08531 1.46387 0.660876)
(1.1355 1.49069 0.683482)
(0.998413 1.43275 0.629576)
(0.99246 1.59458 0.724491)
(1.02249 1.5479 0.687672)
(0.970869 1.54332 0.680471)
(1.11234 1.28383 0.61774)
(1.15144 1.30486 0.609604)
(1.18574 1.27882 0.604549)
(1.18745 1.3323 0.611621)
(1.05839 1.27206 0.625301)
(1.09337 1.24928 0.626125)
(1.10603 1.22292 0.617171)
(1.17434 1.23461 0.609362)
(1.21703 1.25171 0.635296)
(1.1296 1.21304 0.610635)
(1.18835 1.38205 0.63098)
(1.198 1.4391 0.654966)
(1.22527 1.3526 0.629119)
(1.04535 1.61888 0.865323)
(1.18528 1.50872 0.702909)
(0.964193 1.49796 0.653798)
(1.21116 1.60973 0.880311)
(1.23889 1.53065 0.733139)
(1.22182 1.4882 0.69139)
(1.25166 1.45669 0.676896)
(1.27683 1.54496 0.762025)
(1.23955 1.57116 0.773036)
(1.23619 1.5972 0.823516)
(1.29918 1.45071 0.696479)
(1.34644 1.42209 0.729625)
(1.32452 1.48621 0.735731)
(1.35103 1.36493 0.736995)
(1.37906 1.40204 0.767188)
(1.31234 1.53195 0.769786)
(1.27736 1.39903 0.665682)
(1.29764 1.36365 0.679406)
(1.25561 1.37279 0.647235)
(1.32014 1.34119 0.709386)
(1.2984 1.31739 0.6928)
(1.31105 1.58147 0.866363)
(1.27793 1.59246 0.855583)
(1.2474 1.60102 0.869412)
(1.30469 1.56805 0.815579)
(1.25011 1.32037 0.641362)
(1.24503 1.27387 0.654814)
(1.26987 1.29268 0.674449)
(0.838575 1.16966 1.17166)
(0.731779 1.1264 1.14585)
(0.720411 1.19568 1.10525)
(0.87938 1.24954 1.20025)
(0.743744 1.26307 1.09314)
(0.821352 1.234 1.21276)
(0.797662 1.13403 1.19382)
(0.765739 1.20716 1.1645)
(0.780926 1.2761 1.16246)
(0.873385 1.17093 1.12998)
(0.6885 1.11839 1.07016)
(0.851803 1.30277 1.20652)
(0.808605 1.32463 1.13897)
(0.693545 1.07158 1.07921)
(0.805927 1.33046 1.07273)
(0.84465 1.357 1.03445)
(0.840439 1.35858 1.08321)
(0.840174 1.35518 1.11526)
(0.852928 1.3518 1.1438)
(0.804394 1.3271 1.10768)
(0.766348 1.13128 1.17803)
(0.784399 1.17495 1.18591)
(0.75164 1.16721 1.15148)
(0.733046 1.17025 1.11748)
(0.747362 1.20813 1.13271)
(0.711006 1.16158 1.08569)
(0.710177 1.12648 1.1044)
(0.712435 1.10149 1.11214)
(0.690569 1.09805 1.07239)
(0.788331 1.09007 1.18344)
(0.756192 1.09125 1.17259)
(0.729183 1.08267 1.13947)
(0.709564 1.05493 1.10428)
(0.75654 1.24116 1.13027)
(0.762151 1.27182 1.12777)
(0.73265 1.2282 1.0977)
(0.727906 1.22559 1.04997)
(0.71466 1.19368 1.06125)
(0.792469 1.29922 1.14958)
(0.774545 1.29463 1.11752)
(0.754777 1.26999 1.04754)
(0.771234 1.29477 1.08328)
(0.785512 1.30732 1.03687)
(0.848842 1.12297 1.13526)
(0.874087 1.12576 1.12998)
(0.852449 1.17178 1.14554)
(0.910762 1.15154 1.13278)
(0.871648 1.21439 1.15513)
(0.856441 1.21216 1.18149)
(0.893533 1.19899 1.12962)
(0.894602 1.23849 1.15846)
(0.811272 1.18474 1.19729)
(0.794739 1.22217 1.19086)
(0.776748 1.24493 1.16009)
(0.804307 1.26302 1.18789)
(0.681158 1.10149 1.04403)
(0.685512 1.13065 1.04374)
(0.682686 1.07909 1.04665)
(0.704302 1.16593 1.06103)
(0.827154 1.11074 1.15356)
(0.819593 1.15071 1.18344)
(0.837943 1.20605 1.20076)
(0.81123 1.09842 1.17301)
(0.853568 1.24466 1.21323)
(0.903014 1.28522 1.20299)
(0.871554 1.33906 1.1742)
(0.891791 1.31614 1.20466)
(0.871665 1.2799 1.21575)
(0.830954 1.31939 1.16352)
(0.689814 1.04578 1.05111)
(0.817349 1.29382 1.18295)
(0.835378 1.2694 1.21172)
(0.97886 1.41339 1.11995)
(1.18873 1.35209 1.09025)
(1.18174 1.38249 1.05889)
(1.12569 1.34763 1.12169)
(1.08843 1.3815 1.17588)
(1.06241 1.29793 1.1903)
(1.1355 1.39689 1.12929)
(1.1186 1.42152 1.07465)
(1.00673 1.31574 1.21242)
(1.24919 1.36536 1.05249)
(1.06967 1.41824 1.1375)
(1.00923 1.38124 1.16016)
(1.03508 1.43433 1.07445)
(0.955607 1.42094 1.0611)
(0.992223 1.24011 1.18763)
(1.15196 1.40104 1.06496)
(1.1545 1.38874 1.09166)
(1.12445 1.41176 1.10359)
(1.09086 1.42199 1.10761)
(1.10467 1.41252 1.13595)
(1.15543 1.36869 1.10125)
(1.15195 1.34507 1.10045)
(1.13547 1.37241 1.12682)
(1.18277 1.36755 1.07726)
(1.11062 1.36862 1.15134)
(1.11436 1.39068 1.15215)
(1.08286 1.40152 1.15778)
(0.918313 1.40442 1.07609)
(0.925146 1.4037 1.03116)
(0.941308 1.39403 1.12976)
(0.930618 1.40456 1.10444)
(0.965813 1.41881 1.09193)
(1.20197 1.32233 1.10068)
(1.23594 1.34277 1.08335)
(1.21666 1.35766 1.07273)
(1.26592 1.35142 1.06387)
(1.28272 1.35848 1.02662)
(1.04253 1.23424 1.17499)
(1.07521 1.25944 1.15474)
(1.10346 1.29389 1.12333)
(1.15221 1.30762 1.10513)
(1.08814 1.33447 1.15229)
(1.01655 1.21034 1.17475)
(0.968814 1.19477 1.15927)
(1.02823 1.2654 1.20005)
(0.963636 1.31407 1.19416)
(0.961881 1.27209 1.1872)
(0.997083 1.27733 1.20579)
(0.955162 1.23573 1.16394)
(1.00604 1.35389 1.18231)
(0.963964 1.35243 1.1714)
(1.03754 1.30973 1.2097)
(1.04465 1.35614 1.19035)
(1.04965 1.38353 1.16931)
(1.07404 1.34872 1.18232)
(0.98002 1.42649 1.03401)
(0.957373 1.3788 1.14813)
(0.996456 1.39643 1.13466)
(1.00701 1.42391 1.09767)
(0.998151 1.42909 1.06713)
(1.04946 1.42413 1.10492)
(1.02633 1.41276 1.12298)
(1.04344 1.39933 1.14705)
(1.24811 1.36909 1.02715)
(1.2092 1.36788 1.05319)
(1.21123 1.37321 1.02928)
(1.02124 1.43253 1.04146)
(1.07018 1.43238 1.04235)
(1.14925 1.40976 1.03538)
(1.1116 1.42487 1.04063)
(1.0792 1.42822 1.0752)
(1.17967 1.39124 1.02952)
(1.01086 1.32089 0.799491)
(1.20232 1.34175 0.902962)
(1.06167 1.4208 0.907883)
(1.0555 1.28176 0.824546)
(1.06211 1.39461 0.854127)
(1.15238 1.37505 0.88187)
(0.984558 1.37008 0.818233)
(1.09859 1.35408 0.845753)
(0.969819 1.42151 0.855017)
(1.12973 1.31983 0.880043)
(1.22251 1.37271 0.943418)
(0.988651 1.23041 0.823242)
(1.14834 1.40952 0.942264)
(0.986889 1.429 0.942414)
(0.9223 1.40945 0.876008)
(0.933301 1.40178 0.844109)
(0.945788 1.4112 0.972388)
(0.937397 1.41468 0.919529)
(0.972798 1.42882 0.892879)
(0.983666 1.39872 0.839368)
(0.942426 1.38172 0.822143)
(0.956617 1.35204 0.802633)
(0.963734 1.27396 0.812894)
(0.994073 1.27417 0.803885)
(0.952033 1.22963 0.844665)
(1.02024 1.2527 0.814426)
(1.03293 1.30282 0.805635)
(1.08184 1.37494 0.850068)
(1.05188 1.34365 0.82571)
(1.03645 1.36345 0.840398)
(1.07439 1.32573 0.83602)
(0.972285 1.32312 0.799796)
(0.998042 1.34535 0.813205)
(1.02389 1.38216 0.844383)
(0.998196 1.42789 0.977834)
(1.0225 1.40934 0.858669)
(1.0199 1.42336 0.88313)
(1.06247 1.40919 0.878878)
(1.0228 1.42668 0.924198)
(0.971473 1.19031 0.839194)
(1.01569 1.20172 0.827453)
(1.04212 1.22372 0.83278)
(1.14377 1.34771 0.886042)
(1.11316 1.33781 0.866245)
(1.12701 1.36389 0.867837)
(1.08845 1.30762 0.857452)
(1.1086 1.38582 0.867687)
(1.16477 1.32673 0.894449)
(1.1698 1.35374 0.90376)
(1.20641 1.31714 0.889044)
(1.16339 1.30039 0.881912)
(1.11617 1.28028 0.869644)
(1.07837 1.25389 0.848743)
(1.18022 1.37054 0.918436)
(1.20962 1.35854 0.923678)
(1.24669 1.3553 0.93459)
(1.23924 1.33804 0.910102)
(1.04939 1.42606 0.981692)
(1.16447 1.40718 0.971415)
(1.12571 1.41763 0.974391)
(1.10546 1.41191 0.928583)
(1.08143 1.42002 0.96042)
(1.23673 1.37334 0.970364)
(1.20067 1.38429 0.971447)
(1.18562 1.38705 0.944316)
(1.14907 1.39357 0.907977)