/*--------------------------------*- C++ -*----------------------------------*\
| =========                 |                                                 |
| \\      /  F ield         | OpenFOAM: The Open Source CFD Toolbox           |
|  \\    /   O peration     | Version:  v1806                                 |
|   \\  /    A nd           | Web:      www.OpenFOAM.com                      |
|    \\/     M anipulation  |                                                 |
\*---------------------------------------------------------------------------*/
FoamFile
{
    version     2.0;
    format      ascii;
    class       volScalarField;
    location    "0.0685";
    object      p;
}
// * * * * * * * * * * * * * * * * * * * * * * * * * * * * * * * * * * * * * //

dimensions      [0 2 -2 0 0 0 0];


internalField   nonuniform List<scalar> 
64000
(
6.49107e-06
-0.101084
-0.230037
-0.305851
-0.366815
-0.411275
-0.456326
-0.495871
-0.528679
-0.572887
-0.586233
-0.645979
-0.661503
-0.70897
-0.712036
-0.758767
-0.711664
-0.791794
-0.653514
-0.883364
-0.565239
-0.831062
-0.692613
-0.787974
-0.639877
-0.612814
-0.487104
-0.429488
-0.382657
-0.365488
-0.38138
-0.399199
-0.468885
-0.499288
-0.552653
-0.556898
-0.588103
-0.582416
-0.598405
-0.592486
-0.107945
-0.208286
-0.278651
-0.326432
-0.376051
-0.413519
-0.450288
-0.488304
-0.519221
-0.557965
-0.57806
-0.613351
-0.622301
-0.643951
-0.639492
-0.662111
-0.673815
-0.741066
-0.611781
-0.790589
-0.508776
-0.743395
-0.645757
-0.719866
-0.567866
-0.542903
-0.431618
-0.388666
-0.348746
-0.340386
-0.368505
-0.362792
-0.438276
-0.463777
-0.518028
-0.526416
-0.558417
-0.563086
-0.586518
-0.586511
-0.251125
-0.287261
-0.325385
-0.345455
-0.394995
-0.417645
-0.45906
-0.485568
-0.515749
-0.551013
-0.578809
-0.622174
-0.639575
-0.700885
-0.724738
-0.782109
-0.750885
-0.828854
-0.716357
-0.927026
-0.709718
-0.978667
-0.955546
-1.07261
-0.968473
-0.970792
-0.885806
-0.839328
-0.778322
-0.710276
-0.684229
-0.632026
-0.638076
-0.591436
-0.597237
-0.579557
-0.592516
-0.588464
-0.603269
-0.602922
-0.329414
-0.339763
-0.357121
-0.383434
-0.394326
-0.425534
-0.454299
-0.490375
-0.539782
-0.582241
-0.612736
-0.679593
-0.737636
-0.806022
-0.834253
-0.887226
-0.895806
-0.998183
-0.924369
-1.15852
-0.981862
-1.26063
-1.29793
-1.43542
-1.36019
-1.37079
-1.28534
-1.22788
-1.13956
-1.04077
-0.957242
-0.842421
-0.78315
-0.710563
-0.667657
-0.631194
-0.642369
-0.619608
-0.628865
-0.628371
-0.383864
-0.376887
-0.405826
-0.396698
-0.435314
-0.450018
-0.508139
-0.532304
-0.595773
-0.655823
-0.754256
-0.873926
-0.938758
-1.02145
-1.07014
-1.14896
-1.16674
-1.26532
-1.19615
-1.43724
-1.29432
-1.56691
-1.62756
-1.77081
-1.71674
-1.72249
-1.64026
-1.56515
-1.47193
-1.35111
-1.23919
-1.10668
-0.975478
-0.85579
-0.756072
-0.701442
-0.67737
-0.662467
-0.66468
-0.663764
-0.421439
-0.430589
-0.423108
-0.464422
-0.447109
-0.490068
-0.517941
-0.639464
-0.778158
-0.925688
-1.03313
-1.11067
-1.17974
-1.24693
-1.28805
-1.37495
-1.35417
-1.49234
-1.42957
-1.63728
-1.52992
-1.77206
-1.85821
-1.97112
-1.92341
-1.92034
-1.83268
-1.76259
-1.65127
-1.54202
-1.40888
-1.26985
-1.13265
-1.02522
-0.879709
-0.771252
-0.736335
-0.708794
-0.709128
-0.710646
-0.470135
-0.463854
-0.500397
-0.554798
-0.647476
-0.679865
-0.849532
-0.957866
-1.08014
-1.1621
-1.26239
-1.35379
-1.43154
-1.51105
-1.55512
-1.61797
-1.62931
-1.70784
-1.66752
-1.85141
-1.8049
-1.92431
-2.01521
-2.10057
-2.06045
-2.04905
-1.97255
-1.90297
-1.80848
-1.69754
-1.56442
-1.41646
-1.24214
-1.10606
-0.963441
-0.821038
-0.769781
-0.745611
-0.747943
-0.752971
-0.540896
-0.515805
-0.557914
-0.632108
-0.723072
-0.812969
-1.02959
-1.08177
-1.2454
-1.35673
-1.47712
-1.57007
-1.65705
-1.72123
-1.77636
-1.83451
-1.83502
-1.90551
-1.84831
-1.99268
-1.99029
-2.00418
-2.10179
-2.17173
-2.14607
-2.12991
-2.06168
-2.00438
-1.91771
-1.82408
-1.69803
-1.54909
-1.3885
-1.21997
-1.09674
-0.905945
-0.836293
-0.800897
-0.8021
-0.811803
-0.567826
-0.55056
-0.617941
-0.715258
-0.845774
-1.00946
-1.17067
-1.28673
-1.41718
-1.5474
-1.66824
-1.76595
-1.85805
-1.92847
-1.98858
-2.03989
-2.054
-2.0881
-2.0569
-2.08329
-2.13252
-2.08431
-2.15547
-2.21777
-2.20637
-2.19159
-2.13442
-2.08335
-2.02026
-1.93476
-1.81426
-1.66458
-1.50271
-1.3092
-1.17097
-0.993834
-0.880705
-0.850912
-0.848811
-0.864547
-0.643287
-0.625448
-0.70479
-0.820879
-0.979131
-1.15923
-1.31693
-1.43296
-1.58198
-1.69031
-1.8349
-1.92464
-2.01578
-2.08258
-2.13653
-2.18503
-2.20093
-2.22222
-2.18834
-2.18667
-2.21426
-2.18578
-2.13301
-2.24278
-2.23236
-2.23687
-2.18553
-2.15918
-2.10439
-2.02497
-1.92871
-1.78283
-1.62102
-1.43762
-1.28362
-1.10894
-0.97303
-0.927734
-0.918063
-0.937848
-0.690033
-0.679118
-0.77623
-0.909884
-1.12591
-1.27944
-1.4491
-1.5856
-1.73221
-1.85442
-1.96712
-2.05335
-2.16086
-2.20792
-2.26163
-2.28926
-2.30913
-2.31879
-2.24763
-2.28522
-2.25514
-2.20804
-2.10277
-2.25165
-2.23344
-2.27455
-2.2236
-2.22367
-2.17642
-2.11996
-2.01774
-1.89253
-1.7223
-1.52361
-1.34203
-1.19784
-1.04063
-0.984383
-0.974395
-0.997639
-0.80904
-0.798818
-0.898261
-1.07321
-1.26081
-1.42964
-1.59349
-1.73136
-1.87509
-1.98232
-2.09652
-2.17627
-2.23926
-2.30767
-2.3453
-2.37039
-2.39492
-2.39494
-2.34469
-2.34774
-2.29648
-2.22431
-2.02474
-2.19499
-2.22258
-2.27288
-2.26841
-2.26549
-2.24649
-2.19506
-2.1163
-1.97648
-1.83302
-1.65378
-1.45664
-1.29838
-1.13806
-1.07956
-1.05464
-1.08302
-0.844991
-0.840936
-0.967841
-1.13446
-1.33844
-1.50818
-1.68492
-1.82146
-1.96956
-2.0789
-2.19636
-2.26597
-2.35379
-2.37323
-2.43787
-2.43535
-2.47091
-2.45561
-2.42961
-2.3939
-2.35158
-2.17601
-1.88679
-2.05474
-2.16985
-2.26883
-2.2906
-2.31679
-2.29994
-2.26919
-2.18697
-2.10036
-1.94624
-1.78039
-1.56799
-1.40123
-1.21805
-1.14726
-1.1197
-1.14587
-1.02922
-1.02706
-1.13914
-1.30485
-1.49021
-1.67287
-1.82761
-1.95971
-2.08447
-2.17961
-2.27495
-2.33699
-2.39122
-2.43383
-2.45822
-2.48841
-2.5308
-2.51723
-2.48945
-2.45977
-2.38272
-2.00137
-1.91894
-2.01869
-2.14141
-2.28108
-2.32391
-2.35832
-2.35058
-2.32118
-2.28485
-2.18625
-2.05681
-1.88674
-1.70496
-1.51669
-1.34887
-1.25459
-1.22496
-1.25949
-1.00228
-1.00669
-1.13042
-1.2931
-1.49381
-1.67596
-1.83869
-1.96363
-2.09996
-2.19556
-2.30993
-2.38266
-2.46447
-2.50325
-2.53413
-2.54334
-2.57028
-2.50636
-2.55641
-2.49126
-2.17779
-2.02546
-1.97121
-2.01941
-2.09238
-2.27133
-2.33274
-2.37861
-2.4008
-2.40623
-2.36097
-2.28505
-2.16383
-2.01429
-1.81779
-1.63321
-1.4569
-1.32477
-1.2845
-1.30979
-1.25877
-1.25198
-1.3566
-1.50352
-1.67966
-1.84781
-1.9918
-2.10843
-2.22185
-2.30647
-2.39069
-2.42714
-2.47391
-2.49221
-2.5106
-2.5166
-2.53839
-2.56609
-2.51192
-2.25414
-2.13052
-2.06523
-2.03136
-2.02529
-2.06478
-2.1922
-2.3107
-2.37955
-2.42565
-2.42498
-2.40485
-2.35039
-2.2667
-2.14067
-1.97673
-1.79602
-1.62057
-1.53279
-1.44814
-1.48825
-1.07185
-1.09422
-1.21364
-1.37424
-1.56983
-1.75814
-1.91122
-2.01603
-2.11574
-2.19883
-2.30527
-2.39765
-2.49388
-2.562
-2.59344
-2.57477
-2.47595
-2.32769
-2.20651
-2.12966
-2.07639
-2.05934
-2.04365
-2.0339
-2.0478
-2.10798
-2.29359
-2.37745
-2.45357
-2.48018
-2.45721
-2.40637
-2.32117
-2.20012
-2.03833
-1.86224
-1.67232
-1.54912
-1.45634
-1.49614
-1.345
-1.33699
-1.41812
-1.53936
-1.69406
-1.84313
-2.00118
-2.12055
-2.24487
-2.34419
-2.42273
-2.41094
-2.37841
-2.31187
-2.22871
-2.11156
-2.05341
-1.99889
-2.02502
-2.01128
-2.02734
-2.03298
-2.03999
-2.0375
-2.03939
-2.08395
-2.14871
-2.26487
-2.35975
-2.41894
-2.4504
-2.46399
-2.47163
-2.41279
-2.30774
-2.13487
-1.96362
-1.83646
-1.7404
-1.75669
-0.940742
-0.950449
-1.04892
-1.18004
-1.38409
-1.55294
-1.73833
-1.80563
-1.7889
-1.7648
-1.75967
-1.78465
-1.85684
-1.93772
-1.98213
-2.02863
-2.02524
-2.00479
-1.999
-1.99005
-1.98993
-2.00202
-2.01158
-2.03356
-2.03509
-2.07668
-2.15503
-2.27116
-2.38706
-2.4384
-2.40814
-2.34809
-2.26441
-2.16519
-2.08427
-1.95755
-1.86218
-1.69226
-1.71891
-1.75107
-1.1667
-1.09486
-1.12641
-1.17128
-1.27827
-1.37492
-1.48695
-1.61851
-1.74548
-1.84223
-1.91933
-1.94806
-1.9768
-1.99718
-2.00965
-2.00113
-2.00017
-1.9935
-1.9561
-1.96271
-1.97829
-1.97817
-2.00626
-2.0039
-2.03981
-2.0594
-2.13143
-2.16572
-2.13462
-2.16092
-2.34588
-2.54586
-2.76507
-2.78116
-2.73245
-2.56913
-2.36738
-2.21886
-1.88488
-1.88715
-0.99381
-0.991934
-1.03223
-1.11096
-1.25138
-1.3789
-1.51863
-1.6139
-1.7044
-1.77454
-1.83821
-1.88868
-1.93615
-1.97695
-2.00118
-2.02045
-2.01186
-1.98902
-1.98399
-1.95027
-1.96347
-1.97642
-1.98375
-2.00839
-2.03099
-2.07286
-2.12048
-2.16254
-2.18539
-2.15797
-2.12183
-2.00599
-1.9675
-1.99704
-2.1211
-2.13603
-2.18734
-2.17089
-2.25942
-2.22896
-1.11821
-1.10254
-1.12622
-1.17497
-1.28065
-1.38889
-1.51605
-1.6331
-1.74052
-1.82823
-1.89982
-1.94133
-1.98316
-2.01445
-2.0314
-2.02806
-2.02441
-2.00554
-2.00922
-1.97691
-1.99731
-1.97457
-2.01994
-2.01394
-2.06258
-2.08276
-2.13597
-2.15844
-2.20295
-2.19526
-2.23094
-2.21552
-2.23736
-2.1045
-1.9638
-1.75792
-1.58978
-1.41207
-1.2993
-1.26981
-1.0728
-1.07624
-1.10611
-1.16533
-1.27874
-1.39331
-1.52448
-1.65074
-1.75341
-1.84677
-1.9129
-1.97258
-2.02183
-2.05247
-2.0691
-2.06137
-2.05957
-2.01654
-2.0363
-2.00504
-2.01355
-2.0158
-2.02364
-2.05314
-2.07936
-2.10248
-2.14192
-2.15515
-2.19245
-2.18049
-2.2028
-2.13686
-2.11058
-2.00389
-1.98233
-1.84733
-1.76355
-1.60784
-1.58049
-1.71715
-1.13053
-1.10953
-1.16563
-1.20758
-1.32254
-1.425
-1.55274
-1.67289
-1.78182
-1.86872
-1.94662
-2.01326
-2.06573
-2.09526
-2.1151
-2.09916
-2.10218
-2.05275
-2.08972
-2.07461
-2.10424
-2.04529
-2.1052
-2.08466
-2.14154
-2.13848
-2.18468
-2.18168
-2.22536
-2.20035
-2.24873
-2.20608
-2.24391
-2.14775
-2.13371
-1.98939
-1.9146
-1.74095
-1.60034
-1.60956
-1.13485
-1.11651
-1.18028
-1.22144
-1.33519
-1.4404
-1.56981
-1.69884
-1.79394
-1.89592
-1.98415
-2.0541
-2.1096
-2.13926
-2.16301
-2.14473
-2.16929
-2.12538
-2.20706
-2.11768
-2.15666
-2.14103
-2.13408
-2.13637
-2.17522
-2.17893
-2.21874
-2.20251
-2.24157
-2.20559
-2.23266
-2.151
-2.15999
-2.04114
-2.04606
-1.91615
-1.89869
-1.76448
-1.72867
-1.82243
-1.15498
-1.12097
-1.18961
-1.22821
-1.33466
-1.44319
-1.57036
-1.66604
-1.7937
-1.88235
-1.97148
-2.05014
-2.12406
-2.16258
-2.20474
-2.20171
-2.25523
-2.22409
-2.27662
-2.14872
-2.19473
-2.15417
-2.19448
-2.16841
-2.2383
-2.21704
-2.27811
-2.24159
-2.29307
-2.22982
-2.29323
-2.23219
-2.30306
-2.1818
-2.2012
-2.02252
-1.98806
-1.80725
-1.70308
-1.65203
-1.17742
-1.15227
-1.20922
-1.26001
-1.35633
-1.45872
-1.57361
-1.70188
-1.81286
-1.91344
-2.00192
-2.07404
-2.14582
-2.18188
-2.24777
-2.23363
-2.30724
-2.24031
-2.32674
-2.16935
-2.27
-2.22369
-2.23262
-2.23657
-2.29173
-2.27348
-2.34994
-2.35398
-2.43576
-2.46137
-2.61437
-2.57728
-2.68452
-2.6045
-2.71287
-2.61019
-2.64884
-2.47734
-2.42989
-2.38556
-1.15956
-1.1402
-1.16685
-1.23552
-1.32475
-1.41969
-1.54541
-1.65234
-1.77068
-1.86825
-1.96913
-2.04633
-2.13036
-2.17536
-2.24931
-2.27391
-2.3409
-2.30229
-2.35981
-2.23625
-2.30191
-2.25027
-2.29699
-2.23824
-2.36307
-2.30886
-2.42749
-2.41299
-2.49902
-2.46176
-2.56341
-2.4396
-2.53142
-2.3838
-2.5114
-2.35808
-2.46413
-2.27778
-2.33193
-2.24551
-1.19528
-1.1829
-1.20541
-1.25507
-1.35331
-1.43761
-1.55897
-1.6808
-1.78667
-1.88684
-1.98919
-2.06477
-2.15501
-2.19652
-2.29803
-2.28865
-2.41923
-2.3262
-2.4497
-2.26708
-2.34137
-2.25453
-2.33391
-2.26471
-2.36375
-2.27894
-2.44951
-2.39123
-2.54912
-2.4732
-2.60262
-2.45199
-2.55956
-2.37974
-2.49837
-2.31362
-2.39103
-2.14638
-2.11675
-1.98265
-1.14209
-1.12964
-1.15023
-1.1732
-1.28195
-1.33171
-1.47231
-1.57587
-1.70588
-1.80702
-1.9253
-2.00813
-2.11142
-2.16414
-2.26724
-2.29271
-2.38957
-2.36214
-2.44517
-2.29845
-2.33177
-2.29835
-2.35498
-2.25843
-2.4038
-2.22121
-2.38025
-2.45972
-2.59663
-2.46774
-2.61844
-2.39187
-2.54851
-2.30208
-2.48767
-2.18653
-2.3125
-1.97141
-1.94833
-1.79818
-1.1941
-1.18967
-1.20004
-1.21042
-1.30134
-1.37406
-1.48218
-1.58124
-1.70584
-1.80657
-1.93208
-2.01537
-2.13608
-2.17717
-2.30977
-2.2881
-2.43107
-2.38346
-2.47224
-2.33455
-2.33006
-2.30233
-2.35473
-2.23862
-2.40924
-2.12593
-2.51951
-2.42731
-2.68095
-2.44788
-2.70254
-2.41621
-2.58215
-2.28813
-2.45867
-2.14427
-2.24065
-1.84157
-1.73761
-1.48325
-1.10504
-1.09118
-1.11627
-1.09329
-1.16562
-1.23862
-1.35099
-1.43317
-1.57412
-1.67558
-1.82083
-1.91139
-2.05007
-2.10964
-2.2295
-2.26004
-2.39026
-2.36604
-2.45539
-2.32381
-2.2587
-2.25188
-2.30285
-2.16316
-2.38917
-2.02579
-2.55438
-2.44821
-2.6961
-2.43575
-2.73064
-2.39995
-2.65139
-2.23471
-2.47957
-1.98503
-2.1868
-1.62826
-1.52583
-1.08687
-1.1866
-1.18836
-1.18899
-1.18779
-1.20445
-1.27146
-1.37151
-1.43451
-1.56743
-1.66193
-1.81282
-1.90992
-2.05138
-2.10895
-2.26823
-2.2822
-2.42879
-2.41406
-2.47266
-2.37426
-2.22907
-2.23298
-2.27103
-2.10654
-2.36211
-1.93937
-2.55336
-2.47705
-2.7659
-2.43288
-2.79498
-2.40343
-2.70545
-2.27253
-2.5051
-1.97446
-2.10094
-1.4787
-1.26082
-0.615509
-1.05193
-1.03211
-1.06385
-1.01292
-1.05619
-1.05218
-1.20523
-1.23004
-1.38724
-1.47914
-1.64842
-1.73889
-1.9315
-2.01187
-2.18273
-2.22504
-2.37914
-2.38394
-2.42914
-2.34573
-2.10774
-2.12185
-2.15576
-1.97553
-2.25541
-1.82691
-2.46348
-2.50812
-2.79098
-2.50678
-2.83284
-2.37729
-2.7389
-2.18378
-2.54016
-1.82686
-2.03325
-1.06253
-0.930081
0.148961
-1.17494
-1.18934
-1.17803
-1.14961
-1.16291
-1.09833
-1.2415
-1.24132
-1.38395
-1.44793
-1.62525
-1.73997
-1.9294
-2.02084
-2.2093
-2.25804
-2.42154
-2.44731
-2.45583
-2.40005
-2.04629
-2.09087
-2.08319
-1.8727
-2.15004
-1.7177
-2.38855
-2.5341
-2.91255
-2.52437
-2.91698
-2.42475
-2.83513
-2.20967
-2.60704
-1.88559
-2.08266
-0.879802
-0.59316
1.01768
-1.03093
-0.95708
-1.02
-0.901299
-0.972463
-0.846487
-1.01678
-0.991629
-1.14894
-1.24384
-1.44934
-1.56564
-1.79825
-1.90332
-2.12682
-2.19852
-2.37283
-2.4206
-2.4244
-2.36478
-1.89837
-1.93419
-1.90001
-1.67753
-1.95255
-1.5753
-2.27684
-2.52532
-2.9477
-2.57582
-3.01142
-2.34244
-2.8731
-2.12041
-2.51291
-1.65132
-1.92051
-0.281976
0.101228
2.75725
-1.18037
-1.25603
-1.161
-1.14266
-1.07269
-0.983416
-1.03858
-1.01484
-1.14805
-1.22181
-1.40841
-1.53347
-1.76021
-1.88433
-2.12452
-2.22584
-2.42048
-2.48986
-2.47368
-2.36177
-1.85185
-1.82529
-1.79495
-1.47609
-1.78532
-1.43823
-2.23062
-2.4787
-3.0515
-2.64691
-3.13867
-2.47449
-2.96539
-2.16385
-2.72187
-1.6396
-2.14938
-0.0379865
0.575274
4.49458
-1.42046
-0.979809
-1.10129
-0.761084
-0.849767
-0.649236
-0.755046
-0.75695
-0.900927
-0.984357
-1.20158
-1.32993
-1.58824
-1.72977
-1.99623
-2.12692
-2.34024
-2.45719
-2.43509
-2.26429
-1.75375
-1.5788
-1.52408
-1.21802
-1.53279
-1.28715
-2.18645
-2.41202
-3.06734
-2.67427
-3.16542
-2.47118
-2.8948
-1.99024
-2.49368
-1.07592
-1.55858
1.10282
2.39502
9.08064
-1.2551
-1.52085
-1.32775
-1.2847
-0.884678
-0.825204
-0.758885
-0.737427
-0.862363
-0.93568
-1.12161
-1.24977
-1.49998
-1.64443
-1.92203
-2.07273
-2.33472
-2.49889
-2.58399
-2.21609
-1.78688
-1.45015
-1.36275
-1.00783
-1.3539
-1.16189
-2.17978
-2.32564
-3.17068
-2.74386
-3.27
-2.54228
-3.0153
-2.11342
-2.65922
-1.36242
-1.77714
1.73606
3.59296
12.7886
-3.75013
-1.0001
-1.31294
-0.851145
-0.770525
-0.536712
-0.600488
-0.584116
-0.73072
-0.817119
-1.04015
-1.16597
-1.42522
-1.57258
-1.85587
-2.03809
-2.36757
-2.56107
-2.54361
-2.1119
-1.70951
-1.19257
-1.0785
-0.76752
-1.23287
-1.20077
-2.29263
-2.38315
-3.29436
-2.77141
-3.23527
-2.44442
-2.85796
-1.94409
-2.29089
-0.623023
-0.129598
5.71594
10.7863
25.3755
-0.107719
-0.207029
-0.275572
-0.326132
-0.374132
-0.415954
-0.46009
-0.500554
-0.541062
-0.578558
-0.605246
-0.654357
-0.672789
-0.714305
-0.726296
-0.766964
-0.732234
-0.805544
-0.725812
-0.925872
-0.65244
-0.855326
-0.798676
-0.866904
-0.725384
-0.700575
-0.587492
-0.542574
-0.493518
-0.468049
-0.478031
-0.463978
-0.523326
-0.533375
-0.573178
-0.568195
-0.589466
-0.585199
-0.602335
-0.59094
-0.222553
-0.27027
-0.309321
-0.347623
-0.382918
-0.419835
-0.452661
-0.494116
-0.511121
-0.560182
-0.568453
-0.638565
-0.633191
-0.659221
-0.650126
-0.690054
-0.675218
-0.753486
-0.636345
-0.830853
-0.65835
-0.844464
-0.789298
-0.871494
-0.737643
-0.735512
-0.637133
-0.602458
-0.558997
-0.519885
-0.52478
-0.514598
-0.511108
-0.516077
-0.554718
-0.551641
-0.576236
-0.571816
-0.589751
-0.577964
-0.301575
-0.320995
-0.341227
-0.350633
-0.393681
-0.418209
-0.457559
-0.480552
-0.542344
-0.566916
-0.597534
-0.629222
-0.646537
-0.689109
-0.724271
-0.810766
-0.787991
-0.864177
-0.775418
-0.992669
-0.887102
-1.11963
-1.14923
-1.27492
-1.17947
-1.19053
-1.10867
-1.06559
-0.999282
-0.913176
-0.837032
-0.744942
-0.707144
-0.662521
-0.630576
-0.599497
-0.608987
-0.598595
-0.608791
-0.601578
-0.359081
-0.373041
-0.369843
-0.393043
-0.398958
-0.430237
-0.462657
-0.505529
-0.545058
-0.58694
-0.614274
-0.669279
-0.73457
-0.8207
-0.856289
-0.94569
-0.944351
-1.05267
-0.993402
-1.23527
-1.19327
-1.45459
-1.52312
-1.65735
-1.57241
-1.57846
-1.48404
-1.41264
-1.31442
-1.19038
-1.08113
-0.93437
-0.835506
-0.737546
-0.698134
-0.650405
-0.659036
-0.631519
-0.63652
-0.629486
-0.403891
-0.4071
-0.407788
-0.408078
-0.447234
-0.446142
-0.505297
-0.541717
-0.608567
-0.668114
-0.7692
-0.888807
-0.966037
-1.04061
-1.09534
-1.19739
-1.21049
-1.3226
-1.29895
-1.50587
-1.45942
-1.71777
-1.8052
-1.92256
-1.84333
-1.8428
-1.75464
-1.68437
-1.56272
-1.41766
-1.27795
-1.13569
-0.997915
-0.863813
-0.761551
-0.711607
-0.690566
-0.671039
-0.668333
-0.666674
-0.429148
-0.430445
-0.447917
-0.477971
-0.446779
-0.495153
-0.527735
-0.636534
-0.794099
-0.937134
-1.04327
-1.12382
-1.19672
-1.27073
-1.31907
-1.42128
-1.42578
-1.53739
-1.49064
-1.68309
-1.66315
-1.89075
-1.99365
-2.09786
-2.03594
-2.00862
-1.91556
-1.8155
-1.7251
-1.57542
-1.4362
-1.27823
-1.14019
-1.02287
-0.87883
-0.791546
-0.756601
-0.726714
-0.718338
-0.719344
-0.506499
-0.493429
-0.530278
-0.563216
-0.618343
-0.639528
-0.799022
-0.974213
-1.08187
-1.17013
-1.27367
-1.3682
-1.45101
-1.52799
-1.5898
-1.64995
-1.66986
-1.7452
-1.71542
-1.8526
-1.85778
-2.00445
-2.08626
-2.1765
-2.11731
-2.09332
-2.01227
-1.93142
-1.81455
-1.69175
-1.54789
-1.38604
-1.22622
-1.0874
-0.963305
-0.833857
-0.782849
-0.758242
-0.751411
-0.757768
-0.535729
-0.54295
-0.594032
-0.65584
-0.733707
-0.79827
-1.02618
-1.10185
-1.25354
-1.3682
-1.4805
-1.58578
-1.66887
-1.75038
-1.79954
-1.85341
-1.85449
-1.90825
-1.87851
-1.95814
-1.98149
-2.03767
-2.11904
-2.21212
-2.1809
-2.15895
-2.09997
-2.01955
-1.93561
-1.7999
-1.66941
-1.524
-1.36734
-1.20862
-1.07795
-0.934543
-0.861043
-0.828636
-0.816162
-0.823796
-0.589339
-0.601524
-0.658307
-0.74784
-0.859175
-0.986659
-1.16882
-1.29566
-1.43612
-1.55544
-1.6765
-1.77172
-1.8678
-1.94841
-2.00607
-2.04782
-2.05393
-2.07108
-2.04152
-2.05379
-2.0802
-2.07433
-2.16778
-2.22873
-2.23152
-2.21305
-2.16724
-2.10155
-2.00261
-1.89633
-1.77284
-1.6342
-1.48518
-1.27086
-1.14515
-0.977583
-0.90123
-0.860144
-0.858562
-0.869067
-0.665458
-0.673408
-0.761278
-0.871931
-0.985473
-1.14059
-1.31431
-1.42608
-1.583
-1.71565
-1.82523
-1.93633
-2.02175
-2.10108
-2.1646
-2.20601
-2.21278
-2.21289
-2.17282
-2.15453
-2.15278
-2.13969
-2.13751
-2.2491
-2.25575
-2.26444
-2.23503
-2.16018
-2.1022
-1.98986
-1.90448
-1.80181
-1.65321
-1.49855
-1.28684
-1.10717
-0.986314
-0.954094
-0.932078
-0.947914
-0.716553
-0.729543
-0.825116
-0.940985
-1.16317
-1.26384
-1.44557
-1.57341
-1.7213
-1.86997
-1.98065
-2.07704
-2.16666
-2.22031
-2.29855
-2.33128
-2.34592
-2.33314
-2.28451
-2.24622
-2.20466
-2.15162
-2.09861
-2.25179
-2.26104
-2.29862
-2.267
-2.23957
-2.15262
-2.1097
-2.03573
-1.87608
-1.72281
-1.51466
-1.36457
-1.17454
-1.03006
-1.00115
-0.984083
-1.0011
-0.835889
-0.849786
-0.952983
-1.12396
-1.2955
-1.43433
-1.57938
-1.72532
-1.86668
-1.97082
-2.10541
-2.18913
-2.25956
-2.31553
-2.38094
-2.42517
-2.44213
-2.42832
-2.3873
-2.33803
-2.25896
-2.15283
-1.99668
-2.1604
-2.23965
-2.301
-2.3197
-2.25956
-2.26694
-2.22519
-2.09609
-2.01949
-1.87372
-1.73595
-1.54277
-1.3583
-1.11869
-1.07715
-1.06489
-1.08776
-0.884466
-0.902097
-1.0328
-1.20006
-1.38922
-1.52983
-1.69723
-1.80069
-1.96987
-2.07607
-2.20191
-2.26204
-2.38524
-2.39213
-2.46676
-2.49467
-2.52116
-2.5034
-2.47892
-2.41087
-2.31373
-2.07305
-1.85037
-1.99471
-2.17598
-2.29499
-2.31542
-2.37232
-2.36501
-2.28059
-2.27022
-2.13329
-1.98113
-1.76912
-1.58414
-1.4329
-1.26763
-1.11177
-1.1354
-1.14747
-1.06795
-1.08565
-1.21065
-1.3717
-1.54981
-1.70046
-1.85154
-1.96937
-2.08632
-2.17073
-2.28721
-2.36063
-2.4028
-2.4901
-2.52284
-2.55417
-2.58349
-2.57135
-2.54723
-2.48491
-2.29938
-1.9311
-1.82176
-1.94017
-2.11837
-2.29858
-2.35508
-2.42496
-2.3885
-2.42213
-2.31963
-2.22347
-2.07128
-1.90987
-1.67959
-1.52319
-1.37676
-1.25123
-1.20513
-1.26888
-1.05795
-1.07626
-1.20536
-1.36747
-1.55855
-1.72044
-1.89249
-2.00293
-2.13509
-2.22892
-2.34563
-2.4101
-2.52043
-2.58666
-2.59798
-2.60784
-2.62095
-2.59574
-2.59456
-2.45732
-2.1296
-1.93697
-1.8482
-1.91089
-2.03811
-2.25913
-2.37403
-2.41473
-2.48012
-2.4368
-2.39926
-2.30956
-2.18755
-2.01625
-1.80934
-1.60275
-1.45019
-1.3824
-1.23949
-1.31899
-1.2787
-1.29123
-1.41471
-1.56288
-1.74389
-1.90107
-2.03846
-2.15633
-2.27907
-2.36825
-2.45832
-2.49486
-2.53403
-2.54897
-2.58436
-2.58885
-2.61165
-2.60255
-2.4778
-2.23898
-2.07209
-1.96393
-1.89746
-1.90113
-1.98344
-2.1118
-2.33701
-2.44304
-2.47583
-2.48102
-2.44527
-2.38926
-2.29137
-2.15507
-1.96385
-1.77717
-1.59845
-1.53411
-1.42143
-1.4781
-1.15322
-1.1837
-1.30567
-1.47881
-1.67041
-1.8109
-1.98252
-2.0881
-2.19399
-2.27866
-2.37833
-2.45354
-2.53255
-2.59454
-2.59131
-2.60446
-2.49339
-2.34031
-2.18205
-2.08295
-2.01986
-1.9642
-1.92487
-1.90981
-1.98715
-2.1253
-2.35304
-2.4492
-2.51074
-2.52137
-2.50444
-2.45419
-2.37611
-2.24673
-2.0707
-1.87436
-1.68702
-1.5445
-1.4794
-1.45836
-1.34676
-1.35342
-1.45229
-1.58923
-1.76022
-1.90379
-2.05406
-2.15806
-2.276
-2.35745
-2.42224
-2.41033
-2.37723
-2.31437
-2.2272
-2.15522
-2.05181
-2.02456
-2.0104
-1.99266
-1.98743
-1.95714
-1.94512
-1.93358
-1.9626
-2.06127
-2.12274
-2.31665
-2.43626
-2.50174
-2.52469
-2.51771
-2.5035
-2.43366
-2.3084
-2.13845
-1.93177
-1.812
-1.76301
-1.74834
-1.02255
-1.06706
-1.1511
-1.31299
-1.44609
-1.6434
-1.78866
-1.86304
-1.85511
-1.8388
-1.83691
-1.85229
-1.89929
-1.95491
-1.98044
-2.0203
-1.99874
-1.9586
-1.9646
-1.95385
-1.95692
-1.94001
-1.93737
-1.947
-1.95136
-2.03082
-2.09308
-2.16231
-2.2804
-2.39485
-2.4484
-2.4489
-2.43934
-2.34655
-2.24257
-2.12472
-1.90974
-1.75583
-1.72317
-1.7543
-1.10994
-1.09684
-1.14063
-1.216
-1.30979
-1.42754
-1.55644
-1.64501
-1.74304
-1.81566
-1.88056
-1.90232
-1.92407
-1.94762
-1.9607
-1.96891
-1.97012
-1.94537
-1.93057
-1.92316
-1.94603
-1.92461
-1.96014
-1.94307
-1.98546
-2.02977
-2.08206
-2.11873
-2.12983
-2.13076
-2.24315
-2.38933
-2.59465
-2.66942
-2.65061
-2.50272
-2.28287
-2.0933
-1.91749
-1.78541
-1.04609
-0.999981
-1.03266
-1.10998
-1.20617
-1.34354
-1.45877
-1.58205
-1.65669
-1.72867
-1.79053
-1.84558
-1.89646
-1.93809
-1.96684
-1.99286
-1.98011
-1.96921
-1.94572
-1.92041
-1.92919
-1.92843
-1.96256
-1.96623
-1.99052
-2.03774
-2.08637
-2.11267
-2.12205
-2.10272
-2.09909
-2.02984
-2.00257
-1.98899
-2.08582
-2.07334
-2.04922
-2.04612
-2.10236
-2.38321
-1.12293
-1.07879
-1.10681
-1.15808
-1.26824
-1.36376
-1.48626
-1.61178
-1.71292
-1.79858
-1.86694
-1.90961
-1.95078
-1.98542
-2.00799
-2.0069
-1.99609
-1.96849
-1.96296
-1.93687
-1.95461
-1.9246
-1.97349
-1.97727
-2.03307
-2.05587
-2.11038
-2.13101
-2.16588
-2.14158
-2.16924
-2.14238
-2.1624
-2.06207
-1.95165
-1.77836
-1.62673
-1.45866
-1.31943
-1.27972
-1.07971
-1.06097
-1.09796
-1.1575
-1.27529
-1.37954
-1.50836
-1.64096
-1.73754
-1.82281
-1.885
-1.94361
-1.99505
-2.03035
-2.04695
-2.03426
-2.02172
-1.98256
-1.99503
-1.9663
-1.98303
-1.98414
-2.00328
-2.01383
-2.05178
-2.07985
-2.11316
-2.12934
-2.16193
-2.14561
-2.15981
-2.08014
-2.06335
-1.94023
-1.90829
-1.77547
-1.67922
-1.53041
-1.42329
-1.60488
-1.12649
-1.11171
-1.15131
-1.20196
-1.31365
-1.41884
-1.54805
-1.67504
-1.77911
-1.86148
-1.93244
-1.99671
-2.04965
-2.08071
-2.09383
-2.07296
-2.06609
-2.01805
-2.04983
-2.03277
-2.06299
-2.0188
-2.0818
-2.05193
-2.12118
-2.1071
-2.16668
-2.15367
-2.19988
-2.16915
-2.21555
-2.16007
-2.19244
-2.09333
-2.0874
-1.95114
-1.87518
-1.67869
-1.53307
-1.57356
-1.13583
-1.12441
-1.17129
-1.22395
-1.33456
-1.45274
-1.57241
-1.702
-1.80505
-1.89779
-1.97843
-2.04988
-2.10665
-2.13417
-2.15197
-2.12862
-2.14794
-2.10531
-2.18195
-2.1069
-2.12308
-2.09643
-2.1146
-2.12348
-2.14618
-2.17119
-2.17485
-2.18372
-2.20968
-2.16423
-2.18434
-2.09354
-2.10499
-1.97608
-1.98459
-1.85389
-1.83532
-1.68298
-1.62357
-1.74759
-1.14658
-1.12667
-1.17936
-1.23129
-1.3398
-1.44633
-1.57119
-1.69383
-1.81017
-1.90682
-1.99759
-2.07306
-2.13761
-2.16825
-2.20204
-2.20161
-2.25966
-2.24914
-2.30304
-2.17184
-2.17723
-2.12873
-2.19257
-2.15865
-2.23178
-2.18164
-2.26563
-2.20557
-2.2681
-2.19548
-2.26713
-2.18845
-2.26549
-2.14246
-2.18381
-2.01551
-1.98801
-1.79825
-1.6957
-1.63603
-1.18118
-1.16129
-1.19842
-1.25778
-1.35429
-1.46197
-1.58761
-1.71793
-1.83497
-1.93935
-2.03637
-2.115
-2.1841
-2.21465
-2.27016
-2.28781
-2.38957
-2.34318
-2.39766
-2.20091
-2.23161
-2.17129
-2.22343
-2.22466
-2.28508
-2.26538
-2.31837
-2.31827
-2.42306
-2.42046
-2.55628
-2.51292
-2.63184
-2.53569
-2.64852
-2.52845
-2.582
-2.43028
-2.33329
-2.32857
-1.1578
-1.14577
-1.17137
-1.22837
-1.32388
-1.41503
-1.53936
-1.66236
-1.78484
-1.89363
-2.00398
-2.09256
-2.1797
-2.21972
-2.28668
-2.29619
-2.37908
-2.32359
-2.37906
-2.23383
-2.26094
-2.23315
-2.29515
-2.23552
-2.35427
-2.29253
-2.44104
-2.35266
-2.50878
-2.41522
-2.58105
-2.44979
-2.57485
-2.41914
-2.56208
-2.39994
-2.51197
-2.32818
-2.25334
-2.2219
-1.19683
-1.18826
-1.21042
-1.24832
-1.3532
-1.43398
-1.56129
-1.65758
-1.78193
-1.88256
-1.99721
-2.09084
-2.19769
-2.24415
-2.33319
-2.33125
-2.43919
-2.36917
-2.45726
-2.25684
-2.33034
-2.22213
-2.32635
-2.23711
-2.35271
-2.25913
-2.41071
-2.35703
-2.6141
-2.43983
-2.60391
-2.46148
-2.60562
-2.41914
-2.5627
-2.36578
-2.46757
-2.19097
-2.1626
-2.01104
-1.14335
-1.13161
-1.15713
-1.1671
-1.27758
-1.34234
-1.47172
-1.58182
-1.69606
-1.79953
-1.91712
-2.01042
-2.13266
-2.19656
-2.29807
-2.30816
-2.41631
-2.38083
-2.46246
-2.32239
-2.31974
-2.27097
-2.33404
-2.2194
-2.36241
-2.18728
-2.39881
-2.44834
-2.64498
-2.46002
-2.65618
-2.39836
-2.5698
-2.34682
-2.5546
-2.24689
-2.42818
-2.0396
-2.01194
-1.75737
-1.19672
-1.19153
-1.20809
-1.21642
-1.29613
-1.37546
-1.4844
-1.58232
-1.71477
-1.80395
-1.9283
-2.014
-2.13893
-2.19723
-2.32443
-2.32797
-2.44563
-2.41351
-2.47942
-2.35202
-2.32291
-2.26187
-2.3328
-2.18622
-2.35553
-2.10171
-2.498
-2.46366
-2.69819
-2.46837
-2.67163
-2.44931
-2.62727
-2.31438
-2.53685
-2.23762
-2.40333
-1.9786
-1.89503
-1.53791
-1.10642
-1.08867
-1.11835
-1.09996
-1.16604
-1.23745
-1.35062
-1.43299
-1.57631
-1.68356
-1.81964
-1.91632
-2.05703
-2.12078
-2.25697
-2.28127
-2.40771
-2.38014
-2.46933
-2.34121
-2.24296
-2.20671
-2.27583
-2.10915
-2.3214
-2.01466
-2.526
-2.48976
-2.73253
-2.46445
-2.70899
-2.40727
-2.66177
-2.32724
-2.55751
-2.09071
-2.42101
-1.8369
-1.82848
-1.27217
-1.18822
-1.18453
-1.1899
-1.19343
-1.20841
-1.26904
-1.37005
-1.436
-1.57206
-1.66905
-1.82295
-1.91697
-2.0748
-2.14691
-2.29554
-2.31305
-2.45345
-2.44787
-2.49083
-2.386
-2.24004
-2.17619
-2.23954
-2.05414
-2.28609
-1.94141
-2.51381
-2.50401
-2.84709
-2.48245
-2.78918
-2.38366
-2.75251
-2.28467
-2.65038
-2.11828
-2.37224
-1.81452
-1.79603
-0.991987
-1.05213
-1.02568
-1.07345
-0.998343
-1.06922
-1.0439
-1.20415
-1.22971
-1.39084
-1.48232
-1.66422
-1.76629
-1.94878
-2.00143
-2.19553
-2.24057
-2.393
-2.4215
-2.46883
-2.35946
-2.12779
-2.06285
-2.11962
-1.92694
-2.17023
-1.82803
-2.43344
-2.51541
-2.89263
-2.53357
-2.83608
-2.38206
-2.74469
-2.2277
-2.62326
-2.03897
-2.41142
-1.48355
-1.71576
-0.456798
-1.17668
-1.19207
-1.18516
-1.1661
-1.14041
-1.11577
-1.237
-1.25194
-1.39356
-1.47401
-1.65321
-1.76359
-1.94145
-2.04319
-2.23891
-2.28247
-2.46938
-2.50147
-2.50843
-2.4353
-2.08784
-2.00009
-2.0464
-1.82528
-2.06821
-1.7403
-2.36221
-2.50647
-2.9805
-2.58792
-2.98547
-2.42419
-2.86411
-2.24415
-2.70396
-2.02349
-2.50981
-1.56734
-1.51141
0.135917
-1.01727
-0.964956
-1.03138
-0.905064
-0.998445
-0.835951
-1.02697
-1.01258
-1.18808
-1.27165
-1.47847
-1.57853
-1.82382
-1.92853
-2.16685
-2.24245
-2.44515
-2.48254
-2.51788
-2.38269
-2.0158
-1.84018
-1.87115
-1.61997
-1.87557
-1.5689
-2.26926
-2.46618
-3.02637
-2.62266
-3.0767
-2.40997
-2.89047
-2.14149
-2.67055
-1.7652
-2.35015
-1.03197
-1.30152
1.72647
-1.16644
-1.267
-1.18427
-1.1734
-1.10189
-1.00826
-1.06218
-1.06476
-1.19201
-1.27229
-1.44783
-1.58396
-1.80866
-1.93222
-2.17884
-2.27821
-2.50082
-2.58174
-2.59595
-2.44556
-1.98321
-1.76792
-1.76682
-1.46808
-1.69779
-1.43509
-2.21528
-2.41282
-3.10779
-2.68952
-3.20142
-2.54132
-3.02291
-2.24093
-2.83344
-1.82111
-2.48283
-0.740755
-1.0375
3.49169
-1.33844
-0.945863
-1.10019
-0.792267
-0.870824
-0.694805
-0.790464
-0.79051
-0.953153
-1.03628
-1.26911
-1.39465
-1.66075
-1.81083
-2.08968
-2.24607
-2.45356
-2.60785
-2.62771
-2.34864
-1.88793
-1.57457
-1.54852
-1.18244
-1.50503
-1.25982
-2.16766
-2.32918
-3.13717
-2.7388
-3.28917
-2.53769
-3.00285
-2.12598
-2.65949
-1.40427
-1.89249
0.375666
1.21296
8.6483
-1.0097
-1.46156
-1.35034
-1.3441
-1.06939
-0.854264
-0.850927
-0.814743
-0.923609
-0.997163
-1.19521
-1.34483
-1.60707
-1.75303
-2.06018
-2.22506
-2.52564
-2.72875
-2.79511
-2.42744
-1.99194
-1.53514
-1.39594
-0.9972
-1.3427
-1.12053
-2.13654
-2.25381
-3.20829
-2.78043
-3.29973
-2.56861
-3.04868
-2.12428
-2.70188
-1.44081
-1.87142
1.41107
3.79126
15.1362
-3.57755
-0.858969
-1.16786
-0.764443
-0.729687
-0.554344
-0.610622
-0.599508
-0.758024
-0.852454
-1.07298
-1.19686
-1.47059
-1.65603
-1.97606
-2.21545
-2.55772
-2.77194
-2.81492
-2.25706
-1.83524
-1.25649
-1.09591
-0.730384
-1.18563
-1.12851
-2.22243
-2.36137
-3.35458
-2.86412
-3.33383
-2.49389
-2.87412
-1.92091
-2.27507
-0.537651
0.101856
6.01371
13.7513
31.8744
-0.23963
-0.27263
-0.30541
-0.336962
-0.381172
-0.417546
-0.461464
-0.499887
-0.533208
-0.579639
-0.612092
-0.66027
-0.680161
-0.734577
-0.734196
-0.789977
-0.775014