/*--------------------------------*- C++ -*----------------------------------*\
| =========                 |                                                 |
| \\      /  F ield         | OpenFOAM: The Open Source CFD Toolbox           |
|  \\    /   O peration     | Version:  v1806                                 |
|   \\  /    A nd           | Web:      www.OpenFOAM.com                      |
|    \\/     M anipulation  |                                                 |
\*---------------------------------------------------------------------------*/
FoamFile
{
    version     2.0;
    format      ascii;
    class       surfaceScalarField;
    location    "0.0685";
    object      phi;
}
// * * * * * * * * * * * * * * * * * * * * * * * * * * * * * * * * * * * * * //

dimensions      [0 3 -1 0 0 0 0];
oriented        oriented;


internalField   nonuniform List<scalar> 
187200
(
6.94666e-06
2.34384e-06
-9.2921e-06
4.74742e-05
-2.00342e-05
-2.04932e-05
6.89649e-05
-9.31516e-06
-1.21754e-05
8.8723e-05
-9.76011e-06
-9.99786e-06
0.000105039
-6.10592e-06
-1.02098e-05
0.000122339
-5.07822e-06
-1.22219e-05
0.000137604
-7.59471e-07
-1.45056e-05
0.000154071
4.60528e-07
-1.69275e-05
0.000167392
4.81874e-06
-1.81389e-05
0.000179532
5.8927e-06
-1.80325e-05
0.000190899
7.67597e-06
-1.9044e-05
0.000197253
1.30997e-05
-1.9453e-05
0.000187608
2.17009e-05
-1.2057e-05
0.000158472
3.66199e-05
-7.4838e-06
0.000113157
4.39868e-05
1.32788e-06
7.29097e-05
2.94827e-05
1.07644e-05
1.78999e-05
3.15217e-05
2.34879e-05
-3.59913e-05
4.6742e-05
7.1488e-06
-0.000134936
9.97078e-05
-7.63616e-07
-0.000262901
0.000134522
-6.55689e-06
-0.000504785
0.00022105
2.08336e-05
-0.000684475
0.000232769
-5.30778e-05
-0.000805836
0.000279241
-0.00015788
-0.000846061
0.000306747
-0.000266522
-0.00082702
0.000338168
-0.00035721
-0.000757228
0.000367472
-0.000437265
-0.000646227
0.000391462
-0.000502462
-0.000509997
0.000408121
-0.000544351
-0.000342813
0.000398171
-0.000565354
-0.000180921
0.000384257
-0.000546148
-4.92586e-05
0.000340899
-0.000472561
3.42699e-05
0.000298687
-0.000382215
6.61881e-05
0.000234675
-0.000266593
5.86212e-05
0.000174525
-0.000166958
3.36397e-05
0.000120663
-9.56815e-05
1.20103e-05
8.08166e-05
-5.91875e-05
-9.26136e-07
5.5186e-05
-4.22497e-05
-6.52386e-06
4.27618e-05
-3.71639e-05
-7.57729e-06
3.28236e-05
-3.17702e-05
2.26581e-05
-3.02353e-05
5.17443e-06
1.38405e-05
-1.6671e-05
4.43733e-05
-3.05392e-05
-2.86935e-05
8.543e-05
-2.43959e-05
-2.59758e-05
0.000115919
-1.4676e-05
-2.55728e-05
0.000137645
-2.9249e-06
-2.49075e-05
0.000154543
7.26375e-06
-2.92397e-05
0.000162011
2.72213e-05
-3.54486e-05
0.000165389
3.85545e-05
-4.14716e-05
0.000158706
6.32118e-05
-5.17098e-05
0.00014098
8.24284e-05
-5.88093e-05
9.87398e-05
0.000125089
-7.51734e-05
3.61401e-05
0.000166531
-9.08321e-05
-4.84177e-05
0.000203682
-9.74236e-05
-0.000149542
0.000245565
-0.000107821
-0.000273943
0.000299877
-0.000131489
-0.000457332
0.000375956
-0.000163085
-0.00063751
0.000451682
-0.000239982
-0.000828321
0.00053582
-0.000298268
-0.000996569
0.000636084
-0.000368128
-0.00115105
0.000732766
-0.000443767
-0.0012971
0.000858633
-0.000491523
-0.00139175
0.000934197
-0.000606783
-0.00144215
0.00104006
-0.000710415
-0.00142851
0.00108793
-0.000794831
-0.00134413
0.00113317
-0.000879384
-0.00120012
0.00115883
-0.000935368
-0.00100695
0.00116417
-0.000965876
-0.000779523
0.00114294
-0.000962251
-0.00054339
0.00108276
-0.000920724
-0.000317207
0.00100514
-0.000847066
-0.000124465
0.000876029
-0.000727872
3.47984e-05
0.000735225
-0.000595802
0.000118771
0.000582479
-0.000431776
0.000144388
0.000455122
-0.000306214
0.000130895
0.000335461
-0.000201305
0.000101103
0.000248714
-0.000138106
6.83754e-05
0.000186351
-9.8438e-05
4.24888e-05
0.000146184
-7.75347e-05
1.64947e-05
0.00011652
-5.77021e-05
8.03106e-05
-4.1158e-05
1.90775e-05
7.0353e-06
-1.22721e-05
5.6852e-05
-3.45492e-05
-3.37641e-05
9.78424e-05
-2.54148e-05
-3.99714e-05
0.000126676
-2.49671e-06
-4.10129e-05
0.000142814
2.8472e-05
-4.75349e-05
0.000148043
5.86886e-05
-5.66536e-05
0.000139833
0.000100837
-6.54053e-05
0.00012338
0.000138029
-8.30217e-05
9.46135e-05
0.000200265
-0.000108287
3.7894e-05
0.000267962
-0.000128814
-4.60857e-05
0.000351097
-0.000142029
-0.000148797
0.000433115
-0.000163872
-0.000303555
0.000537444
-0.000179004
-0.000482494
0.00064585
-0.000221346
-0.000683705
0.000754929
-0.000253841
-0.000869307
0.000866471
-0.000304913
-0.00103261
0.000973617
-0.000358634
-0.00117966
0.00109608
-0.000413208
-0.00131441
0.0012359
-0.000465063
-0.00144108
0.00137802
-0.000518587
-0.00155739
0.00151523
-0.000540288
-0.0016223
0.00159742
-0.000598315
-0.00163622
0.00170429
-0.000650314
-0.00160002
0.00172993
-0.000678195
-0.00150495
0.00175237
-0.000714266
-0.00136518
0.0017431
-0.000724039
-0.00118902
0.00170204
-0.000714034
-0.000988376
0.00162434
-0.00068204
-0.000777238
0.00150632
-0.000634694
-0.000557523
0.00135908
-0.000573656
-0.000372571
0.00118462
-0.000493544
-0.00021258
0.00100281
-0.000427579
-9.58364e-05
0.000803344
-0.000337609
-1.33906e-05
0.000641797
-0.000269121
2.67713e-05
0.000493311
-0.000198012
4.16835e-05
0.000385674
-0.000151872
4.26179e-05
0.000306193
-0.000120776
3.36327e-05
0.000254699
-9.95306e-05
1.52506e-05
0.000205449
-7.05469e-05
0.000136536
-4.09748e-05
2.05584e-05
3.91298e-06
-1.74358e-05
5.83955e-05
-2.59451e-05
-4.64409e-05
9.85675e-05
-7.08455e-06
-5.8502e-05
0.000121049
4.05923e-05
-6.55706e-05
0.000125098
9.63863e-05
-7.1963e-05
0.000113981
0.000155105
-8.5299e-05
9.34101e-05
0.000231884
-0.000110476
5.53381e-05
0.00031206
-0.000135959
-2.66971e-07
0.00042388
-0.000168011
-8.16106e-05
0.000536676
-0.000187372
-0.000197224
0.000669381
-0.000202671
-0.000345308
0.000800527
-0.000219329
-0.000507747
0.000931618
-0.000231734
-0.000664191
0.00104997
-0.000247678
-0.000816524
0.0011767
-0.000269435
-0.00095912
0.00130461
-0.000295541
-0.00109154
0.00142783
-0.000321791
-0.00120924
0.00155082
-0.000337051
-0.00131532
0.00168543
-0.000343445
-0.0014139
0.00181136
-0.000334758
-0.00151926
0.00191046
-0.000289866
-0.00157907
0.00194873
-0.0002915
-0.00159173
0.00201132
-0.000294377
-0.00156624
0.0019839
-0.000279455
-0.00149252
0.00195982
-0.00028117
-0.00138988
0.00190709
-0.000266618
-0.00126366
0.00182456
-0.000248739
-0.00112199
0.00171167
-0.000229005
-0.000968566
0.00156186
-0.000208968
-0.000802734
0.00139763
-0.000204383
-0.000625249
0.00121053
-0.000203397
-0.000451077
0.00102957
-0.000200934
-0.000298221
0.000847154
-0.000196666
-0.000174444
0.000706647
-0.000188627
-8.89517e-05
0.0005765
-0.00016868
-3.02532e-05
0.000475592
-0.000148616
6.25222e-06
0.000403212
-0.000133524
1.99175e-05
0.000349885
-0.000108852
1.65344e-05
0.000286162
-7.733e-05
0.000191421
-3.83503e-05
2.06416e-05
1.91671e-05
-3.58957e-05
6.00745e-05
1.05969e-05
-7.5975e-05
0.000102326
4.16133e-05
-9.09492e-05
0.000120594
0.000120959
-9.86342e-05
0.00011672
0.000205289
-0.000105029
8.8112e-05
0.000304044
-0.000120332
4.84612e-05
0.000422568
-0.000151034
8.84703e-06
0.000534662
-0.000182989
-3.83474e-05
0.000679832
-0.000208758
-0.000115488
0.000831041
-0.000217224
-0.000213254
0.000985259
-0.000218112
-0.000322614
0.00112422
-0.000214332
-0.000452602
0.00126672
-0.000205114
-0.000592709
0.00139485
-0.000204773
-0.00073146
0.001514
-0.000198555
-0.000852916
0.0016192
-0.000193135
-0.000955699
0.00170799
-0.000177379
-0.00103525
0.00177638
-0.000146002
-0.00112517
0.00186006
-8.47177e-05
-0.0012153
0.00192721
-2.57192e-05
-0.00133864
0.00196955
6.42572e-05
-0.00140504
0.00192155
9.35685e-05
-0.00143528
0.00193749
0.00010407
-0.00144134
0.00187828
0.000111673
-0.00141217
0.00183455
9.60954e-05
-0.00136656
0.00177338
8.81068e-05
-0.00130257
0.00168546
7.51017e-05
-0.00123241
0.00158089
6.06239e-05
-0.00113771
0.0014459
2.12664e-05
-0.00101879
0.00130244
-2.37323e-05
-0.000873422
0.00113966
-7.44992e-05
-0.000709106
0.000989907
-0.000124648
-0.000544942
0.000836875
-0.000153886
-0.000385285
0.000720196
-0.000173205
-0.000249222
0.000621002
-0.000180565
-0.000136633
0.000528334
-0.000165331
-5.54829e-05
0.000469044
-0.000146982
-5.4849e-06
0.000421448
-0.000121561
9.27901e-06
0.00035274
-8.13417e-05
0.000235241
-3.45414e-05
1.48483e-05
6.62734e-05
-6.19547e-05
6.15588e-05
7.85983e-05
-0.000114712
0.000108271
0.000133929
-0.000139028
0.000127526
0.000239188
-0.000137484
0.000119945
0.000352832
-0.000139963
8.37766e-05
0.000489499
-0.000149286
5.9005e-05
0.000634205
-0.000186865
2.24929e-05
0.000785647
-0.000214472
-2.65723e-05
0.000952943
-0.000224046
-9.1727e-05
0.00110652
-0.000210322
-0.000165144
0.00125061
-0.000191933
-0.000249853
0.00137796
-0.000169032
-0.0003376
0.00149625
-0.000141788
-0.000421379
0.00159074
-0.000112116
-0.000502848
0.0016744
-7.89295e-05
-0.000574161
0.00173068
-4.01707e-05
-0.000669388
0.00177275
3.04688e-05
-0.000771778
0.00178778
9.0986e-05
-0.000867976
0.00179202
0.000164235
-0.000956354
0.00177533
0.000240259
-0.00108394
0.00179747
0.000299659
-0.00117985
0.00170126
0.000316197
-0.00124529
0.00168781
0.000315122
-0.00129646
0.00161514
0.000314315
-0.00131943
0.00156283
0.000294684
-0.00133052
0.00150644
0.000278032
-0.00132776
0.00143586
0.000246839
-0.00131517
0.00135849
0.000209816
-0.00127877
0.00125862
0.000150888
-0.00119598
0.00115702
6.26345e-05
-0.00108316
0.00103898
-1.21407e-05
-0.000923616
0.000926151
-9.57888e-05
-0.000748523
0.000814853
-0.000153071
-0.000559007
0.000718876
-0.000188196
-0.000382384
0.000649391
-0.00020501
-0.000232228
0.000568456
-0.000190278
-0.000111106
0.000519732
-0.000171811
-3.17089e-05
0.000477535
-0.000135485
5.61019e-06
0.000403901
-8.84795e-05
0.000274072
-3.32212e-05
1.74777e-05
0.000144242
-9.54465e-05
8.43992e-05
0.000181473
-0.000169796
0.000133204
0.000269002
-0.000183877
0.000154193
0.000391791
-0.000173592
0.000145874
0.000527612
-0.000166462
0.000106063
0.000700679
-0.000171369
9.38474e-05
0.000851114
-0.000204694
7.20875e-05
0.00102142
-0.000214014
5.18128e-05
0.00117252
-0.000199302
9.26869e-06
0.00131485
-0.000165785
-4.71543e-05
0.00143882
-0.000131787
-0.000115282
0.00154076
-9.46707e-05
-0.00018569
0.00162326
-5.65985e-05
-0.000258308
0.00167449
-1.11292e-05
-0.000328394
0.00170239
4.20942e-05
-0.000391587
0.0017009
9.29736e-05
-0.000455603
0.00168421
0.000152556
-0.000525248
0.00163907
0.000218358
-0.000627628
0.00160072
0.000293681
-0.000732196
0.00152428
0.00035562
-0.000858219
0.00151646
0.000407037
-0.000992258
0.00140723
0.000428071
-0.00107019
0.00135677
0.000408971
-0.00116676
0.00131618
0.000395532
-0.00123704
0.00127506
0.000358059
-0.00130137
0.00124451
0.000326258
-0.00135095
0.00120432
0.000281114
-0.00138483
0.00116122
0.000231146
-0.00139527
0.00110433
0.000164731
-0.00134771
0.00104324
6.62231e-05
-0.00126333
0.00096323
-8.63586e-06
-0.00112715
0.000878014
-8.80368e-05
-0.000944945
0.000793859
-0.000161214
-0.000728862
0.000704114
-0.00020132
-0.000500146
0.000660817
-0.000240143
-0.000319253
0.000611817
-0.000224254
-0.000159989
0.000563766
-0.000203298
-5.46834e-05
0.000529891
-0.000157662
6.22314e-07
0.000451544
-0.000102948
0.000311087
-3.63931e-05
2.82193e-05
0.000242864
-0.000126841
0.000113538
0.000312462
-0.000216306
0.000179306
0.0004299
-0.000226666
0.000206238
0.00056453
-0.000199672
0.000193876
0.000718382
-0.000178407
0.000183046
0.000891625
-0.000180116
0.00018804
0.00104318
-0.000197057
0.000183412
0.00121265
-0.000186599
0.000163479
0.00134601
-0.000153559
0.000122909
0.00146456
-0.000109146
7.43351e-05
0.0015583
-7.0913e-05
1.77606e-05
0.00162042
-2.30908e-05
-4.4517e-05
0.00165482
3.07191e-05
-0.000108633
0.00165304
8.55688e-05
-0.0001713
0.0016273
0.000137758
-0.000236351
0.00157313
0.000192821
-0.000302163
0.00150517
0.000244855
-0.000374019
0.00142315
0.00028778
-0.000465026
0.0013522
0.000339527
-0.000570953
0.00125567
0.000374543
-0.000681814
0.00121868
0.00040864
-0.000842811
0.00115376
0.00041446
-0.000947567
0.00106933
0.000392193
-0.00107871
0.00107668
0.000370645
-0.00118759
0.00104795
0.000335986
-0.0012853
0.00104163
0.000300589
-0.00136877
0.00102678
0.000261018
-0.00143615
0.00100679
0.000221803
-0.00147443
0.000981449
0.000161164
-0.00146134
0.000939124
9.1021e-05
-0.00140168
0.000883902
1.96717e-05
-0.00128576
0.000815267
-5.31768e-05
-0.0011017
0.000750994
-0.000141191
-0.000889717
0.000688084
-0.000195953
-0.000639782
0.000646614
-0.000235732
-0.000412191
0.00063947
-0.000255245
-0.000215757
0.000594126
-0.000226795
-7.95717e-05
0.000574491
-0.000180786
-6.18199e-06
0.00049365
-0.000115496
0.000345691
-4.07851e-05
4.70803e-05
0.000351464
-0.00015568
0.000154467
0.000464825
-0.00025975
0.000248226
0.000603408
-0.000267267
0.000290606
0.000744129
-0.000221979
0.000286361
0.000908178
-0.000185551
0.000283691
0.00106701
-0.000172716
0.000278049
0.0012134
-0.000164585
0.000282709
0.00135327
-0.000145286
0.000274863
0.00146214
-0.000108288
0.000242383
0.00155446
-5.74165e-05
0.000198313
0.00160618
-3.80304e-06
0.000144412
0.00162492
4.94078e-05
7.77013e-05
0.00161706
0.000104473
9.86738e-06
0.00156981
0.000151062
-5.76609e-05
0.00149913
0.000195696
-0.000128801
0.00140721
0.00023706
-0.00020299
0.00130961
0.000269751
-0.000278512
0.00120722
0.000291447
-0.000362728
0.00112379
0.000312624
-0.00047428
0.00103523
0.000331983
-0.000581319
0.000980468
0.000345254
-0.00073881
0.000963235
0.000348018
-0.000882736
0.000879309
0.000333945
-0.00102369
0.000906781
0.000310849
-0.00115638
0.000890442
0.000290207
-0.00127128
0.000898275
0.000258247
-0.00137823
0.000893767
0.000239964
-0.00146756
0.000892022
0.000204095
-0.00153507
0.000873541
0.000175418
-0.00155803
0.000839878
0.000122207
-0.00152021
0.00079073
5.5349e-05
-0.00141715
0.000737532
-2.53257e-05
-0.00123937
0.000679816
-0.000106601
-0.00101206
0.000635322
-0.000174549
-0.000745862
0.000604348
-0.000223932
-0.000490646
0.000632647
-0.000248393
-0.000268587
0.00061743
-0.000245364
-0.0001018
0.000606252
-0.000198548
-1.45407e-05
0.000536184
-0.000129793
0.000378807
-4.76558e-05
6.49322e-05
0.00045668
-0.000170148
0.000198465
0.000621576
-0.000290284
0.000318177
0.000776895
-0.000293199
0.000374827
0.000919516
-0.000232037
0.000388908
0.00107025
-0.00017615
0.000385045
0.00121007
-0.000139202
0.000376946
0.00134309
-0.000121592
0.000372413
0.0014529
-9.5092e-05
0.000363462
0.00152995
-5.88503e-05
0.000345981
0.00157808
-6.14082e-06
0.000307581
0.00160236
4.22138e-05
0.000237313
0.00158936
0.000105821
0.000168422
0.00153448
0.000151464
9.43929e-05
0.00145109
0.000192756
1.83155e-05
0.00135058
0.000224631
-6.1057e-05
0.00123816
0.000248428
-0.000141613
0.00112901
0.000261155
-0.000223198
0.00102597
0.000262835
-0.000313371
0.000949509
0.000264453
-0.000426928
0.000883463
0.000265327
-0.000549365
0.000832693
0.000270212
-0.000684299
0.000824652
0.000273518
-0.000848106
0.000768226
0.000274889
-0.000980639
0.000777957
0.000261357
-0.00112053
0.000773
0.000257336
-0.00123851
0.00078352
0.000232731
-0.00135786
0.00078273
0.000230388
-0.00146803
0.000782219
0.000219971
-0.00155511
0.000758676
0.000201945
-0.00160358
0.000728604
0.000159751
-0.00159248
0.000691173
8.84538e-05
-0.00150996
0.000650872
4.13419e-06
-0.00135358
0.000609879
-8.6441e-05
-0.00112706
0.000574949
-0.000166147
-0.00085963
0.000542218
-0.000205301
-0.000568343
0.000574263
-0.000232904
-0.000319328
0.000612697
-0.000244281
-0.000127025
0.000619951
-0.000206003
-2.27319e-05
0.000568399
-0.000136507
0.000407992
-5.19164e-05
7.99464e-05
0.000553752
-0.000177018
0.000242321
0.00077002
-0.000310819
0.000388041
0.000940151
-0.000308977
0.000463645
0.00107711
-0.000233194
0.000493335
0.00120558
-0.00016502
0.000489059
0.00132224
-0.000107889
0.000479735
0.00142938
-7.69614e-05
0.000463378
0.00150948
-4.02225e-05
0.00043601
0.00156237
-5.05765e-06
0.000401366
0.00158309
2.96285e-05
0.000366969
0.00155996
7.68008e-05
0.000310832
0.00151025
0.000135254
0.000234541
0.00143488
0.000175892
0.000147249
0.001327
0.00021138
6.18429e-05
0.00120681
0.000229174
-2.56078e-05
0.00108829
0.000237321
-0.000113605
0.00098177
0.000235234
-0.000205699
0.000889678
0.000228389
-0.000306391
0.000827561
0.00022264
-0.000410378
0.000772184
0.000215266
-0.00052647
0.000734214
0.000214571
-0.000635364
0.000713648
0.000219898
-0.000797865
0.000697354
0.000233373
-0.000925388
0.000673749
0.000231732
-0.00105881
0.000668272
0.000238149
-0.0011829
0.000670723
0.000236886
-0.00130985
0.000672482
0.000237197
-0.00143722
0.000661067
0.000248528
-0.00154735
0.000641964
0.000226837
-0.00161922
0.000617992
0.00018249
-0.001644
0.000585642
0.000130305
-0.0015931
0.000560682
3.92947e-05
-0.00145387
0.000523793
-5.31519e-05
-0.00121709
0.000499349
-0.000161177
-0.000932792
0.000474044
-0.000216122
-0.000630924
0.000503778
-0.000231382
-0.000366373
0.000569644
-0.000221498
-0.00014964
0.000622075
-0.000218857
-2.93217e-05
0.000589986
-0.000141905
0.000437501
-5.88309e-05
9.24481e-05
0.00063262
-0.000171317
0.00028136
0.000899885
-0.000318776
0.000452163
0.00108408
-0.000314729
0.000546263
0.00120797
-0.000224958
0.000587145
0.00131234
-0.000147643
0.000588422
0.00140048
-7.95205e-05
0.000576025
0.00147914
-3.73675e-05
0.000547254
0.00153203
6.21995e-06
0.000507295
0.00155935
4.29793e-05
0.000454765
0.00154742
8.82047e-05
0.000398072
0.00150743
0.000109221
0.000331887
0.00142896
0.000147468
0.000263021
0.00131994
0.000183808
0.000178842
0.00120273
0.00020845
8.90509e-05
0.00107962
0.000216984
-3.12369e-06
0.000966272
0.000214188
-9.32089e-05
0.000867464
0.000204392
-0.000189986
0.000789973
0.000196482
-0.000292613
0.000740224
0.000189966
-0.000397596
0.00069289
0.000184278
-0.000501034
0.000655132
0.00018252
-0.000600358
0.000624518
0.000188454
-0.000731696
0.000620863
0.00020783
-0.000846944
0.00057771
0.000211286
-0.000968482
0.000560776
0.000229034
-0.00108945
0.000557597
0.000234096
-0.00122709
0.000547616
0.000262503
-0.0013662
0.000538716
0.000261461
-0.00149181
0.000525113
0.00024246
-0.0015954
0.000511349
0.000210229
-0.00163981
0.000498176
0.000131877
-0.00162081
0.000480602
6.10779e-05
-0.00152006
0.000446693
-2.36477e-05
-0.00132705
0.000422514
-0.000116173
-0.00103519
0.000407801
-0.000225618
-0.00070153
0.000423733
-0.000253613
-0.000400758
0.000494761
-0.000225889
-0.000172847
0.000591615
-0.00019745
-3.67251e-05
0.000598817
-0.000144954
0.000462475
-6.16989e-05
0.000101215
0.000690691
-0.000159286
0.000312533
0.00100596
-0.000317389
0.000508501
0.00119846
-0.000310351
0.000622255
0.00130836
-0.000214145
0.000669822
0.00139141
-0.000126643
0.000676568
0.00145257
-5.88361e-05
0.000661205
0.00149955
-5.04595e-06
0.000625276
0.00152313
4.48311e-05
0.000572899
0.00152406
8.7671e-05
0.00050534
0.00149315
0.000121825
0.000429808
0.00143006
0.000152905
0.000348997
0.00133704
0.00017273
0.000268603
0.00121999
0.000180346
0.000187065
0.00109181
0.000192456
9.91862e-05
0.000972495
0.000195001
1.10006e-05
0.000865659
0.000188799
-7.79249e-05
0.000778383
0.000178006
-0.000174961
0.000712937
0.000174072
-0.000269957
0.000664438
0.000170782
-0.000368491
0.000619566
0.000171858
-0.000458067
0.000575156
0.000169551
-0.000553335
0.000545775
0.000174011
-0.000645875
0.000527476
0.000185927
-0.000745632
0.00047976
0.000197708
-0.000855046
0.00045626
0.00021393
-0.00097567
0.00043744
0.00024078
-0.00111349
0.000427898
0.000257538
-0.00125762
0.000421012
0.000261831
-0.00140104
0.000416027
0.000252511
-0.00151999
0.000417552
0.000212747
-0.00160999
0.000413952
0.000174223
-0.00162543
0.000392047
0.000103989
-0.00157109
0.000349478
4.28751e-05
-0.00140968
0.000312795
-5.16927e-05
-0.00114256
0.000302358
-0.000161669
-0.000793251
0.000328389
-0.00025397
-0.000451457
0.000412866
-0.000259899
-0.000194967
0.000526723
-0.000191598
-4.414e-05
0.000593951
-0.00014596
0.000486243
-6.79083e-05
0.00010529
0.000726567
-0.000141166
0.000335912
0.0010817
-0.00030637
0.000556164
0.00128358
-0.000305374
0.000686706
0.00138036
-0.000202548
0.000740835
0.00144253
-0.000105245
0.000746295
0.00147915
-3.20344e-05
0.000725789
0.0015018
1.82569e-05
0.000679272
0.00149501
7.46314e-05
0.000619129
0.00147092
0.000113285
0.000546998
0.00141676
0.000148523
0.000461221
0.00134047
0.000175365
0.000366765
0.00123698
0.000194523
0.000271816
0.00111898
0.000195961
0.000190168
0.000992604
0.000180853
0.000105333
0.000879633
0.000177697
2.44788e-05
0.00078199
0.000164524
-6.12715e-05
0.000704479
0.000159655
-0.000152766
0.000644126
0.000160306
-0.000236461
0.000588327
0.000159807
-0.000324651
0.0005443
0.000163455
-0.000405329
0.000494595
0.00016124
-0.000483897
0.000459916
0.000164427
-0.00054828
0.000427656
0.000164202
-0.000632471
0.00038413
0.000179821
-0.000730602
0.000357857
0.000196533
-0.000840795
0.000323505
0.000224129
-0.000971979
0.000314396
0.000244685
-0.00111361
0.000309805
0.000252837
-0.00126151
0.000320034
0.000243891
-0.0014109
0.000328171
0.000238774
-0.00152609
0.000317343
0.000211802
-0.00159623
0.000278208
0.00018398
-0.0015887
0.000225293
0.000116649
-0.00147436
0.000175086
2.33758e-05
-0.001234
0.000149079
-8.70801e-05
-0.000891511
0.000181916
-0.000196021
-0.000509401
0.000296291
-0.000265534
-0.000218738
0.000456001
-0.000219939
-4.89531e-05
0.000570171
-0.000146006
0.000510412
-7.31224e-05
0.000109286
0.000735997
-0.000118716
0.000355351
0.00112432
-0.000288686
0.000594189
0.0013381
-0.000293358
0.000741155
0.00142837
-0.000194969
0.000800701
0.00146961
-8.66237e-05
0.00080437
0.00147971
-4.23364e-06
0.000777957
0.00147377
5.44445e-05
0.0007308
0.00144565
9.65208e-05
0.000664239
0.0014012
0.000136277
0.000582355
0.0013333
0.000165343
0.000487784
0.00124546
0.000189579
0.000384759
0.00113668
0.000203321
0.00027988
0.00102059
0.000203269
0.000189163
0.000900733
0.000182589
0.000107787
0.000796088
0.000164921
3.66346e-05
0.000701151
0.000151992
-3.8748e-05
0.000632659
0.000147203
-0.000119424
0.000573005
0.000151798
-0.000197745
0.000514852
0.000151796
-0.000268194
0.000461193
0.000153557
-0.000338872
0.000411551
0.000153722
-0.000401074
0.000375767
0.000146351
-0.000457301
0.000338266
0.000145617
-0.000522471
0.00029444
0.000154859
-0.000603874
0.000267257
0.000172003
-0.000704109
0.000230103
0.000193637
-0.000816817
0.00021187
0.000215234
-0.000949856
0.000218254
0.000224589
-0.00110122
0.000232686
0.000238714
-0.00125052
0.000234561
0.000242907
-0.00139495
0.000213204
0.000248571
-0.00150782
0.000171008
0.000220067
-0.00155608
0.00010668
0.000166868
-0.00150038
3.50503e-05
8.43378e-05
-0.0013101
-1.57331e-05
-2.54701e-05
-0.000997724
1.01669e-07
-0.000130557
-0.000592667
0.000120677
-0.000229443
-0.000245565
0.000360052
-0.000251153
-6.00062e-05
0.000526988
-0.000142375
0.000523367
-7.29605e-05
0.000111298
0.000714641
-8.99423e-05
0.000366966
0.00112903
-0.000260372
0.000619554
0.00135669
-0.000271172
0.00077993
0.00144418
-0.000176189
0.000846908
0.00147259
-6.99624e-05
0.00084415
0.00145962
2.28486e-05
0.000810404
0.00143261
7.49039e-05
0.000752105
0.00138242
0.000121528
0.000680291
0.00132201
0.000151002
0.000599341
0.0012407
0.000173549
0.000505128
0.0011429
0.000196778
0.000403322
0.00103436
0.000204122
0.000301048
0.000921321
0.000201538
0.000205776
0.000810915
0.00018509
0.000124688
0.000715974
0.000161203
5.10386e-05
0.000630048
0.000144753
-1.84221e-05
0.000560967
0.000141153
-8.36848e-05
0.00049858
0.000139688
-0.000145678
0.000436349
0.000140495
-0.000206449
0.000383958
0.000138006
-0.000271058
0.0003417
0.00013446
-0.000322913
0.000298752
0.000128871
-0.000371393
0.000260287
0.000126458
-0.000424451
0.00021775
0.000129748
-0.000485973
0.000185633
0.000143146
-0.000575532
0.00015517
0.000164491
-0.000670504
0.000129075
0.000177768
-0.000796892
0.000141827
0.000202814
-0.00093102
0.000141202
0.000225613
-0.0010838
0.000130818
0.000256524
-0.00124225
0.000107096
0.000264555
-0.00138398
5.87994e-05
0.000253946
-0.00147678
-1.24708e-05
0.000211951
-0.00147618
-0.000105507
0.00013995
-0.00134779
-0.000184268
4.01493e-05
-0.00106939
-0.000206491
-7.18066e-05
-0.000679918
-9.70791e-05
-0.000171718
-0.000278132
0.000183033
-0.000224768
-6.1714e-05
0.000470234
-0.000159664
0.000534511
-7.28566e-05
0.000118659
0.000633106
-3.71242e-05
0.000382385
0.00108967
-0.000224368
0.000646954
0.00133857
-0.000246451
0.000825328
0.00142329
-0.000157489
0.000896773
0.00143875
-3.76018e-05
0.000892279
0.00140887
5.52404e-05
0.000853068
0.00136172
0.000110103
0.000794413
0.00129518
0.000145891
0.000721157
0.00122751
0.000167761
0.000633968
0.00114482
0.000183074
0.000534079
0.00105256
0.000190227
0.000424545
0.000946197
0.000197698
0.000315899
0.000839874
0.000190093
0.000217976
0.000732859
0.000175978
0.000140686
0.000637778
0.000155486
7.07278e-05
0.000557242
0.000142764
9.22511e-06
0.000488775
0.000133696
-4.43606e-05
0.000422607
0.000129558
-0.000101384
0.000370042
0.000123332
-0.000156999
0.000320957
0.000118616
-0.000206679
0.000276912
0.000114468
-0.000251738
0.000233825
0.000109986
-0.000294791
0.000194651
0.00010869
-0.000342005
0.000155594
0.000109369
-0.000392892
0.000119351
0.000117169
-0.000463151
8.53756e-05
0.000140053
-0.000548094
5.3152e-05
0.000160865
-0.000644796
5.28258e-05
0.000185703
-0.000764714
4.07682e-05
0.000220351
-0.000907155
2.54959e-05
0.000247762
-0.0010673
-2.1753e-07
0.000267456
-0.00122577
-5.01294e-05
0.000267402
-0.00135478
-0.000125363
0.000241905
-0.00140907
-0.000234812
0.000183598
-0.00134441
-0.000342967
9.40367e-05
-0.00113198
-0.000404979
-1.39425e-05
-0.000776606
-0.000334997
-0.000117457
-0.000353992
-6.29203e-05
-0.000176662
-6.7818e-05
0.000360949
-0.00017689
0.00052628
-5.95879e-05
0.000117619
0.000520689
-5.20132e-06
0.000367846
0.00103608
-0.000196643
0.000643258
0.00129755
-0.000234399
0.000835232
0.00138516
-0.000153841
0.000915852
0.00139189
-3.37586e-05
0.000909206
0.00134828
6.7239e-05
0.000864643
0.00128277
0.000123515
0.000790371
0.00121016
0.0001593
0.000702523
0.00113212
0.00018323
0.00061429
0.00103641
0.000196637
0.000526012
0.000938573
0.000202265
0.00043584
0.000837447
0.000198922
0.000346526
0.000739958
0.00018923
0.000264598
0.000650471
0.000164316
0.00019178
0.000567422
0.000143176
0.000123989
0.000495008
0.000130026
5.33205e-05
0.000429336
0.000130107
-1.35473e-05
0.000372707
0.000116768
-6.89507e-05
0.000319948
0.000105497
-0.000112266
0.000265685
9.85874e-05
-0.00015257
0.00022077
9.64467e-05
-0.000189781
0.000178997
9.20373e-05
-0.000229207
0.000141009
9.30674e-05
-0.000267069
0.000102957
9.04978e-05
-0.000315568
6.59691e-05
0.000101881
-0.000371905
2.54664e-05
0.000116246
-0.000450987
-8.7686e-06
0.000141003
-0.000535227
-3.59062e-05
0.000172971
-0.000642945
-5.87671e-05
0.000207253
-0.0007664
-9.46138e-05
0.000243564
-0.000910569
-0.000131006
0.000274958
-0.00106691
-0.000185313
0.000291528
-0.00121527
-0.000258705
0.000281696
-0.00130781
-0.000379768
0.000237496
-0.00129807
-0.000514548
0.00016184
-0.00113111
-0.000640763
6.88318e-05
-0.000800383
-0.000629009
-3.67187e-05
-0.000385624
-0.000344385
-0.000133292
-5.79104e-05
0.000179123
-0.000145889
0.000508725
-4.03558e-05
0.000140697
0.000336486
4.35056e-05
0.000371085
0.000934757
-0.000129062
0.000650732
0.00120925
-0.000191341
0.000846323
0.00130273
-0.000113164
0.000938445
0.00129748
2.29059e-06
0.000935826
0.001249
0.000101905
0.000895177
0.00117172
0.000151696
0.000833314
0.00108796
0.000184056
0.00076679
0.00100459
0.000194053
0.000689176
0.000918169
0.000195858
0.000599653
0.000836694
0.000191402
0.000499182
0.000755071
0.000182848
0.000395614
0.00067356
0.000169966
0.00029795
0.000598488
0.000149647
0.000217051
0.000524832
0.000123489
0.000146699
0.000458145
0.000107215
8.13929e-05
0.000390733
0.00010391
2.31534e-05
0.000326789
0.000104158
-2.18248e-05
0.000271168
9.37583e-05
-6.39964e-05
0.000222112
8.5745e-05
-0.0001014
0.000175591
8.25824e-05
-0.000136527
0.000134627
7.94962e-05
-0.000170659
9.60293e-05
7.91119e-05
-0.000208274
6.15684e-05
7.90031e-05
-0.000252458
2.09131e-05
8.92398e-05
-0.000304356
-2.08814e-05
9.82452e-05
-0.000362004
-6.18738e-05
0.000110753
-0.000427242
-0.000111094
0.000140425
-0.000509832
-0.000154083
0.000177906
-0.000616611
-0.000205067
0.000217233
-0.000754167
-0.000249829
0.000256379
-0.000914761
-0.000316054
0.000291336
-0.00108587
-0.000400356
0.000312759
-0.00121491
-0.000557271
0.000306542
-0.00126815
-0.000724718
0.000263409
-0.00118169
-0.00090525
0.000178028
-0.000918601
-0.00095717
6.50711e-05
-0.00048528
-0.000736643
-4.10635e-05
-9.53727e-05
-0.00012113
-8.96547e-05
0.000418445
-5.09236e-06
0.000110709
0.000215257
1.05201e-05
0.000327959
0.000856091
-0.000138583
0.000612718
0.0011304
-0.000205909
0.000824698
0.00122949
-0.000138734
0.000931793
0.00121581
-2.54248e-05
0.000952304
0.00115671
7.1772e-05
0.000914391
0.00106467
0.000144958
0.000850517
0.000984692
0.000167145
0.000771372
0.000907789
0.00017595
0.000681591
0.000831208
0.000176742
0.000590168
0.00075489
0.000173228
0.000497683
0.000681586
0.00016597
0.000409536
0.000608961
0.000152745
0.000325963
0.000545651
0.00013641
0.000249382
0.000481414
0.000119999
0.000187374
0.000423525
9.66286e-05
0.000135361
0.000360174
8.25724e-05
8.14997e-05
0.000301715
7.89354e-05
2.91492e-05
0.000242173
8.13461e-05
-1.1164e-05
0.000185778
7.6647e-05
-5.30829e-05
0.000144461
7.30489e-05
-8.64622e-05
9.74306e-05
7.05753e-05
-0.000120778
6.02583e-05
7.00864e-05
-0.00015496
2.31255e-05
7.26243e-05
-0.000195135
-1.97088e-05
8.07961e-05
-0.000245881
-5.64544e-05
8.63188e-05
-0.000302098
-9.79052e-05
9.22487e-05
-0.000369771
-0.000151857
0.000108436
-0.000445725
-0.000215804
0.000137675
-0.000530125
-0.000294532
0.000173865
-0.000621822
-0.00037636
0.000218227
-0.000730046
-0.00047772
0.00026989
-0.000862004
-0.000588045
0.000319646
-0.00101247
-0.000749779
0.000342972
-0.00112774
-0.000942538
0.00033309
-0.00112012
-0.00118041
0.000267542
-0.000945792
-0.00129321
0.000161712
-0.000566251
-0.00115754
4.13604e-05
-0.000137422
-0.000525664
-2.42956e-05
0.000227294
5.37281e-05
8.09751e-05
0.000119384
1.48969e-05
0.000318087
0.000743091
-0.000124113
0.000590168
0.00104291
-0.000184591
0.000815322
0.00115119
-0.000146863
0.000933814
0.00114061
-4.32975e-05
0.000963191
0.00107749
4.98516e-05
0.0009209
0.000983343
0.000123623
0.000856567
0.000896365