/*--------------------------------*- C++ -*----------------------------------*\
| =========                 |                                                 |
| \\      /  F ield         | OpenFOAM: The Open Source CFD Toolbox           |
|  \\    /   O peration     | Version:  v1806                                 |
|   \\  /    A nd           | Web:      www.OpenFOAM.com                      |
|    \\/     M anipulation  |                                                 |
\*---------------------------------------------------------------------------*/
FoamFile
{
    version     2.0;
    format      ascii;
    class       volVectorField;
    location    "0.0685";
    object      U;
}
// * * * * * * * * * * * * * * * * * * * * * * * * * * * * * * * * * * * * * //

dimensions      [0 1 -1 0 0 0 0];


internalField   nonuniform List<vector> 
64000
(
(-0.00889596 -0.00992922 -0.00637446)
(0.0137098 -0.0102885 -0.00381546)
(0.0200549 -0.00356178 0.000999458)
(0.0235344 -0.00360007 0.00142106)
(0.0240906 -0.00263613 0.00195943)
(0.0240586 -0.00284861 0.00277085)
(0.0234212 -0.00346482 0.00304562)
(0.0200512 -0.00396458 0.00317676)
(0.0185706 -0.00497382 0.00459061)
(0.0115538 -0.00439451 0.00394801)
(0.00603401 -0.00550548 0.00635105)
(-0.00746527 -0.00906322 0.00630803)
(-0.027673 -0.0128452 0.00652948)
(-0.0512905 -0.0179501 0.00405361)
(-0.0821812 -0.0181824 0.00513076)
(-0.11732 -0.0157547 0.00274959)
(-0.149144 0.000885524 0.00210811)
(-0.192248 -0.00430394 -0.00230215)
(-0.195675 -0.0100255 0.00600659)
(-0.253602 -0.0289252 -0.0159471)
(-0.218847 -0.0239857 -0.0249733)
(-0.10545 -0.0250237 -0.0395386)
(-0.102244 -0.0105331 -0.0270259)
(-0.0978682 -0.00435948 -0.037262)
(-0.111792 0.00236815 -0.0479885)
(-0.107144 0.0108256 -0.0570169)
(-0.0944011 0.020662 -0.0618716)
(-0.0603658 0.0322154 -0.0571047)
(-0.0281435 0.0380658 -0.0530321)
(0.0150983 0.0532488 -0.0347397)
(0.0637469 0.0450512 -0.032054)
(0.0966376 0.0374083 -0.0230777)
(0.112546 0.0263184 -0.0115895)
(0.108009 0.0127891 -0.00420214)
(0.093888 0.00459671 0.00184842)
(0.0742088 -0.00360576 0.00440871)
(0.0533374 -0.00704909 0.00614454)
(0.0319827 -0.0061134 0.00699313)
(0.0170698 -0.00447671 0.00732965)
(0.00245634 -0.00288814 0.0052099)
(-0.00666005 -0.000295194 -0.00287076)
(0.0093995 -0.0169561 -0.00254081)
(0.0250296 -0.011921 -0.00090459)
(0.0338247 -0.00862057 -0.00062507)
(0.038885 -0.00372149 -0.00052401)
(0.038712 -0.00106565 -0.00129425)
(0.0369462 0.00297204 -0.00283932)
(0.0294122 0.00476184 -0.00265449)
(0.0225017 0.0104463 -0.00701598)
(0.00480741 0.0161849 -0.00440568)
(-0.0196661 0.0247571 -0.00807688)
(-0.0566051 0.031345 0.000258488)
(-0.104847 0.0425899 -0.00403166)
(-0.156582 0.063789 -0.00686449)
(-0.216172 0.0765388 -0.0109593)
(-0.273967 0.0854735 -0.0182028)
(-0.357435 0.0929318 -0.0432881)
(-0.461616 0.0953558 -0.0582482)
(-0.513949 0.101006 -0.0757204)
(-0.595371 0.0982007 -0.0994627)
(-0.548615 0.12497 -0.100884)
(-0.409717 0.139945 -0.12719)
(-0.387616 0.184944 -0.138359)
(-0.370422 0.210938 -0.147013)
(-0.356736 0.236418 -0.158213)
(-0.319522 0.25842 -0.164152)
(-0.268106 0.27901 -0.165474)
(-0.198726 0.29524 -0.15383)
(-0.121336 0.30079 -0.133733)
(-0.0519742 0.308354 -0.109775)
(0.014737 0.289593 -0.0751694)
(0.0794076 0.259542 -0.0473135)
(0.114958 0.208853 -0.0387344)
(0.127086 0.159238 -0.0267556)
(0.121244 0.108164 -0.0128054)
(0.101615 0.0684259 -0.00523286)
(0.0812832 0.0399123 -0.000788022)
(0.0556761 0.0253867 0.000276239)
(0.0332634 0.0156011 0.00188407)
(0.00832377 0.00713955 0.00252592)
(-0.000554001 -0.00813279 0.00156964)
(0.0152488 -0.0234812 -0.0012173)
(0.0326626 -0.0187646 -0.00208351)
(0.0425971 -0.00636287 -0.00269806)
(0.0446758 0.00469903 -0.00471747)
(0.0418379 0.0159632 -0.0063241)
(0.0340137 0.0316711 -0.00761432)
(0.0200133 0.0456971 -0.00944974)
(0.0039405 0.0695462 -0.00202181)
(-0.0263302 0.0898678 -0.00469318)
(-0.0647428 0.117405 -0.00816892)
(-0.117913 0.150267 -0.0132778)
(-0.172653 0.183867 -0.0171827)
(-0.251308 0.210737 -0.0320408)
(-0.351642 0.229531 -0.0347364)
(-0.44748 0.243116 -0.0423231)
(-0.535824 0.247937 -0.0586426)
(-0.622091 0.269096 -0.0764355)
(-0.668733 0.298116 -0.0941519)
(-0.734434 0.331278 -0.116166)
(-0.674011 0.369686 -0.109794)
(-0.509045 0.398051 -0.123904)
(-0.463128 0.454636 -0.126915)
(-0.435349 0.487601 -0.123531)
(-0.412488 0.519585 -0.125588)
(-0.371384 0.542178 -0.12369)
(-0.319521 0.556045 -0.119208)
(-0.25543 0.560144 -0.104568)
(-0.187444 0.550086 -0.0830199)
(-0.123617 0.53081 -0.05933)
(-0.0670124 0.501437 -0.0399106)
(-0.0251996 0.452905 -0.0277452)
(0.00952768 0.379957 -0.0154441)
(0.0323948 0.307425 -0.00806568)
(0.0432761 0.227826 -0.010982)
(0.0490331 0.162668 -0.0108238)
(0.0484327 0.11433 -0.00700395)
(0.0390847 0.0767784 -0.00472848)
(0.0276085 0.0507133 -0.000917481)
(0.00823056 0.0237793 0.00201358)
(0.000236075 -0.0128473 0.00239137)
(0.0173627 -0.0259578 -0.00119064)
(0.0391114 -0.0131041 -0.00239667)
(0.0472307 0.00542088 -0.00603991)
(0.0445253 0.029201 -0.00649584)
(0.0395107 0.0545858 -0.0085913)
(0.026167 0.0898656 -0.00861895)
(0.00650003 0.122509 -0.00532719)
(-0.0205243 0.16771 -0.0104224)
(-0.0656568 0.208184 -0.0127297)
(-0.111598 0.251892 -0.0169523)
(-0.177255 0.285602 -0.0240951)
(-0.264627 0.312894 -0.0265921)
(-0.356064 0.328759 -0.0286498)
(-0.442642 0.350211 -0.0307495)
(-0.521251 0.375485 -0.036859)
(-0.593836 0.40531 -0.0508541)
(-0.666718 0.434882 -0.059835)
(-0.698859 0.474352 -0.0689393)
(-0.74958 0.51714 -0.0769988)
(-0.677499 0.551148 -0.0519233)
(-0.492169 0.570356 -0.0467517)
(-0.432131 0.612985 -0.0421501)
(-0.404995 0.62269 -0.029578)
(-0.38384 0.635521 -0.0262596)
(-0.352129 0.637072 -0.0208111)
(-0.312123 0.629264 -0.0173592)
(-0.265018 0.611426 -0.0101977)
(-0.214651 0.586157 0.00153938)
(-0.170302 0.554453 0.00873244)
(-0.138082 0.515203 0.0141812)
(-0.114258 0.471382 0.0126117)
(-0.0916362 0.416085 0.0073494)
(-0.0693543 0.351165 -0.000964498)
(-0.0473778 0.271777 -0.00480228)
(-0.0191321 0.202455 -0.0100483)
(0.000629651 0.146724 -0.010183)
(0.00951289 0.11012 -0.00758966)
(0.0174908 0.0764675 -0.00312879)
(0.00657805 0.0355597 0.00167488)
(0.000795364 -0.0136248 0.000758076)
(0.0235852 -0.016149 -0.00467677)
(0.0478216 0.00181998 -0.00657995)
(0.0557243 0.0368251 -0.0078762)
(0.0525172 0.0764337 -0.00681269)
(0.0463169 0.122671 -0.0146883)
(0.0266198 0.179326 -0.0117841)
(-0.000453458 0.237558 -0.00560779)
(-0.0332712 0.291498 -0.00753933)
(-0.0879777 0.334108 -0.00960244)
(-0.152634 0.366842 -0.0123774)
(-0.232663 0.385874 -0.0149956)
(-0.305147 0.408865 -0.0160083)
(-0.379041 0.436048 -0.0212115)
(-0.453317 0.467454 -0.0193106)
(-0.519981 0.500074 -0.0210737)
(-0.578955 0.528672 -0.0238604)
(-0.631919 0.565328 -0.0204821)
(-0.644918 0.607617 -0.0171759)
(-0.682391 0.652007 -0.0258777)
(-0.611013 0.680373 7.09655e-05)
(-0.419201 0.686596 0.0140816)
(-0.355304 0.699924 0.0246876)
(-0.337152 0.678138 0.0364566)
(-0.327696 0.660009 0.0377658)
(-0.315384 0.635248 0.0439641)
(-0.295929 0.602772 0.0451686)
(-0.267007 0.567137 0.0491878)
(-0.237334 0.526525 0.0426083)
(-0.213181 0.487824 0.0350305)
(-0.192488 0.443929 0.0252014)
(-0.182982 0.4109 0.0178186)
(-0.175925 0.375283 0.00988201)
(-0.171971 0.344442 -0.00194883)
(-0.151042 0.279336 -0.0125086)
(-0.103345 0.208407 -0.0136335)
(-0.0518564 0.160405 -0.0131908)
(-0.0164725 0.129568 -0.0113145)
(0.00311309 0.0948222 -0.00564208)
(0.00368918 0.0445856 0.0016284)
(0.00537337 -0.00986561 -0.00014452)
(0.0293826 -0.00123937 -0.0050994)
(0.062207 0.0243817 -0.00528924)
(0.0761057 0.075913 -0.00914145)
(0.0697063 0.133409 -0.0139853)
(0.064883 0.198447 -0.0183516)
(0.0458488 0.27298 -0.0137059)
(0.0062092 0.320886 -0.00301249)
(-0.0499436 0.3632 -0.00517333)
(-0.121877 0.396023 -0.00692213)
(-0.18758 0.425953 -0.00896171)
(-0.249665 0.456649 -0.00917219)
(-0.309215 0.491887 -0.00727261)
(-0.366708 0.519915 -0.0043564)
(-0.418765 0.550513 0.00205804)
(-0.469227 0.579223 0.00692888)
(-0.504808 0.610088 0.00818969)
(-0.538898 0.642269 0.00893186)
(-0.546326 0.687266 0.0105538)
(-0.572203 0.720585 0.00870432)
(-0.502582 0.745279 0.0336168)
(-0.326894 0.697681 0.0490445)
(-0.2794 0.680121 0.0589939)
(-0.282321 0.627997 0.0731246)
(-0.288596 0.585725 0.0765427)
(-0.294389 0.544506 0.0771129)
(-0.291409 0.501101 0.0744496)
(-0.282723 0.460634 0.0686597)
(-0.267309 0.413584 0.0662376)
(-0.257164 0.376122 0.0461183)
(-0.247513 0.333378 0.0354443)
(-0.237272 0.302863 0.0214756)
(-0.22425 0.278248 0.00960651)
(-0.2327 0.265129 -0.00181721)
(-0.23905 0.241148 -0.0147287)
(-0.174292 0.192439 -0.0135904)
(-0.0922237 0.16129 -0.0148293)
(-0.0401511 0.134593 -0.0116719)
(-0.00430187 0.102892 -0.00655476)
(0.00266836 0.0477179 0.00212802)
(0.00829034 -0.0048934 0.000752207)
(0.0387963 0.0104155 -0.0100267)
(0.0812314 0.0499417 -0.0094759)
(0.105607 0.104423 -0.0109156)
(0.101805 0.165827 -0.0138059)
(0.0982143 0.241517 -0.0169209)
(0.0505888 0.297338 -0.00793105)
(-0.0146045 0.331241 0.00288157)
(-0.0608172 0.374831 -0.0019397)
(-0.117173 0.417476 -0.00273283)
(-0.166313 0.46436 -0.00292246)
(-0.21711 0.506733 -0.00121468)
(-0.263786 0.545113 0.00186571)
(-0.310222 0.578889 0.00733961)
(-0.3509 0.611222 0.0143659)
(-0.384973 0.636898 0.0200241)
(-0.41062 0.663152 0.0258103)
(-0.426773 0.677509 0.0293435)
(-0.422626 0.702196 0.0256856)
(-0.44398 0.717728 0.016968)
(-0.432576 0.736079 0.0307355)
(-0.290896 0.632815 0.0521062)
(-0.229615 0.582585 0.0560851)
(-0.249334 0.523691 0.0696011)
(-0.265389 0.479925 0.0707982)
(-0.287343 0.442474 0.0709071)
(-0.300182 0.406593 0.0671218)
(-0.307793 0.372821 0.0605828)
(-0.305873 0.336302 0.0481166)
(-0.307249 0.30227 0.0331832)
(-0.304756 0.269837 0.0203982)
(-0.296562 0.24206 0.00867608)
(-0.284575 0.223207 -0.00110654)
(-0.282568 0.207425 -0.00763701)
(-0.286596 0.217383 -0.0172062)
(-0.226096 0.193145 -0.0203315)
(-0.12719 0.166295 -0.0216073)
(-0.0558432 0.145644 -0.0166417)
(-0.00965651 0.11141 -0.0104634)
(0.00254631 0.0521372 0.000409403)
(0.00750852 0.00300419 -0.00254142)
(0.0456696 0.0297025 -0.0131274)
(0.0997286 0.0789537 -0.0135826)
(0.124768 0.134079 -0.0107094)
(0.129485 0.192523 -0.0116663)
(0.111048 0.262785 -0.0114953)
(0.0496039 0.291025 -0.000199542)
(0.00328579 0.345209 0.00550089)
(-0.0321453 0.391998 0.00176848)
(-0.081725 0.445346 0.00312999)
(-0.123969 0.488829 0.00433356)
(-0.166348 0.525777 0.0102555)
(-0.202145 0.558471 0.0164654)
(-0.232495 0.585401 0.0236628)
(-0.261219 0.609985 0.0281682)
(-0.288914 0.625572 0.0323378)
(-0.309403 0.63651 0.0348388)
(-0.327135 0.638448 0.0343199)
(-0.327684 0.632818 0.0308276)
(-0.344478 0.61568 0.0146955)
(-0.38441 0.617419 0.0149562)
(-0.294903 0.54177 0.0335432)
(-0.218941 0.456436 0.0362714)
(-0.23846 0.418429 0.0476297)
(-0.261855 0.380766 0.0519546)
(-0.293061 0.356837 0.0535618)
(-0.316273 0.330038 0.0545404)
(-0.334602 0.304689 0.047936)
(-0.343849 0.276254 0.0393177)
(-0.352276 0.24632 0.0177703)
(-0.354079 0.214708 0.0101221)
(-0.344995 0.190285 0.00101551)
(-0.331389 0.176851 -0.00713249)
(-0.316313 0.169256 -0.0108044)
(-0.324784 0.19066 -0.0202597)
(-0.276032 0.196122 -0.0205345)
(-0.16107 0.171707 -0.0223416)
(-0.0741932 0.154746 -0.0176117)
(-0.0147771 0.11864 -0.0101864)
(0.00376488 0.0556491 0.00113787)
(0.00639474 0.013262 -0.00556533)
(0.0533473 0.0600732 -0.0181065)
(0.119069 0.116349 -0.0193972)
(0.150368 0.171244 -0.0131083)
(0.157486 0.232683 -0.0141994)
(0.124376 0.279431 -0.0103672)
(0.0679412 0.319423 -0.00177371)
(0.0315256 0.37549 0.00555723)
(0.00313291 0.413607 0.011577)
(-0.0319212 0.454147 0.0114956)
(-0.0715263 0.492373 0.0157458)
(-0.102716 0.518981 0.021244)
(-0.12858 0.541378 0.028184)
(-0.153481 0.553694 0.0341501)
(-0.177458 0.557647 0.036172)
(-0.202319 0.554566 0.0368105)
(-0.225104 0.54729 0.0355967)
(-0.251389 0.533722 0.0311921)
(-0.272888 0.519862 0.0250361)
(-0.293607 0.492089 0.010078)
(-0.345448 0.480171 -0.000103215)
(-0.317603 0.453179 0.00974727)
(-0.239993 0.353998 0.017983)
(-0.237084 0.33756 0.0240411)
(-0.266388 0.311308 0.031903)
(-0.300952 0.297067 0.036571)
(-0.333857 0.278892 0.0416521)
(-0.359369 0.256532 0.0384108)
(-0.37884 0.232622 0.0240584)
(-0.396501 0.199379 0.00955762)
(-0.399859 0.174878 -0.000192381)
(-0.387527 0.151886 -0.00542486)
(-0.372691 0.138216 -0.0114715)
(-0.3464 0.139964 -0.0189397)
(-0.337005 0.152625 -0.0229048)
(-0.304976 0.190433 -0.0280469)
(-0.196784 0.17368 -0.0264226)
(-0.0896443 0.163733 -0.0244684)
(-0.0198325 0.128285 -0.0135654)
(0.00461126 0.0613498 -0.00101576)
(0.00786345 0.0299527 -0.00852043)
(0.0624483 0.0993444 -0.0258011)
(0.137132 0.15991 -0.0251024)
(0.175433 0.213441 -0.0156699)
(0.175353 0.264826 -0.0143555)
(0.142615 0.297482 -0.0130832)
(0.102021 0.346228 -0.00236575)
(0.0694163 0.392537 0.00987597)
(0.0385688 0.429367 0.0163549)
(0.0145998 0.456118 0.0266209)
(-0.0124762 0.477788 0.0235283)
(-0.0433334 0.490985 0.0337236)
(-0.0661996 0.498908 0.0385986)
(-0.0889801 0.48949 0.0439822)
(-0.112857 0.474137 0.0432463)
(-0.13932 0.451661 0.0400859)
(-0.166937 0.428002 0.0349107)
(-0.197049 0.403136 0.0277969)
(-0.227233 0.38761 0.0195614)
(-0.261997 0.370493 0.00458394)
(-0.317597 0.357016 -0.00748403)
(-0.339944 0.357265 -0.00716664)
(-0.270701 0.293845 0.00688287)
(-0.234622 0.282757 0.00960937)
(-0.267846 0.265708 0.0199659)
(-0.3023 0.257341 0.0276151)
(-0.341734 0.238142 0.036462)
(-0.3744 0.220722 0.0318493)
(-0.402397 0.190511 0.0245854)
(-0.418529 0.16393 0.00967926)
(-0.424027 0.135807 0.0111847)
(-0.420372 0.114624 0.0176126)
(-0.400959 0.0951207 0.0148055)
(-0.377585 0.0969859 0.00902835)
(-0.357945 0.110776 -0.0126846)
(-0.327558 0.159088 -0.0240116)
(-0.227092 0.17139 -0.0246399)
(-0.106804 0.163519 -0.0215182)
(-0.0256166 0.136118 -0.01256)
(0.00577073 0.0654883 0.000166892)
(0.00878665 0.0508731 -0.0111808)
(0.0701839 0.141018 -0.0320856)
(0.154452 0.205617 -0.0311836)
(0.195991 0.253202 -0.0177)
(0.193154 0.289572 -0.0119595)
(0.168953 0.324569 -0.0128637)
(0.140271 0.365304 -0.00241676)
(0.109552 0.401932 0.00539448)
(0.084233 0.430123 0.013615)
(0.0563533 0.450645 0.0289662)
(0.0281219 0.45533 0.0374373)
(0.011473 0.45612 0.0471486)
(-0.0122643 0.44302 0.046966)
(-0.0419425 0.422008 0.0501329)
(-0.0684025 0.393576 0.0473347)
(-0.0994692 0.362477 0.0401865)
(-0.13239 0.332414 0.0318098)
(-0.165948 0.306064 0.0235147)
(-0.200379 0.291746 0.0145301)
(-0.24098 0.276342 0.0025197)
(-0.293122 0.269981 -0.00691216)
(-0.330287 0.275775 -0.011065)
(-0.273806 0.263552 0.000407816)
(-0.228686 0.247721 0.000355774)
(-0.256348 0.235615 0.0126182)
(-0.294897 0.223145 0.0215396)
(-0.339217 0.207249 0.0305294)
(-0.376941 0.18428 0.0293595)
(-0.408677 0.157825 0.0189765)
(-0.432157 0.128042 0.0304452)
(-0.446492 0.0935471 0.0315853)
(-0.448646 0.0651869 0.0189212)
(-0.43584 0.0513978 0.0135373)
(-0.402593 0.0478478 0.00637161)
(-0.36551 0.0633637 2.00781e-05)
(-0.334862 0.108793 -0.021636)
(-0.250771 0.150694 -0.0283411)
(-0.124527 0.15946 -0.0234484)
(-0.0284343 0.139775 -0.0150141)
(0.00493082 0.0694916 -0.0014315)
(0.0093972 0.0707493 -0.0117483)
(0.0763512 0.182921 -0.0358733)
(0.166564 0.249718 -0.034221)
(0.208805 0.285619 -0.0175678)
(0.213055 0.314603 -0.00982634)
(0.198311 0.346398 -0.00656597)
(0.175318 0.377612 -0.00501884)
(0.148416 0.401749 0.00853742)
(0.121886 0.421137 0.0130975)
(0.0978914 0.429408 0.0255299)
(0.0750901 0.431741 0.0363484)
(0.0470817 0.420241 0.0520717)
(0.0218889 0.39336 0.0553522)
(-0.00250713 0.359482 0.054908)
(-0.0344967 0.327856 0.047627)
(-0.0692482 0.295504 0.036819)
(-0.106694 0.26849 0.0258065)
(-0.139853 0.247423 0.0171861)
(-0.178625 0.238524 0.00731088)
(-0.222991 0.227702 -0.000506276)
(-0.268915 0.226609 -0.00782455)
(-0.301259 0.230963 -0.0108663)
(-0.254583 0.249092 -0.00268729)
(-0.212906 0.22904 -0.00340407)
(-0.237961 0.209794 0.00773911)
(-0.273606 0.192129 0.0172738)
(-0.321026 0.172907 0.0241847)
(-0.362363 0.149533 0.0204531)
(-0.398673 0.121708 0.0375035)
(-0.431697 0.0867727 0.0450187)
(-0.453548 0.0535857 0.0406216)
(-0.455265 0.0279066 0.0516063)
(-0.448193 0.0043608 0.0402658)
(-0.43253 0.000670367 0.0339801)
(-0.396202 0.0104891 0.0250338)
(-0.351811 0.0569878 0.00381141)
(-0.263342 0.111278 -0.0248199)
(-0.13839 0.148014 -0.0248692)
(-0.0344342 0.138236 -0.0142177)
(0.00606667 0.0728997 -0.00138674)
(0.00997229 0.0901057 -0.0113701)
(0.0794955 0.221587 -0.0387718)
(0.170383 0.289142 -0.0374534)
(0.219094 0.317824 -0.0188634)
(0.234423 0.340138 -0.00599469)
(0.227055 0.363208 0.000356059)
(0.206159 0.384727 0.00478756)
(0.1815 0.398309 0.00587982)
(0.160255 0.40751 0.0163489)
(0.136873 0.408812 0.0264207)
(0.110099 0.399091 0.0356103)
(0.0835211 0.379885 0.0425483)
(0.0507686 0.351426 0.0549994)
(0.0206039 0.314899 0.0550261)
(-0.00780331 0.275392 0.0464542)
(-0.044914 0.249287 0.0313812)
(-0.0837642 0.224306 0.0195855)
(-0.116405 0.209262 0.011326)
(-0.155029 0.20203 0.00209192)
(-0.197307 0.197731 -0.00247185)
(-0.236793 0.197198 -0.00791625)
(-0.251039 0.209758 -0.00711164)
(-0.213775 0.240901 -0.00276222)
(-0.196474 0.21564 -0.00298011)
(-0.21438 0.184513 0.00420986)
(-0.247457 0.159888 0.012247)
(-0.291632 0.133483 0.016959)
(-0.334487 0.110706 0.0293555)
(-0.378524 0.0778309 0.0422689)
(-0.416048 0.0466407 0.0462539)
(-0.438642 0.0136846 0.065971)
(-0.464695 -0.0241066 0.0470196)
(-0.472376 -0.0656285 0.0355705)
(-0.45466 -0.0866079 0.0149317)
(-0.414784 -0.0740343 0.00443352)
(-0.37025 -0.0250077 0.009638)
(-0.28462 0.0601012 -0.00247547)
(-0.152415 0.116289 -0.0310855)
(-0.0393788 0.130494 -0.0144108)
(0.00650358 0.0737863 -0.00298926)
(0.00882056 0.0974737 -0.0103729)
(0.0780205 0.246398 -0.0409259)
(0.171173 0.317931 -0.0417187)
(0.225713 0.343773 -0.0220343)
(0.251595 0.357525 -0.00362607)
(0.251331 0.367501 0.00648075)
(0.232525 0.378961 0.0124456)
(0.209676 0.387056 0.016109)
(0.189648 0.392184 0.0188762)
(0.166927 0.386324 0.0229949)
(0.14329 0.371349 0.0287444)
(0.111941 0.346426 0.0394097)
(0.0782421 0.313692 0.0414481)
(0.0420026 0.279842 0.0487938)
(0.0118593 0.242496 0.0435496)
(-0.0206858 0.212374 0.0241499)
(-0.062208 0.194081 0.0137712)
(-0.0908406 0.18292 0.00658706)
(-0.126316 0.175358 -0.00151535)
(-0.165246 0.17172 -0.00408052)
(-0.190244 0.175264 -0.00503635)
(-0.183947 0.204935 -5.82764e-05)
(-0.167498 0.21715 -0.00123905)
(-0.178005 0.190774 -0.000622524)
(-0.19423 0.157861 0.00226194)
(-0.216992 0.121591 0.00858233)
(-0.255019 0.096698 0.0125459)
(-0.296564 0.0666555 0.0305839)
(-0.34024 0.0393896 0.0386656)
(-0.378337 0.00909152 0.0599969)
(-0.426437 -0.0331197 0.0449296)
(-0.468236 -0.0868409 0.0381513)
(-0.486181 -0.130577 0.0247098)
(-0.474444 -0.162918 0.0141423)
(-0.433919 -0.166315 -0.00498539)
(-0.372638 -0.124423 -0.0068105)
(-0.290776 -0.0217707 -0.000287822)
(-0.171488 0.0762151 -0.016812)
(-0.0434634 0.11709 -0.0197398)
(0.0072154 0.0746459 -0.00196728)
(0.00747339 0.106737 -0.0092362)
(0.0758369 0.270405 -0.0409876)
(0.1697 0.346547 -0.0434297)
(0.230704 0.369993 -0.0233069)
(0.262934 0.376001 -0.00289145)
(0.26856 0.37359 0.0115692)
(0.258009 0.37619 0.0204749)
(0.240779 0.378229 0.0231173)
(0.221743 0.375954 0.0256491)
(0.1972 0.363789 0.0271357)
(0.169347 0.343926 0.0288016)
(0.137826 0.313928 0.0264151)
(0.100854 0.282493 0.0284875)
(0.0629149 0.246278 0.028753)
(0.0274377 0.219996 0.0310653)
(-0.0032447 0.187248 0.0174784)
(-0.0340281 0.171538 0.00786727)
(-0.0640821 0.163835 0.00157915)
(-0.0966442 0.150356 -0.00372247)
(-0.12375 0.154254 -0.00296286)
(-0.123269 0.171396 0.00160072)
(-0.122295 0.188853 0.00275646)
(-0.133441 0.179334 0.00327787)
(-0.153451 0.156303 0.00235593)
(-0.172694 0.129527 0.00318727)
(-0.188677 0.0910906 0.00526719)
(-0.217001 0.062319 0.0167866)
(-0.253394 0.0318271 0.0260035)
(-0.29066 0.00339083 0.0452768)
(-0.343817 -0.036755 0.0392428)
(-0.399459 -0.090121 0.0375873)
(-0.447567 -0.142454 0.0281555)
(-0.477818 -0.195493 0.0179926)
(-0.482322 -0.236345 0.00326257)
(-0.448791 -0.255546 -0.0107264)
(-0.383355 -0.223935 -0.0199616)
(-0.292886 -0.13437 -0.018652)
(-0.177889 0.0128978 0.000680312)
(-0.0535907 0.0926805 -0.0270227)
(0.00656348 0.074944 -0.00332735)
(0.0053134 0.088364 -0.00761195)
(0.0704006 0.266185 -0.0397027)
(0.164539 0.34824 -0.0418259)
(0.230319 0.371074 -0.0222383)
(0.269498 0.370929 0.00077931)
(0.283881 0.363905 0.0147544)
(0.280046 0.362436 0.0201915)
(0.262625 0.357119 0.0231637)
(0.242005 0.350407 0.0249531)
(0.218075 0.337589 0.0253074)
(0.191799 0.317492 0.0245188)
(0.159418 0.290745 0.0208232)
(0.122441 0.257106 0.0170033)
(0.0865032 0.224265 0.0107379)
(0.0501633 0.196898 0.0152628)
(0.0170824 0.173359 0.00744045)
(-0.00766416 0.158184 0.00207196)
(-0.0371222 0.147282 -0.00403329)
(-0.0589616 0.144617 -0.00253261)
(-0.0621753 0.155468 0.00029105)
(-0.0678994 0.165082 0.00354315)
(-0.0831757 0.155457 0.00652409)
(-0.101585 0.141851 0.00673904)
(-0.124147 0.121558 0.0059106)
(-0.148514 0.101917 0.00539325)
(-0.16434 0.0685062 0.00708153)
(-0.183913 0.033455 0.0158401)
(-0.21346 0.00372091 0.0295544)
(-0.255151 -0.0328387 0.0283389)
(-0.309172 -0.0778237 0.0319686)
(-0.364399 -0.125834 0.0289879)
(-0.416873 -0.182475 0.0252478)
(-0.454685 -0.241351 0.0160447)
(-0.470767 -0.296308 0.00301227)
(-0.449248 -0.328839 -0.0135364)
(-0.390885 -0.318626 -0.0272152)
(-0.287838 -0.238339 -0.0315015)
(-0.17646 -0.0855168 -0.0201513)
(-0.0567607 0.0494782 -0.019337)
(0.00861343 0.0637577 -0.00888957)
(0.00419247 0.102775 -0.00626714)
(0.0663885 0.286145 -0.0369647)
(0.159315 0.372148 -0.0418265)
(0.231189 0.393337 -0.0208779)
(0.279757 0.388386 0.00358835)
(0.304826 0.373689 0.0140634)
(0.30614 0.362003 0.0200835)
(0.29151 0.349534 0.0213545)
(0.273933 0.337287 0.0193006)
(0.24838 0.316819 0.0159178)
(0.219356 0.290589 0.0127578)
(0.183258 0.25991 0.00799772)
(0.142073 0.230336 0.00449236)
(0.105036 0.202153 0.00127368)
(0.0696922 0.183909 0.00136247)
(0.0425944 0.172264 -0.00134203)
(0.0190759 0.165929 -0.00450098)
(0.0010265 0.160433 -0.00327089)
(-0.00720965 0.164445 -0.000930546)
(-0.0181539 0.160057 0.00196727)
(-0.0342285 0.144487 0.00522245)
(-0.0534651 0.127246 0.00855409)
(-0.0727261 0.109655 0.00885578)
(-0.0951364 0.0915569 0.0081838)
(-0.122522 0.0739503 0.00890793)
(-0.146058 0.0535557 0.00449274)
(-0.160201 0.0160641 0.00731133)
(-0.184987 -0.0178581 0.0104815)
(-0.222732 -0.0620683 0.0164721)
(-0.269216 -0.10638 0.018516)
(-0.32302 -0.157965 0.019942)
(-0.376093 -0.21782 0.0177007)
(-0.418661 -0.282937 0.0119685)
(-0.444402 -0.349771 0.000723516)
(-0.436079 -0.399465 -0.0151369)
(-0.387816 -0.410156 -0.0319631)
(-0.296424 -0.344731 -0.0477961)
(-0.182286 -0.189725 -0.0352441)
(-0.0578492 0.00576982 -0.00905181)
(0.00617716 0.0664019 -0.010683)
(-0.00574009 0.0767524 -0.0151712)
(0.0463179 0.270044 -0.0401634)
(0.14098 0.365976 -0.0463885)
(0.220121 0.388287 -0.0273236)
(0.278031 0.38392 -0.00750404)
(0.311483 0.361703 0.00484582)
(0.320904 0.342834 0.0109823)
(0.307476 0.32484 0.0118187)
(0.285208 0.316731 0.011186)
(0.256949 0.309952 0.00814832)
(0.230015 0.301917 0.00623294)
(0.200599 0.286928 0.00334848)
(0.166769 0.26927 0.00157784)
(0.137242 0.248449 0.000199529)
(0.110116 0.229006 0.0030824)
(0.0827049 0.216679 -0.00273063)
(0.0607765 0.202859 -0.00880652)
(0.0418736 0.187149 -0.00632336)
(0.0232454 0.172342 -0.00494908)
(0.00268364 0.150716 -0.000726964)
(-0.0145464 0.127473 0.00453535)
(-0.0309759 0.105052 0.00770719)
(-0.0495465 0.0852381 0.00855379)
(-0.070227 0.0666771 0.00899882)
(-0.0934164 0.048834 0.0047266)
(-0.122692 0.0321281 0.00170356)
(-0.145946 0.0070788 0.00205401)
(-0.169131 -0.0288073 -0.000441522)
(-0.204129 -0.0666072 0.00271694)
(-0.245221 -0.109664 0.00746828)
(-0.292916 -0.159465 0.011498)
(-0.341509 -0.223495 0.0127499)
(-0.383194 -0.297026 0.00942041)
(-0.411563 -0.377069 0.000249858)
(-0.410368 -0.444766 -0.0136765)
(-0.369681 -0.476355 -0.0321465)
(-0.277282 -0.440264 -0.0550416)
(-0.164032 -0.307285 -0.0573406)
(-0.0439269 -0.0898952 -0.0217652)
(0.0100468 0.0329301 -0.00826263)
(-0.00700771 0.17387 -0.00885045)
(0.0416968 0.385975 -0.0240586)
(0.129336 0.485951 -0.0345816)
(0.210077 0.509507 -0.0147114)
(0.27502 0.498156 -0.00599812)
(0.316669 0.468301 0.0108054)
(0.336588 0.433149 0.014429)
(0.339371 0.418402 0.0159206)
(0.33764 0.42104 0.0106953)
(0.31741 0.418901 0.00484139)
(0.286338 0.407766 -0.00122901)
(0.246045 0.38373 -0.00546492)
(0.200953 0.351004 -0.00839717)
(0.158946 0.315982 -0.00779018)
(0.126024 0.27908 -0.00627574)
(0.100002 0.245542 -0.00246664)
(0.0709076 0.216139 -0.00804897)
(0.0511995 0.188333 -0.00847075)
(0.0380037 0.158011 -0.00624413)
(0.0187956 0.132632 -0.00345339)
(0.00135599 0.111845 0.00133479)
(-0.0150569 0.0872999 0.00609153)
(-0.0306441 0.0667032 0.00737804)
(-0.0503096 0.0457486 0.0102657)
(-0.0732154 0.0269562 0.00266521)
(-0.0985352 0.00889756 0.00598023)
(-0.123308 -0.00414261 0.00520144)
(-0.148259 -0.0280748 0.0014243)
(-0.175862 -0.0628356 -0.00424063)
(-0.212481 -0.112634 -0.00863058)
(-0.260044 -0.168141 -0.00927164)
(-0.310264 -0.232842 -0.00816128)
(-0.354469 -0.303087 -0.00680642)
(-0.38689 -0.388059 -0.0111003)
(-0.390898 -0.468931 -0.0234663)
(-0.366943 -0.532601 -0.0527269)
(-0.30131 -0.523555 -0.0769908)
(-0.194412 -0.398301 -0.0736904)
(-0.0578842 -0.152623 -0.0438914)
(0.0101269 0.0367406 -0.00654993)
(-0.0187441 0.256751 -0.02212)
(0.0170844 0.498142 -0.0443068)
(0.106056 0.608592 -0.0531098)
(0.190113 0.650538 -0.0404521)
(0.260352 0.643586 -0.0295331)
(0.30631 0.617191 -0.0148414)
(0.344047 0.575234 -0.00425554)
(0.370887 0.547385 -0.0032714)
(0.36457 0.52566 -0.00754353)
(0.327398 0.495151 -0.00994028)
(0.283433 0.45699 -0.0103967)
(0.236253 0.411894 -0.0107398)
(0.192938 0.3626 -0.00977555)
(0.157578 0.316237 -0.00850806)
(0.12783 0.2722 -0.00651552)
(0.103334 0.233351 -0.00393891)
(0.0849521 0.198296 9.45917e-05)
(0.0640478 0.17156 -0.00502985)
(0.0465036 0.143974 -0.0055453)
(0.0344091 0.11779 -0.00376228)
(0.016437 0.0938158 -0.00152873)
(-0.0011718 0.0742369 0.00337779)
(-0.0167715 0.0489693 0.00648432)
(-0.0352826 0.0303167 0.00740039)
(-0.0532879 0.0117809 0.0061776)
(-0.0723458 -0.00384495 0.00990957)
(-0.0940764 -0.017706 0.009514)
(-0.127591 -0.0333341 0.00541179)
(-0.171882 -0.056765 0.0041197)
(-0.21082 -0.0969192 0.00498667)
(-0.244862 -0.147358 0.00296467)
(-0.272773 -0.219773 -0.00261413)
(-0.302382 -0.312624 -0.01325)
(-0.33213 -0.438388 -0.0233693)
(-0.349977 -0.557075 -0.0336231)
(-0.339798 -0.664863 -0.0549084)
(-0.272263 -0.697894 -0.0800907)
(-0.174408 -0.591663 -0.0889919)
(-0.0559971 -0.309258 -0.0669854)
(0.0108259 -0.0172061 -0.0106285)
(-0.000247581 0.22226 0.00182288)
(0.0367835 0.463857 -0.0343115)
(0.108697 0.588172 -0.0459987)
(0.190488 0.642959 -0.0415198)
(0.258742 0.645883 -0.0317878)
(0.307449 0.624751 -0.0217035)
(0.344537 0.588594 -0.0140083)
(0.369558 0.548654 -0.00651722)
(0.365781 0.507443 -0.00738372)
(0.330498 0.469779 -0.00660737)
(0.287044 0.431304 -0.00611399)
(0.23879 0.390728 -0.00498003)
(0.194366 0.346679 -0.0044837)
(0.157457 0.304591 -0.00317132)
(0.130118 0.261446 -0.00357255)
(0.110282 0.22319 -0.00160334)
(0.0903995 0.185418 -0.00167564)
(0.0761052 0.153888 0.000671843)
(0.0614124 0.130001 0.000530276)
(0.0433486 0.104284 -0.0032337)
(0.0303649 0.0834105 -0.000981185)
(0.0110182 0.0607019 0.00093286)
(-0.00448579 0.0423901 0.00869046)
(-0.0171237 0.0213206 0.00741636)
(-0.034993 0.00409234 0.00659312)
(-0.0520654 -0.011823 0.00971595)
(-0.0703833 -0.0285244 0.011113)
(-0.095094 -0.0455736 0.0100359)
(-0.132633 -0.0570248 0.00629908)
(-0.174825 -0.0711228 0.00492063)
(-0.225356 -0.0978905 0.00460901)
(-0.283255 -0.149001 0.00623876)
(-0.341795 -0.2267 0.00868833)
(-0.366948 -0.34265 0.00655078)
(-0.359282 -0.47077 -0.00215537)
(-0.340434 -0.611383 -0.0156122)
(-0.275359 -0.700103 -0.0327034)
(-0.165349 -0.684152 -0.0564833)
(-0.0313606 -0.429083 -0.0557293)
(0.0246546 -0.06499 -0.000783375)
(-0.000142868 0.239752 0.000522903)
(0.0362027 0.456496 -0.0285359)
(0.103421 0.579179 -0.0389483)
(0.179157 0.635426 -0.0366124)
(0.246142 0.640827 -0.0223444)
(0.296087 0.61873 -0.0159637)
(0.337413 0.580259 -0.00671101)
(0.364318 0.540169 -0.00123957)
(0.361437 0.494087 -0.000999081)
(0.328692 0.454983 -0.000388238)
(0.284046 0.414087 -0.00015036)
(0.234773 0.372041 5.79554e-05)
(0.192771 0.330019 -0.000128047)
(0.159322 0.29026 -0.000610525)
(0.132624 0.250777 -0.000832546)
(0.111759 0.211909 0.000123538)
(0.0976163 0.173496 0.00136309)
(0.0877019 0.140267 0.0027482)
(0.0728633 0.11317 0.00274832)
(0.0608357 0.0904818 0.00525422)
(0.0433105 0.0711086 0.00164459)
(0.0264081 0.0523019 0.00131953)
(0.0116031 0.0337843 0.00511419)
(-0.00555881 0.0173376 0.00619099)
(-0.0168571 -0.00398242 0.0073138)
(-0.0322721 -0.0196681 0.00852752)
(-0.0498424 -0.0389002 0.0101141)
(-0.0697268 -0.058746 0.0110525)
(-0.0980548 -0.0770289 0.0113769)
(-0.13266 -0.0950459 0.0099112)
(-0.174856 -0.114522 0.0101633)
(-0.215298 -0.146249 0.00999673)
(-0.268409 -0.184532 0.0101785)
(-0.312001 -0.250536 0.00980372)
(-0.342666 -0.347675 0.00616216)
(-0.358178 -0.489793 0.000932663)
(-0.327736 -0.599595 -0.0117847)
(-0.228942 -0.633327 -0.0343499)
(-0.0581535 -0.425494 -0.0483635)
(0.0273469 -0.0269263 -0.0222004)
(0.00644673 0.211902 0.000449592)
(0.0436781 0.409085 -0.0236158)
(0.103719 0.538893 -0.0325319)
(0.176719 0.599881 -0.0316315)
(0.24157 0.615136 -0.0191091)
(0.291294 0.596422 -0.011851)
(0.334675 0.560587 -0.0024804)
(0.359294 0.51743 0.00211236)
(0.357042 0.467809 0.00286543)
(0.327574 0.425586 0.0031079)
(0.282353 0.383991 0.00367696)
(0.23556 0.345477 0.00407406)
(0.196297 0.308724 0.00343027)
(0.163664 0.272518 0.00296899)
(0.137503 0.235636 0.00216797)
(0.117772 0.199435 0.00261767)
(0.101516 0.16491 0.00365088)
(0.0956173 0.130303 0.00607355)
(0.0879768 0.102596 0.0060534)
(0.0740657 0.0776893 0.00533464)
(0.0620249 0.061929 0.00590398)
(0.0416489 0.0429236 0.0051429)
(0.0275534 0.0277731 0.00384373)
(0.012294 0.0109141 0.00334049)
(-0.00356135 -0.00505797 0.00706194)
(-0.0160766 -0.023979 0.007541)