/*--------------------------------*- C++ -*----------------------------------*\
| =========                 |                                                 |
| \\      /  F ield         | OpenFOAM: The Open Source CFD Toolbox           |
|  \\    /   O peration     | Version:  v1806                                 |
|   \\  /    A nd           | Web:      www.OpenFOAM.com                      |
|    \\/     M anipulation  |                                                 |
\*---------------------------------------------------------------------------*/
FoamFile
{
    version     2.0;
    format      ascii;
    class       volVectorField;
    location    "0.111";
    object      U_0;
}
// * * * * * * * * * * * * * * * * * * * * * * * * * * * * * * * * * * * * * //

dimensions      [0 1 -1 0 0 0 0];


internalField   nonuniform List<vector> 
64000
(
(-0.011398 -0.0138646 -0.00974777)
(0.017182 -0.0132761 -0.00721026)
(0.0239038 -0.00458145 5.2297e-05)
(0.0289956 -0.0036635 0.00116792)
(0.0305221 -0.00255862 0.00150813)
(0.031431 -0.00310317 0.00185974)
(0.031753 -0.0040186 0.0018611)
(0.0297105 -0.00471681 0.00235998)
(0.0294104 -0.00578332 0.00311462)
(0.0242164 -0.00561211 0.00428246)
(0.0184851 -0.00711047 0.00283131)
(0.00904219 -0.00700118 0.00851743)
(-0.00332002 -0.0121954 0.00588847)
(-0.0269842 -0.0174835 0.00413043)
(-0.0518024 -0.0184014 0.00413588)
(-0.0872546 -0.0191911 0.00268144)
(-0.109773 -0.00179331 0.000765471)
(-0.154789 -0.00480903 -0.00345626)
(-0.147568 -0.00878066 0.00332882)
(-0.21213 -0.0262843 -0.0129494)
(-0.181334 -0.0186981 -0.0175015)
(-0.0879079 -0.0216717 -0.0371275)
(-0.105641 -0.00473638 -0.0224738)
(-0.104181 -0.00174647 -0.0368141)
(-0.126948 0.00446979 -0.0475191)
(-0.120483 0.0123629 -0.0578159)
(-0.109905 0.0227616 -0.0621003)
(-0.0726712 0.0330242 -0.0592184)
(-0.0386673 0.040702 -0.0544989)
(0.00545856 0.0512815 -0.0415574)
(0.0495404 0.0500798 -0.032423)
(0.0874163 0.0395296 -0.0258665)
(0.103067 0.0295541 -0.0129184)
(0.100588 0.0155434 -0.00568507)
(0.0866608 0.00674234 0.000731203)
(0.0686787 -0.00128495 0.00325895)
(0.0500036 -0.00548051 0.00403239)
(0.0300776 -0.00515935 0.00484309)
(0.0160179 -0.0038087 0.0051035)
(0.00234339 -0.00245454 0.00327625)
(-0.00814086 0.00322558 -0.00597402)
(0.00899202 -0.0175749 -0.00580366)
(0.024937 -0.0112949 -0.00250821)
(0.0365282 -0.00769895 -0.00099548)
(0.0429184 -0.00306685 -0.00165217)
(0.0439245 -0.001121 -0.00183302)
(0.0434223 0.00239298 -0.00380061)
(0.037328 0.00409741 -0.00294549)
(0.0313053 0.00755352 -0.00835447)
(0.0145839 0.0149536 -0.00359829)
(-0.00622992 0.0224774 -0.00796698)
(-0.0403972 0.0319646 0.000477463)
(-0.0849417 0.0406295 -0.00380416)
(-0.136369 0.0590953 -0.00653775)
(-0.192567 0.0737499 -0.011756)
(-0.248635 0.0832111 -0.017167)
(-0.31792 0.0916339 -0.0441535)
(-0.422292 0.0933278 -0.0597111)
(-0.463925 0.100467 -0.0777321)
(-0.554889 0.101399 -0.0961918)
(-0.502111 0.129897 -0.0891042)
(-0.378493 0.145994 -0.124514)
(-0.37886 0.193231 -0.131461)
(-0.364462 0.214673 -0.143845)
(-0.360688 0.238913 -0.155884)
(-0.321244 0.259905 -0.16268)
(-0.27541 0.280998 -0.164125)
(-0.202347 0.295952 -0.152541)
(-0.129078 0.302449 -0.133064)
(-0.055275 0.305569 -0.109592)
(0.00722801 0.291477 -0.0767544)
(0.0707539 0.260163 -0.0462318)
(0.108334 0.21268 -0.0388964)
(0.120859 0.160301 -0.0259705)
(0.115883 0.110093 -0.0126967)
(0.0975294 0.070341 -0.00522903)
(0.0782058 0.0420166 -0.000961842)
(0.0538504 0.0270057 -1.82425e-05)
(0.0321433 0.0172076 0.00123768)
(0.00784221 0.00897599 0.00115325)
(-0.000427436 -0.0039646 0.00136677)
(0.0157785 -0.023069 -0.00240997)
(0.032878 -0.0178745 -0.00326771)
(0.0444805 -0.00573306 -0.00434689)
(0.0477612 0.00303776 -0.00611372)
(0.0461359 0.0135562 -0.00770828)
(0.0399176 0.0279705 -0.00874504)
(0.0252366 0.0412396 -0.0107367)
(0.0117692 0.0652045 -0.00211498)
(-0.016189 0.0864422 -0.00429068)
(-0.053696 0.113805 -0.00811901)
(-0.104279 0.143751 -0.0126904)
(-0.156539 0.179729 -0.0174314)
(-0.231247 0.208905 -0.0318083)
(-0.321849 0.23006 -0.0370508)
(-0.418445 0.245381 -0.0435113)
(-0.497487 0.250437 -0.0608153)
(-0.584493 0.267777 -0.0800272)
(-0.61996 0.300249 -0.0981492)
(-0.696508 0.337154 -0.115887)
(-0.6281 0.374233 -0.100252)
(-0.477251 0.409274 -0.124331)
(-0.455452 0.46533 -0.122235)
(-0.429463 0.494573 -0.122855)
(-0.416821 0.526406 -0.126566)
(-0.37277 0.547165 -0.125598)
(-0.32645 0.56171 -0.120855)
(-0.259517 0.563964 -0.105119)
(-0.195601 0.55388 -0.0825197)
(-0.129061 0.532831 -0.0593007)
(-0.0750452 0.500427 -0.0394869)
(-0.0297058 0.452099 -0.0277848)
(0.00284414 0.379635 -0.0173925)
(0.0257481 0.306335 -0.00876455)
(0.0396585 0.227229 -0.0105173)
(0.0462834 0.162783 -0.0109168)
(0.0469879 0.116052 -0.00717583)
(0.0380055 0.079501 -0.00508062)
(0.0270487 0.0536121 -0.00160095)
(0.00787355 0.0280046 0.00100384)
(0.00131114 -0.00919104 0.00212034)
(0.0183906 -0.0251669 -0.00157103)
(0.0392655 -0.0126285 -0.00416312)
(0.0468735 0.00403227 -0.0076433)
(0.0449204 0.0276994 -0.00812335)
(0.0419594 0.0513098 -0.00932647)
(0.0296418 0.0857453 -0.00932945)
(0.0124756 0.117372 -0.00518068)
(-0.0123486 0.163311 -0.0106222)
(-0.056752 0.202023 -0.012778)
(-0.102403 0.246281 -0.0174706)
(-0.162269 0.284443 -0.0238101)
(-0.240588 0.31436 -0.0289877)
(-0.331373 0.330608 -0.0299262)
(-0.413302 0.353031 -0.0332394)
(-0.491281 0.37625 -0.037665)
(-0.55539 0.40826 -0.0539002)
(-0.629211 0.437446 -0.0642673)
(-0.650932 0.483089 -0.0748613)
(-0.716349 0.531691 -0.0788413)
(-0.635428 0.562357 -0.0410262)
(-0.463197 0.589789 -0.0457152)
(-0.428701 0.629068 -0.0369205)
(-0.40207 0.634046 -0.0293166)
(-0.390301 0.647016 -0.028006)
(-0.355002 0.646373 -0.0235871)
(-0.32044 0.638876 -0.0201211)
(-0.270064 0.618883 -0.0120145)
(-0.223756 0.592444 0.000156173)
(-0.177786 0.558232 0.00744758)
(-0.148081 0.516105 0.0120738)
(-0.121773 0.470048 0.0107809)
(-0.0979106 0.409512 0.00471667)
(-0.0748394 0.347737 -0.00309618)
(-0.0506976 0.268684 -0.00651208)
(-0.0200898 0.201862 -0.0108814)
(0.000715937 0.147968 -0.0110716)
(0.00905976 0.112374 -0.00825767)
(0.016818 0.0795523 -0.00375883)
(0.00627946 0.0407129 0.000755732)
(0.00100509 -0.0100279 0.000372883)
(0.0236188 -0.0149291 -0.00390944)
(0.0462692 0.00215462 -0.00823836)
(0.0554219 0.0350054 -0.0088692)
(0.053317 0.0723263 -0.00888482)
(0.047252 0.117544 -0.0152032)
(0.0296363 0.173223 -0.013176)
(0.00334352 0.229826 -0.00596656)
(-0.0273306 0.286371 -0.0084854)
(-0.078988 0.333593 -0.0108498)
(-0.136219 0.372272 -0.0141119)
(-0.211568 0.395205 -0.016592)
(-0.284778 0.415951 -0.0171083)
(-0.355057 0.440907 -0.0205736)
(-0.421528 0.47156 -0.0224124)
(-0.490321 0.504667 -0.0233751)
(-0.542205 0.535221 -0.0285642)
(-0.598325 0.566926 -0.0271365)
(-0.599438 0.623991 -0.0208976)
(-0.650269 0.67367 -0.028241)
(-0.570552 0.699356 0.0106876)
(-0.391945 0.709357 0.0176664)
(-0.354452 0.718703 0.0320699)
(-0.337091 0.688493 0.0366201)
(-0.337962 0.672254 0.0360698)
(-0.321784 0.644837 0.0416945)
(-0.306899 0.613101 0.0427241)
(-0.275281 0.575072 0.0466083)
(-0.249689 0.533169 0.0396993)
(-0.223442 0.491942 0.0309192)
(-0.204812 0.445967 0.0206135)
(-0.194003 0.411852 0.0136249)
(-0.184484 0.372903 0.00650678)
(-0.175341 0.341633 -0.00566512)
(-0.15173 0.278586 -0.0145482)
(-0.101926 0.209651 -0.0151913)
(-0.050502 0.162283 -0.0141313)
(-0.0158592 0.132545 -0.0120907)
(0.00320903 0.0986816 -0.00646296)
(0.00339054 0.0511844 0.000826966)
(0.00523685 -0.00352507 -0.000292768)
(0.0283942 0.0016461 -0.00645011)
(0.0596196 0.0288088 -0.0072146)
(0.0710584 0.0790928 -0.00977585)
(0.066299 0.136337 -0.0147116)
(0.0646275 0.199487 -0.0187128)
(0.0462024 0.27386 -0.0148639)
(0.0133355 0.326591 -0.00585944)
(-0.0340618 0.371799 -0.00747219)
(-0.101732 0.406784 -0.00974106)
(-0.168273 0.437365 -0.0118055)
(-0.231419 0.465471 -0.0115805)
(-0.287412 0.499227 -0.00999776)
(-0.344288 0.529902 -0.00657712)
(-0.390881 0.558374 -0.0011688)
(-0.442296 0.587413 0.00465849)
(-0.474743 0.617861 0.00859622)
(-0.502528 0.649273 0.010198)
(-0.494288 0.698732 0.00739947)
(-0.536114 0.740188 0.00935328)
(-0.459673 0.759022 0.0452876)
(-0.300573 0.719238 0.0556787)
(-0.281358 0.698533 0.0689339)
(-0.285638 0.636572 0.0771419)
(-0.300432 0.59813 0.0777272)
(-0.303573 0.554461 0.0761441)
(-0.304452 0.512624 0.0732358)
(-0.292896 0.46927 0.0660799)
(-0.280219 0.422024 0.0638941)
(-0.267851 0.382183 0.0419107)
(-0.258805 0.337846 0.0298205)
(-0.247241 0.30663 0.0137286)
(-0.232885 0.279369 0.00386576)
(-0.237556 0.267664 -0.00762635)
(-0.238881 0.243215 -0.0184942)
(-0.173431 0.194461 -0.015356)
(-0.0910054 0.163356 -0.0158649)
(-0.0393198 0.137949 -0.0124683)
(-0.00441708 0.106517 -0.0073007)
(0.00249548 0.0550333 0.0014059)
(0.00525436 0.00296489 -0.00161403)
(0.0374205 0.0167455 -0.00982278)
(0.0801923 0.0571232 -0.0108512)
(0.103791 0.112045 -0.0129667)
(0.100522 0.178576 -0.0184254)
(0.0973167 0.250873 -0.021854)
(0.0582608 0.314834 -0.0162895)
(-0.00294918 0.344285 -0.000823561)
(-0.0498011 0.38786 -0.00641223)
(-0.104663 0.425548 -0.00673643)
(-0.150276 0.469296 -0.00656255)
(-0.198732 0.512665 -0.00433709)
(-0.242711 0.553026 -0.000351404)
(-0.287861 0.58632 0.00411109)
(-0.324872 0.619517 0.012996)
(-0.359333 0.644676 0.0178134)
(-0.377557 0.673218 0.0251491)
(-0.398568 0.6883 0.0281291)
(-0.375271 0.708236 0.0296267)
(-0.399966 0.72173 0.0167537)
(-0.383984 0.74116 0.041988)
(-0.254828 0.633182 0.0585176)
(-0.228855 0.5945 0.06676)
(-0.250261 0.527737 0.0755416)
(-0.276273 0.489851 0.0743267)
(-0.297027 0.450883 0.0725467)
(-0.314182 0.417269 0.068093)
(-0.319742 0.381955 0.0597833)
(-0.319958 0.344835 0.0456787)
(-0.320163 0.309781 0.0286863)
(-0.317131 0.276257 0.0148253)
(-0.308791 0.247512 0.000995593)
(-0.292999 0.225981 -0.00601863)
(-0.285233 0.210517 -0.0137544)
(-0.287447 0.220597 -0.0212617)
(-0.225351 0.195464 -0.0218012)
(-0.125843 0.169862 -0.0223929)
(-0.0546132 0.149213 -0.0173982)
(-0.00965074 0.116446 -0.0110668)
(0.0024499 0.0606258 -0.000251721)
(0.00636674 0.00983368 -0.00428225)
(0.0450851 0.0362939 -0.0137042)
(0.0987864 0.0846982 -0.0141119)
(0.124771 0.14105 -0.0122698)
(0.128204 0.200594 -0.0135108)
(0.114372 0.27141 -0.0162519)
(0.0540005 0.302703 -0.00567224)
(0.00831576 0.350935 0.00204306)
(-0.0190055 0.395755 -0.00239027)
(-0.0675469 0.450874 -0.000405376)
(-0.106394 0.495116 0.000463481)
(-0.146762 0.533765 0.00675728)
(-0.182242 0.565721 0.0125839)
(-0.212987 0.592178 0.0214203)
(-0.23628 0.617447 0.0258647)
(-0.263697 0.63155 0.0307315)
(-0.278152 0.643911 0.0341656)
(-0.296303 0.639655 0.0333903)
(-0.287648 0.64089 0.0311002)
(-0.299767 0.606141 0.015272)
(-0.333459 0.622964 0.0204426)
(-0.25203 0.521273 0.0406451)
(-0.205829 0.4661 0.0439254)
(-0.236285 0.419754 0.0547124)
(-0.269143 0.390486 0.0567274)
(-0.302505 0.364594 0.0572793)
(-0.329766 0.340888 0.0575611)
(-0.347747 0.314284 0.0489154)
(-0.3597 0.287363 0.0377987)
(-0.36608 0.256856 0.0146534)
(-0.36754 0.225071 0.00411439)
(-0.357565 0.199625 -0.00528874)
(-0.341793 0.186463 -0.0128729)
(-0.321124 0.175442 -0.0157963)
(-0.326548 0.196026 -0.0252371)
(-0.275618 0.199247 -0.0215472)
(-0.160628 0.175499 -0.0229594)
(-0.0732744 0.158446 -0.0175505)
(-0.0147255 0.123463 -0.0106678)
(0.00320103 0.0643978 0.000614841)
(0.00512702 0.0246847 -0.0071472)
(0.0536273 0.0687975 -0.0178605)
(0.119117 0.124204 -0.0196049)
(0.151303 0.180438 -0.0143711)
(0.1592 0.240958 -0.0155686)
(0.127009 0.291244 -0.0157039)
(0.0757839 0.326817 -0.0066933)
(0.0382124 0.387015 0.00113054)
(0.0137577 0.423717 0.00787487)
(-0.0172408 0.465985 0.00674157)
(-0.0552599 0.498868 0.0114953)
(-0.0866951 0.528087 0.0160357)
(-0.11165 0.548319 0.0252929)
(-0.133782 0.560834 0.0316002)
(-0.154895 0.564344 0.0347631)
(-0.178185 0.558038 0.0352608)
(-0.196258 0.550418 0.0341086)
(-0.219595 0.529779 0.029243)
(-0.23731 0.516063 0.0226691)
(-0.247013 0.474422 0.00944239)
(-0.298032 0.476109 -0.00184142)
(-0.271427 0.426481 0.0155045)
(-0.212417 0.359057 0.0224694)
(-0.233442 0.340314 0.0318177)
(-0.270507 0.320737 0.0380972)
(-0.310386 0.305187 0.0421042)
(-0.346999 0.28928 0.0465485)
(-0.373236 0.267519 0.0409403)
(-0.395017 0.245294 0.0237203)
(-0.411953 0.211814 0.00604223)
(-0.413791 0.186266 -0.003425)
(-0.400195 0.162882 -0.0112811)
(-0.384233 0.148834 -0.0147721)
(-0.353704 0.148207 -0.0252235)
(-0.342318 0.160621 -0.0277764)
(-0.306706 0.19517 -0.0309859)
(-0.197004 0.178944 -0.026312)
(-0.0891962 0.168663 -0.0247704)
(-0.020095 0.133978 -0.0136477)
(0.00411669 0.0713711 -0.00154946)
(0.00765096 0.0415721 -0.00990269)
(0.0628742 0.106668 -0.0258907)
(0.137767 0.16636 -0.025136)
(0.176985 0.220519 -0.0164969)
(0.177222 0.273411 -0.0164719)
(0.14686 0.306431 -0.0178797)
(0.109422 0.35477 -0.00716839)
(0.0780884 0.401392 0.0040397)
(0.0500021 0.441577 0.0114278)
(0.0233164 0.466519 0.0218032)
(0.000694809 0.489589 0.0220126)
(-0.0257239 0.502324 0.0300295)
(-0.0507761 0.506013 0.0361954)
(-0.0718625 0.499412 0.0420877)
(-0.0924215 0.481634 0.0432563)
(-0.11746 0.456673 0.0401948)
(-0.141903 0.43173 0.0343312)
(-0.169791 0.401471 0.0262153)
(-0.19888 0.380419 0.0174509)
(-0.216714 0.355965 0.00584157)
(-0.27248 0.345611 -0.0112314)
(-0.288055 0.336889 -0.00144256)
(-0.226869 0.291203 0.0106899)
(-0.227843 0.288039 0.0165995)
(-0.269169 0.273152 0.0273974)
(-0.311419 0.265146 0.0339451)
(-0.353475 0.247871 0.0427785)
(-0.388035 0.232327 0.0348408)
(-0.418731 0.203394 0.0246735)
(-0.433961 0.176369 0.00701842)
(-0.439379 0.148304 0.00728358)
(-0.432865 0.124421 0.0150456)
(-0.412888 0.105514 0.0103867)
(-0.384481 0.105392 0.00775261)
(-0.363242 0.118128 -0.016254)
(-0.330736 0.164975 -0.0264241)
(-0.22799 0.175293 -0.0256909)
(-0.107825 0.167817 -0.021291)
(-0.0261592 0.140683 -0.0128827)
(0.00492009 0.0750029 -0.000331437)
(0.00862515 0.0661325 -0.0123949)
(0.0720654 0.150964 -0.0319502)
(0.156023 0.214048 -0.0311447)
(0.199768 0.263227 -0.0196611)
(0.197152 0.300495 -0.0133396)
(0.173066 0.336272 -0.017002)
(0.14966 0.376698 -0.00624437)
(0.119554 0.414805 0.000527256)
(0.0956924 0.443897 0.00824798)
(0.0687327 0.465022 0.0225065)
(0.0426709 0.472727 0.0343142)
(0.0209969 0.470534 0.0440087)
(0.00237341 0.458947 0.0487612)
(-0.0216911 0.432619 0.048526)
(-0.0498656 0.405768 0.0488273)
(-0.0778592 0.370482 0.0428413)
(-0.108734 0.340816 0.0336507)
(-0.142652 0.311754 0.02294)
(-0.175676 0.290696 0.0134886)
(-0.200672 0.277564 0.00165676)
(-0.252801 0.26541 -0.0122562)
(-0.276848 0.268503 -0.00702275)
(-0.221284 0.259192 0.00466938)
(-0.217026 0.253204 0.00938099)
(-0.256796 0.241373 0.0217342)
(-0.302218 0.23041 0.0294776)
(-0.349628 0.216576 0.0376663)
(-0.388402 0.195213 0.0332975)
(-0.423116 0.17035 0.0200911)
(-0.446745 0.140005 0.0288592)
(-0.461485 0.104308 0.0304843)
(-0.4611 0.0758903 0.0158869)
(-0.445568 0.0576242 0.0112886)
(-0.410432 0.0547957 0.00149926)
(-0.371735 0.0676526 -0.00259538)
(-0.340654 0.117494 -0.0249673)
(-0.253574 0.154331 -0.0287382)
(-0.126016 0.164985 -0.0234782)
(-0.0298051 0.145057 -0.014689)
(0.0042448 0.08056 -0.00200385)
(0.0100746 0.0859609 -0.013159)
(0.0780059 0.19102 -0.0359662)
(0.169511 0.256447 -0.0344411)
(0.212792 0.29487 -0.0189719)
(0.216913 0.32364 -0.0121911)
(0.203774 0.357884 -0.00930663)
(0.184474 0.390706 -0.00820096)
(0.159478 0.415043 0.00360221)
(0.133592 0.435775 0.00968482)
(0.108652 0.443688 0.0200762)
(0.087257 0.446275 0.0284537)
(0.0617709 0.434159 0.0488182)
(0.0329759 0.41163 0.0536)
(0.0123851 0.375518 0.0565465)
(-0.0143872 0.339036 0.0489183)
(-0.0493904 0.307273 0.0423921)
(-0.0822299 0.279877 0.0302867)
(-0.119781 0.257519 0.0185077)
(-0.153777 0.24323 0.00940407)
(-0.184318 0.23807 -0.00257241)
(-0.235497 0.229268 -0.0128699)
(-0.251231 0.231452 -0.00791293)
(-0.201062 0.23996 0.000572852)
(-0.197522 0.225446 0.0050536)
(-0.235858 0.21162 0.0169873)
(-0.278819 0.196065 0.0255949)
(-0.32898 0.181776 0.0324616)
(-0.370964 0.159054 0.0253173)
(-0.41068 0.13252 0.038505)
(-0.444548 0.0966403 0.044545)
(-0.465675 0.0616513 0.0367243)
(-0.469212 0.0334154 0.0455548)
(-0.460974 0.0123492 0.0376908)
(-0.437749 0.00734199 0.035994)
(-0.397022 0.0153619 0.024903)
(-0.354947 0.0607029 0.00297599)
(-0.267819 0.1163 -0.0250428)
(-0.140375 0.150149 -0.0251417)
(-0.0364459 0.141983 -0.0141166)
(0.00546109 0.0818308 -0.00181242)
(0.0104301 0.107444 -0.0121626)
(0.0827083 0.231462 -0.0382596)
(0.175333 0.297956 -0.0372737)
(0.225379 0.327606 -0.0200465)
(0.240782 0.351883 -0.007308)
(0.235184 0.376552 -0.0016014)
(0.216949 0.400398 0.00187548)
(0.19277 0.415108 0.00265472)
(0.172313 0.424662 0.0107557)
(0.148526 0.426088 0.0226662)
(0.123592 0.417049 0.0314302)
(0.0963512 0.396353 0.0390274)
(0.068262 0.367417 0.047317)
(0.0355452 0.332505 0.0548428)
(0.00868745 0.291813 0.051437)
(-0.0211045 0.259487 0.0390148)
(-0.0600936 0.238577 0.0266586)
(-0.0979915 0.221241 0.0144991)
(-0.130353 0.212174 0.00668533)
(-0.162699 0.209657 -0.00451226)
(-0.210577 0.203068 -0.0110654)
(-0.211321 0.208099 -0.0054512)
(-0.168246 0.220403 -0.00034926)
(-0.17384 0.198806 0.00299083)
(-0.205268 0.180501 0.0139074)
(-0.247086 0.162305 0.0217274)
(-0.295256 0.141842 0.0260885)
(-0.340936 0.120503 0.0350303)
(-0.387859 0.0890346 0.047333)
(-0.428192 0.054516 0.046813)
(-0.453832 0.0230947 0.066758)
(-0.47486 -0.0146436 0.0502999)
(-0.480341 -0.0526635 0.0334978)
(-0.464636 -0.0739289 0.0106633)
(-0.421945 -0.0636266 0.00381135)
(-0.374752 -0.0186757 0.00651204)
(-0.289277 0.0647602 -0.00257181)
(-0.157349 0.121254 -0.0303269)
(-0.0416206 0.134824 -0.0138786)
(0.00497341 0.084521 -0.00331236)
(0.00984362 0.115763 -0.0117076)
(0.080945 0.255905 -0.0411152)
(0.176199 0.325757 -0.0418304)
(0.232582 0.353499 -0.0232732)
(0.258623 0.369161 -0.0050788)
(0.260291 0.382396 0.00493747)
(0.244294 0.395016 0.0108152)
(0.221238 0.402998 0.0134756)
(0.201068 0.40703 0.0164896)
(0.178414 0.401384 0.020913)
(0.155329 0.385969 0.0248592)
(0.125631 0.359749 0.0372071)
(0.0921169 0.327798 0.038196)
(0.0598222 0.291342 0.0419719)
(0.0266111 0.260261 0.0469962)
(-0.0014653 0.225767 0.0377153)
(-0.03435 0.209466 0.0224209)
(-0.0736309 0.1953 0.0115307)
(-0.102535 0.188799 0.00461411)
(-0.134596 0.187348 -0.0054408)
(-0.174167 0.178638 -0.00836755)
(-0.160831 0.195527 -0.00177699)
(-0.131023 0.197325 -0.00189952)
(-0.14483 0.171341 0.00303475)
(-0.170957 0.15007 0.0102095)
(-0.20874 0.124894 0.0177871)
(-0.253803 0.105027 0.019722)
(-0.299131 0.0778957 0.0379888)
(-0.350081 0.0484177 0.0445041)
(-0.38978 0.0190828 0.0659457)
(-0.436746 -0.0213246 0.0506112)
(-0.479584 -0.073559 0.0395609)
(-0.496546 -0.120533 0.0246983)
(-0.482339 -0.153346 0.0121447)
(-0.439939 -0.156141 -0.00865456)
(-0.379698 -0.117733 -0.00737788)
(-0.2968 -0.0177019 -0.000721821)
(-0.175528 0.0765662 -0.0168413)
(-0.0475921 0.117744 -0.0196628)
(0.00686091 0.0824813 -0.00159616)
(0.00863103 0.123977 -0.0092654)
(0.0803292 0.278514 -0.0401527)
(0.17721 0.353459 -0.043003)
(0.240379 0.378407 -0.02396)
(0.273318 0.38635 -0.00320419)
(0.279832 0.38686 0.0113946)
(0.268349 0.389686 0.0210864)
(0.249467 0.391136 0.0236125)
(0.232107 0.390467 0.0258841)
(0.208652 0.379755 0.028067)
(0.182144 0.361256 0.0290535)
(0.152115 0.331501 0.0282177)
(0.118922 0.299135 0.0264455)
(0.0840863 0.263658 0.0301836)
(0.0476745 0.233072 0.033549)
(0.0190009 0.207974 0.0326342)
(-0.0101303 0.184603 0.0184636)
(-0.0469866 0.1756 0.00867759)
(-0.0704105 0.171624 0.00314355)
(-0.102729 0.162104 -0.00646055)
(-0.123959 0.162612 -0.00313958)
(-0.105523 0.184574 0.000315406)
(-0.0989939 0.169265 0.000805329)
(-0.116639 0.143164 0.00378471)
(-0.139232 0.117466 0.00941276)
(-0.170856 0.0904076 0.0137286)
(-0.210559 0.0677369 0.0270454)
(-0.256232 0.0399686 0.0354465)
(-0.298648 0.0152971 0.0523099)
(-0.352663 -0.0204347 0.0471673)
(-0.413738 -0.0729389 0.0420131)
(-0.463276 -0.125894 0.0317845)
(-0.493516 -0.177413 0.0194228)
(-0.495134 -0.219842 0.00329693)
(-0.459671 -0.239298 -0.0140367)
(-0.391449 -0.211617 -0.0201486)
(-0.302715 -0.123298 -0.0185359)
(-0.187336 0.019079 0.00260478)
(-0.0565799 0.0939178 -0.0253433)
(0.00509995 0.0815846 -0.00260177)
(0.00636467 0.108209 -0.00992864)
(0.0742012 0.275856 -0.0406342)
(0.171751 0.357064 -0.0426275)
(0.239876 0.383205 -0.0232034)
(0.280043 0.385882 0.000419357)
(0.294162 0.382942 0.0153488)
(0.289756 0.380366 0.0215934)
(0.273327 0.374745 0.0257706)
(0.254953 0.365564 0.0274632)
(0.232166 0.35122 0.0280891)
(0.206523 0.3309 0.0269177)
(0.174568 0.304575 0.0251453)
(0.138772 0.273754 0.0204309)
(0.103129 0.241123 0.0143746)
(0.0699121 0.212833 0.0144101)
(0.0368444 0.192149 0.020133)
(0.011841 0.173064 0.0143034)
(-0.0118647 0.159468 0.00461015)
(-0.0411986 0.154575 -0.00155474)
(-0.063381 0.147749 -0.00393396)
(-0.0639886 0.16253 0.000847138)
(-0.0616391 0.162748 0.00241626)
(-0.0736613 0.141268 0.00421971)
(-0.0911158 0.114587 0.00604022)
(-0.111691 0.0895368 0.00774651)
(-0.137428 0.0620387 0.0116543)
(-0.172181 0.0366739 0.0213122)
(-0.207264 0.00982471 0.0355928)
(-0.25538 -0.0199517 0.038471)
(-0.315385 -0.0681176 0.0386373)
(-0.375169 -0.117092 0.0345939)
(-0.430112 -0.173975 0.0290144)
(-0.469612 -0.232594 0.0180407)
(-0.485696 -0.28765 0.00377784)
(-0.463123 -0.321424 -0.0146448)
(-0.40307 -0.311834 -0.0269529)
(-0.29758 -0.234899 -0.0302535)
(-0.190439 -0.0806325 -0.0183097)
(-0.0682893 0.0517086 -0.0175571)
(0.00651789 0.0722269 -0.00605936)
(0.00796332 0.110589 -0.00287335)
(0.0750338 0.284727 -0.03316)
(0.171291 0.369893 -0.03796)
(0.24535 0.39341 -0.0178051)
(0.295088 0.39007 0.00754486)
(0.317431 0.378209 0.0157576)
(0.313855 0.369061 0.0242699)
(0.296883 0.356966 0.0261611)
(0.280197 0.346762 0.0255325)
(0.258876 0.330189 0.0226873)
(0.233891 0.309499 0.0192589)
(0.202794 0.280666 0.0152753)
(0.165553 0.250866 0.0102232)
(0.127828 0.218853 0.00684889)
(0.0936342 0.192705 0.00294962)
(0.0648409 0.172447 0.00419421)
(0.0365658 0.163669 0.00548719)
(0.0124533 0.158884 0.000783825)
(-0.00136114 0.160074 -0.00163616)
(-0.00952256 0.162248 -0.000631234)
(-0.0201471 0.159963 0.00284039)
(-0.0348944 0.140127 0.00552483)
(-0.0515313 0.117777 0.00758668)
(-0.0695358 0.091394 0.008641)
(-0.0881353 0.0666892 0.0094803)
(-0.111844 0.0406281 0.0129082)
(-0.140245 0.0133347 0.0238244)
(-0.177424 -0.0150514 0.0271439)
(-0.226617 -0.0542833 0.0287587)
(-0.28174 -0.0971212 0.0296095)
(-0.338921 -0.145574 0.029755)
(-0.393473 -0.203548 0.0266991)
(-0.437404 -0.266329 0.01963)
(-0.463307 -0.332628 0.0066634)
(-0.454108 -0.382558 -0.0107643)
(-0.404238 -0.397503 -0.0273195)
(-0.307565 -0.335049 -0.0390205)
(-0.191506 -0.192207 -0.0301068)
(-0.0645034 -0.000495133 -0.00977598)
(0.00358049 0.0598566 -0.0103006)
(-0.00197708 0.0884156 -0.0149583)
(0.0545706 0.271036 -0.0398533)
(0.152921 0.367154 -0.0457188)
(0.235264 0.39336 -0.0245402)
(0.295002 0.392295 -0.0022009)
(0.329658 0.373109 0.0120182)
(0.337034 0.356252 0.0179567)
(0.324193 0.335502 0.0192542)
(0.306958 0.318335 0.016945)
(0.282842 0.306808 0.0136996)
(0.254446 0.297205 0.0103812)
(0.219941 0.284389 0.00824037)
(0.181748 0.26484 0.00523092)
(0.144727 0.23879 0.00322516)
(0.115395 0.214541 0.000999227)
(0.0925642 0.196771 0.00236082)
(0.0792965 0.19287 0.00218935)
(0.0654577 0.192207 -0.00217115)
(0.0447109 0.188454 -0.00348858)
(0.0210027 0.173109 -0.00161887)
(-2.50523e-05 0.152262 0.00390845)
(-0.0165193 0.124601 0.0069135)
(-0.0346488 0.100025 0.00938824)
(-0.0528193 0.0741336 0.0109822)
(-0.0694287 0.0475984 0.012892)
(-0.0913615 0.019921 0.0145647)
(-0.11859 -0.00684231 0.0154575)
(-0.15293 -0.042383 0.0148397)
(-0.197755 -0.0813002 0.0165829)
(-0.246537 -0.127243 0.0188605)
(-0.298317 -0.177591 0.020434)
(-0.349789 -0.239537 0.0201976)
(-0.395533 -0.306945 0.0157375)
(-0.4286 -0.383449 0.00617353)
(-0.432666 -0.447813 -0.010252)
(-0.393949 -0.483861 -0.0261432)
(-0.305894 -0.439526 -0.0509811)
(-0.192056 -0.307183 -0.0431278)
(-0.0643842 -0.0802742 -0.0118953)
(0.00152953 0.0445384 -0.000277514)
(-0.00166315 0.154233 -0.00346458)
(0.0515355 0.351951 -0.0173211)
(0.142772 0.451658 -0.0286456)
(0.228268 0.474068 -0.0090284)
(0.297377 0.464115 -0.00150619)
(0.33726 0.431821 0.014389)
(0.348089 0.394906 0.0180184)
(0.336383 0.372409 0.0206529)
(0.332697 0.375041 0.0181133)
(0.325089 0.378668 0.0129914)
(0.304714 0.376186 0.00670961)
(0.26771 0.364419 0.00037579)
(0.218095 0.341097 -0.00408066)
(0.172058 0.309606 -0.00528042)
(0.140423 0.279532 -0.00571917)
(0.127151 0.253604 -0.00240469)
(0.112993 0.233104 0.00295462)
(0.0883457 0.210725 -0.00379777)
(0.0607134 0.189338 -0.00697987)
(0.0359697 0.162252 -0.00337604)
(0.0127157 0.139681 0.000931756)
(-0.00675576 0.109395 0.00619566)
(-0.0221224 0.0849355 0.00896305)
(-0.041336 0.058365 0.0112105)
(-0.0589443 0.033854 0.0134412)
(-0.0778574 0.00471993 0.0126009)
(-0.105617 -0.0176641 0.00951055)
(-0.142666 -0.0497102 0.00742553)
(-0.185138 -0.0846914 0.00787483)
(-0.229101 -0.129408 0.0102872)
(-0.273926 -0.178234 0.0136982)
(-0.317348 -0.24051 0.0159312)
(-0.359411 -0.312363 0.0150326)
(-0.394442 -0.398583 0.00835741)
(-0.406724 -0.481923 -0.00638603)
(-0.377257 -0.545191 -0.0242036)
(-0.304673 -0.545627 -0.0547107)
(-0.194125 -0.420249 -0.0565365)
(-0.0575791 -0.202345 -0.0293176)
(0.00479578 0.00408102 -0.00084809)
(-0.0165275 0.229653 -0.0216534)
(0.0214069 0.46912 -0.0401086)
(0.11096 0.579175 -0.0486509)
(0.197318 0.618199 -0.0322999)
(0.269602 0.608718 -0.0212255)
(0.316336 0.576464 -0.00324134)
(0.350856 0.529153 0.00479963)
(0.384061 0.49423 0.00630322)
(0.39546 0.481346 -0.00124109)
(0.369052 0.460504 -0.00701588)
(0.32936 0.432314 -0.0105463)
(0.277314 0.397659 -0.0114792)
(0.220631 0.356664 -0.0110763)
(0.175309 0.319074 -0.00977178)
(0.147577 0.286941 -0.00955109)
(0.130011 0.256877 -0.00636116)
(0.117928 0.221336 -0.00131388)
(0.101938 0.192858 0.00474347)
(0.0751255 0.169031 -0.000943352)
(0.0491936 0.146417 -0.00301966)
(0.0232888 0.120828 -0.00031511)
(0.0032107 0.0943461 0.00526729)
(-0.0119911 0.0673208 0.00806371)
(-0.0298659 0.0400443 0.0111568)
(-0.0468111 0.0148325 0.00951707)
(-0.0623154 -0.0137204 0.0116923)
(-0.085336 -0.0408036 0.0064351)
(-0.120958 -0.0691799 0.000503103)
(-0.161962 -0.103059 -0.00450026)
(-0.201889 -0.151327 -0.00706802)
(-0.242424 -0.201757 -0.00759602)
(-0.282539 -0.268132 -0.00790772)
(-0.321638 -0.340686 -0.00697125)
(-0.358664 -0.436037 -0.00893884)
(-0.382707 -0.532662 -0.0184041)
(-0.38195 -0.629799 -0.0355304)
(-0.314232 -0.658642 -0.0599453)
(-0.228751 -0.559576 -0.0753648)
(-0.0852392 -0.280618 -0.0353644)
(0.0151934 -0.0126433 -0.00349653)
(0.00164881 0.197272 0.0018568)
(0.0398918 0.440501 -0.0365822)
(0.114698 0.565746 -0.0490151)
(0.201634 0.622713 -0.0451877)
(0.27319 0.626851 -0.0348302)
(0.32155 0.606487 -0.0241872)
(0.349492 0.568165 -0.0173718)
(0.373075 0.520618 -0.00770625)
(0.383945 0.4717 -0.00985985)
(0.362323 0.431063 -0.00966122)
(0.32931 0.394347 -0.00966785)
(0.281322 0.360195 -0.00822097)
(0.22963 0.322498 -0.00630914)
(0.191558 0.292444 -0.00449242)
(0.165479 0.265058 -0.00356748)
(0.146073 0.237868 -0.00122076)
(0.130527 0.208174 0.00209287)
(0.115257 0.174316 0.00473876)
(0.0910545 0.149743 0.00821242)
(0.0619224 0.126929 0.00243098)
(0.0326485 0.104146 0.0010787)
(0.0101498 0.0778771 0.00410181)
(-0.00693157 0.0502483 0.00883229)
(-0.0240269 0.0218994 0.0116216)
(-0.0410958 -0.00330011 0.0107473)
(-0.0582863 -0.0310268 0.0141799)
(-0.0797472 -0.0599571 0.0138487)
(-0.113905 -0.0896335 0.00961639)
(-0.161172 -0.113019 0.00497593)
(-0.199039 -0.15219 0.00436034)
(-0.231225 -0.198555 0.00302566)
(-0.259472 -0.271414 0.000593577)
(-0.290115 -0.363987 -0.00458868)
(-0.318963 -0.499493 -0.0118289)
(-0.346218 -0.642224 -0.0187069)
(-0.350143 -0.778184 -0.0275278)
(-0.298068 -0.841896 -0.049823)
(-0.191671 -0.794157 -0.0642527)
(-0.0691445 -0.495663 -0.0634523)
(-0.0033841 -0.123249 0.00898228)
(0.000296586 0.209241 -0.00254964)
(0.0356395 0.426676 -0.0332819)
(0.103 0.549666 -0.0439995)
(0.181883 0.604078 -0.0420486)
(0.251113 0.60882 -0.025408)
(0.303402 0.58427 -0.019196)
(0.338825 0.543287 -0.0106357)
(0.367523 0.500645 -0.00362937)
(0.385009 0.452588 -0.00462571)
(0.370477 0.416071 -0.00463052)
(0.337135 0.382256 -0.00463181)
(0.286459 0.346539 -0.00365824)
(0.236456 0.310555 -0.00223195)
(0.202843 0.280127 -0.00133938)
(0.177751 0.251466 -0.000622343)
(0.156926 0.222215 0.00122895)
(0.136081 0.193465 0.00318385)
(0.122306 0.157268 0.00806114)
(0.10319 0.126643 0.00879512)
(0.0758913 0.103128 0.0109944)
(0.0439394 0.0837751 0.00420675)
(0.0172425 0.0590501 0.00457201)
(-0.000791597 0.034384 0.0100722)
(-0.0159464 0.00811556 0.0101982)
(-0.0307902 -0.0147388 0.0117254)
(-0.0470759 -0.039857 0.0132143)
(-0.0669066 -0.0639992 0.0140174)
(-0.0887015 -0.0908247 0.013814)
(-0.1265 -0.105643 0.00828704)
(-0.169631 -0.123238 0.00581849)
(-0.214296 -0.150417 0.00675872)
(-0.261383 -0.205356 0.00968206)
(-0.317802 -0.280436 0.0144426)
(-0.361172 -0.403312 0.0180042)
(-0.369973 -0.55037 0.0134415)
(-0.359836 -0.717555 0.00570398)
(-0.313742 -0.841203 -0.0105526)
(-0.213491 -0.866915 -0.0366373)
(-0.0569558 -0.645524 -0.0476784)
(0.0220582 -0.210265 -0.0144599)
(0.00528152 0.193001 -0.00357902)
(0.042274 0.391986 -0.0268815)
(0.10321 0.521488 -0.0373476)
(0.17783 0.581018 -0.0363977)
(0.243281 0.595654 -0.0248717)
(0.291816 0.576403 -0.0146193)
(0.329623 0.536805 -0.00573294)
(0.355947 0.492495 0.000246478)
(0.374314 0.4386 -0.000811973)
(0.368353 0.394311 -0.00167224)
(0.336626 0.354471 -0.00219801)
(0.288556 0.314801 -0.000685633)
(0.244868 0.281685 0.000580784)
(0.216194 0.251889 0.00153194)
(0.192031 0.224195 0.00196654)
(0.172194 0.195823 0.00323979)
(0.148232 0.16859 0.00495445)
(0.128144 0.137545 0.00760526)
(0.112846 0.101136 0.0139749)
(0.0911801 0.0768907 0.0126738)
(0.0576468 0.0587231 0.0131112)
(0.027967 0.0395913 0.00809285)
(0.00855617 0.0196863 0.0122011)
(-0.00644515 -0.00406184 0.0109178)
(-0.0210866 -0.0238885 0.0122533)
(-0.0372793 -0.0490901 0.0120953)
(-0.0564925 -0.0705107 0.0123271)
(-0.074381 -0.0978352 0.0126268)