/*--------------------------------*- C++ -*----------------------------------*\
| =========                 |                                                 |
| \\      /  F ield         | OpenFOAM: The Open Source CFD Toolbox           |
|  \\    /   O peration     | Version:  v1806                                 |
|   \\  /    A nd           | Web:      www.OpenFOAM.com                      |
|    \\/     M anipulation  |                                                 |
\*---------------------------------------------------------------------------*/
FoamFile
{
    version     2.0;
    format      ascii;
    class       surfaceScalarField;
    location    "0.065";
    object      phi;
}
// * * * * * * * * * * * * * * * * * * * * * * * * * * * * * * * * * * * * * //

dimensions      [0 3 -1 0 0 0 0];
oriented        oriented;


internalField   nonuniform List<scalar> 
187200
(
6.97914e-06
2.21727e-06
-9.19778e-06
4.63512e-05
-1.91643e-05
-2.02076e-05
6.78614e-05
-9.2782e-06
-1.22319e-05
8.76604e-05
-9.71254e-06
-1.00863e-05
0.000104167
-6.24032e-06
-1.02665e-05
0.000121545
-5.11105e-06
-1.22672e-05
0.000136832
-7.85342e-07
-1.45012e-05
0.00015314
5.09994e-07
-1.68174e-05
0.000166465
4.7331e-06
-1.80584e-05
0.000178262
5.96722e-06
-1.77633e-05
0.000189468
7.70475e-06
-1.89114e-05
0.000195431
1.32461e-05
-1.92095e-05
0.000185685
2.16074e-05
-1.18611e-05
0.000156076
3.68972e-05
-7.28851e-06
0.000110584
4.39071e-05
1.58435e-06
6.98206e-05
2.96081e-05
1.11548e-05
1.43678e-05
3.15357e-05
2.39169e-05
-4.01947e-05
4.71789e-05
7.38315e-06
-0.000139377
9.98616e-05
-6.7916e-07
-0.000266139
0.000133993
-7.23143e-06
-0.000504289
0.000219494
1.8656e-05
-0.00068285
0.000232398
-5.38367e-05
-0.000801518
0.00027851
-0.000159842
-0.000840939
0.000306787
-0.000267367
-0.000821073
0.000338221
-0.000358087
-0.000751206
0.000367774
-0.000437641
-0.000640132
0.000391492
-0.000502566
-0.000504611
0.000408304
-0.000543824
-0.000337367
0.000397665
-0.000564909
-0.000176192
0.00038404
-0.000545215
-4.48911e-05
0.000340365
-0.000471666
3.7934e-05
0.000298703
-0.000381528
6.92607e-05
0.000234353
-0.00026568
6.12235e-05
0.000174567
-0.00016653
3.57126e-05
0.000120811
-9.53007e-05
1.38704e-05
8.08067e-05
-5.89649e-05
4.27545e-07
5.53023e-05
-4.18596e-05
-5.52965e-06
4.28191e-05
-3.68618e-05
-7.06508e-06
3.28477e-05
-3.13122e-05
2.2615e-05
-2.968e-05
5.53919e-06
1.30016e-05
-1.63234e-05
4.44499e-05
-2.99408e-05
-2.81339e-05
8.51486e-05
-2.42535e-05
-2.57234e-05
0.000115834
-1.48475e-05
-2.55507e-05
0.000137405
-2.86377e-06
-2.49472e-05
0.00015431
7.32316e-06
-2.93389e-05
0.00016168
2.73591e-05
-3.55141e-05
0.000164968
3.87535e-05
-4.15309e-05
0.000158201
6.32646e-05
-5.17646e-05
0.000140352
8.27194e-05
-5.89032e-05
9.80373e-05
0.000125132
-7.51136e-05
3.54374e-05
0.000166849
-9.10033e-05
-4.91511e-05
0.000203846
-9.76507e-05
-0.000149981
0.000245649
-0.000107922
-0.000274779
0.000300001
-0.000131297
-0.000458804
0.000376573
-0.00016294
-0.000640275
0.00045238
-0.000239374
-0.00083239
0.000536861
-0.000297566
-0.00100142
0.000636514
-0.000367626
-0.00115536
0.00073235
-0.000444413
-0.00129917
0.000857587
-0.000494287
-0.00139293
0.000933367
-0.000607203
-0.00144101
0.00103887
-0.000712284
-0.00142616
0.00108814
-0.000796201
-0.00134081
0.00113333
-0.000880464
-0.00119635
0.00115951
-0.000936197
-0.00100287
0.00116448
-0.000966465
-0.000775372
0.00114346
-0.000962662
-0.000539505
0.00108283
-0.000921034
-0.000313627
0.00100556
-0.000847393
-0.000121181
0.000875928
-0.000728009
3.8016e-05
0.000735575
-0.000596069
0.000121015
0.000583196
-0.000431841
0.000146377
0.000455865
-0.000306661
0.000132436
0.000336212
-0.000201459
0.000102299
0.000249155
-0.000138211
6.93671e-05
0.000186669
-9.84356e-05
4.32525e-05
0.000146402
-7.7468e-05
1.69396e-05
0.000116723
-5.75619e-05
8.03485e-05
-4.07942e-05
1.91061e-05
6.08247e-06
-1.21868e-05
5.69124e-05
-3.43003e-05
-3.34465e-05
9.7756e-05
-2.52964e-05
-3.98006e-05
0.000126562
-2.684e-06
-4.09695e-05
0.000142658
2.8515e-05
-4.74745e-05
0.000147939
5.86266e-05
-5.65845e-05
0.000139779
0.000101058
-6.55384e-05
0.000123275
0.000138307
-8.30499e-05
9.42705e-05
0.000200745
-0.000108476
3.74133e-05
0.000268606
-0.00012903
-4.66592e-05
0.000351632
-0.000142428
-0.000148764
0.000433161
-0.000164208
-0.000303575
0.000537715
-0.000179058
-0.000483106
0.000646272
-0.000221093
-0.000685238
0.0007555
-0.000253368
-0.000871407
0.000867146
-0.000304404
-0.00103561
0.000974139
-0.000357561
-0.00118384
0.00109683
-0.000411731
-0.00131915
0.00123554
-0.000463723
-0.00144503
0.00137654
-0.000518308
-0.0015589
0.00151341
-0.000541957
-0.00162281
0.00159524
-0.000597967
-0.00163463
0.00170186
-0.000651163
-0.00159727
0.00172943
-0.00067864
-0.00150129
0.00175157
-0.000714219
-0.00136115
0.00174304
-0.000723667
-0.00118482
0.00170165
-0.000713504
-0.000984105
0.00162438
-0.000681627
-0.000773336
0.00150644
-0.000634375
-0.000553643
0.00135952
-0.000573655
-0.000369783
0.00118568
-0.000493608
-0.000209889
0.0010037
-0.000428021
-9.3678e-05
0.000804746
-0.000337761
-1.1495e-05
0.000643007
-0.000269324
2.796e-05
0.00049475
-0.000197992
4.26575e-05
0.000386382
-0.000151924
4.32811e-05
0.000306832
-0.000120786
3.41031e-05
0.000255043
-9.9463e-05
1.55018e-05
0.000205724
-7.03998e-05
0.000136542
-4.06917e-05
2.03641e-05
3.04954e-06
-1.7331e-05
5.83408e-05
-2.60882e-05
-4.61886e-05
9.84459e-05
-7.01594e-06
-5.83853e-05
0.000121251
3.9985e-05
-6.54742e-05
0.000125306
9.65444e-05
-7.2084e-05
0.000114015
0.000155309
-8.53911e-05
9.32298e-05
0.000232511
-0.000110668
5.50583e-05
0.000312569
-0.00013609
-3.11008e-07
0.00042437
-0.000168257
-8.11391e-05
0.000536984
-0.00018755
-0.00019634
0.000669635
-0.000202803
-0.000345354
0.000801022
-0.000218847
-0.00050853
0.000932076
-0.000231184
-0.000665532
0.00105031
-0.000247038
-0.000818329
0.00117712
-0.000268824
-0.000961468
0.00130486
-0.000294576
-0.00109501
0.00142807
-0.000320393
-0.00121363
0.0015507
-0.000335247
-0.00131981
0.00168364
-0.000341913
-0.00141728
0.00180833
-0.000334325
-0.0015193
0.00190751
-0.000292078
-0.00157832
0.00194586
-0.000291593
-0.00158887
0.00200805
-0.000295649
-0.00156267
0.00198319
-0.000279962
-0.00148828
0.00195835
-0.000281173
-0.00138548
0.00190642
-0.000266184
-0.00125919
0.00182358
-0.000248217
-0.00111766
0.00171125
-0.000228409
-0.000964334
0.00156188
-0.000208764
-0.000798819
0.00139802
-0.000204013
-0.000621692
0.00121177
-0.000203222
-0.000448302
0.00103063
-0.000200315
-0.000296271
0.000849254
-0.000196539
-0.000172795
0.000707776
-0.000188245
-8.77984e-05
0.000578012
-0.000168258
-2.93205e-05
0.000476374
-0.000148469
7.01888e-06
0.000403789
-0.000133295
2.04566e-05
0.000350304
-0.000108699
1.68048e-05
0.000286479
-7.7103e-05
0.000191322
-3.79749e-05
2.05141e-05
1.85415e-05
-3.60061e-05
5.99276e-05
1.07286e-05
-7.62302e-05
0.000102085
4.16666e-05
-9.08403e-05
0.0001204
0.000120562
-9.88913e-05
0.000116913
0.000204955
-0.000104924
8.82399e-05
0.000304067
-0.000120086
4.95256e-05
0.000422035
-0.000150811
1.06116e-05
0.000534794
-0.000183311
-3.70003e-05
0.000680608
-0.000208626
-0.000115397
0.000832038
-0.000216658
-0.00021393
0.000985566
-0.000217398
-0.000323981
0.00112455
-0.000213481
-0.00045467
0.00126692
-0.000204156
-0.000595348
0.00139482
-0.000203826
-0.000734315
0.00151377
-0.000197679
-0.000855757
0.00161817
-0.000191863
-0.000958471
0.00170628
-0.000175492
-0.00103897
0.00177516
-0.000143965
-0.00112901
0.00185751
-8.3822e-05
-0.00121814
0.00192401
-2.65568e-05
-0.00133809
0.00196688
6.05837e-05
-0.00140358
0.00191948
9.18698e-05
-0.00143177
0.00193425
0.000101987
-0.00143714
0.00187777
0.000110787
-0.00140729
0.00183284
9.5664e-05
-0.0013615
0.00177253
8.8096e-05
-0.00129747
0.00168416
7.53933e-05
-0.00122729
0.00158019
6.08838e-05
-0.00113283
0.00144546
2.19593e-05
-0.00101426
0.00130243
-2.29762e-05
-0.000869345
0.00114027
-7.34157e-05
-0.000705597
0.000990697
-0.000123817
-0.000542372
0.000838696
-0.000152668
-0.000384082
0.000721724
-0.000172238
-0.000248409
0.000622468
-0.000180129
-0.000136345
0.000529191
-0.000164881
-5.54335e-05
0.000469687
-0.00014681
-5.44638e-06
0.000421729
-0.000121413
9.29125e-06
0.00035291
-8.11687e-05
0.00023487
-3.42568e-05
1.5259e-05
6.50484e-05
-6.1766e-05
6.07304e-05
7.93306e-05
-0.000114074
0.000108727
0.000133069
-0.000139399
0.000128012
0.000238509
-0.000137231
0.000121555
0.000351869
-0.000140458
8.3958e-05
0.000490878
-0.000149214
5.96871e-05
0.000633536
-0.00018723
2.21342e-05
0.000786301
-0.000213954
-2.7012e-05
0.000952776
-0.000223023
-9.22854e-05
0.00110615
-0.00020884
-0.000165891
0.0012497
-0.00019053
-0.000251166
0.00137749
-0.00016766
-0.00033928
0.00149545
-0.00014042
-0.000423563
0.0015899
-0.000110802
-0.000504874
0.00167307
-7.7992e-05
-0.000577449
0.00172934
-3.85943e-05
-0.000674156
0.00177111
3.18695e-05
-0.000777064
0.00178602
9.20544e-05
-0.000872277
0.00178903
0.000163685
-0.000959308
0.00177283
0.000238209
-0.00108347
0.00179497
0.000296077
-0.00117848
0.00170084
0.000313641
-0.00124175
0.00168518
0.00031234
-0.0012919
0.00161523
0.000312699
-0.00131416
0.00156141
0.00029369
-0.00132498
0.0015056
0.00027774
-0.00132212
0.00143446
0.000246836
-0.0013097
0.00135751
0.000210258
-0.00127365
0.00125792
0.00015149
-0.00119142
0.00115667
6.35243e-05
-0.00107923
0.00103916
-1.10769e-05
-0.00092089
0.000926345
-9.3988e-05
-0.000746074
0.00081563
-0.000151749
-0.000557878
0.000719599
-0.00018607
-0.00038157
0.000649987
-0.000203827
-0.000232082
0.000569344
-0.000189641
-0.000110947
0.000520037
-0.000171485
-3.16947e-05
0.00047775
-0.000135274
5.61982e-06
0.000403893
-8.82976e-05
0.000273423
-3.29341e-05
1.74817e-05
0.000143118
-9.5551e-05
8.4831e-05
0.000181786
-0.000169804
0.000133578
0.000268099
-0.000183777
0.000154311
0.000390816
-0.00017304
0.000145807
0.000525778
-0.000165405
0.000108176
0.000699353
-0.000170844
9.57597e-05
0.000849268
-0.000203316
7.37909e-05
0.00102097
-0.000212698
5.30818e-05
0.00117079
-0.000197302
9.40469e-06
0.00131382
-0.000163994
-4.82979e-05
0.00143755
-0.000130149
-0.00011702
0.00153948
-9.32693e-05
-0.000187695
0.00162156
-5.54325e-05
-0.000260774
0.00167285
-9.8717e-06
-0.000330788
0.00170037
4.27181e-05
-0.00039451
0.00169931
9.37493e-05
-0.000457973
0.00168162
0.000152952
-0.000528453
0.00163801
0.000218482
-0.000631
0.00159871
0.00029287
-0.000736033
0.00152443
0.000353433
-0.000858704
0.00151474
0.000402901
-0.000991866
0.00140921
0.000424795
-0.00106749
0.00135503
0.000405778
-0.0011627
0.00131707
0.000393378
-0.001232
0.00127407
0.000356636
-0.00129574
0.00124394
0.000325411
-0.00134497
0.00120305
0.000280639
-0.00137884
0.00116018
0.000231199
-0.00138953
0.00110346
0.000165155
-0.00134258
0.00104255
6.71683e-05
-0.00125869
0.000962916
-7.64947e-06
-0.00112359
0.000878039
-8.68026e-05
-0.000942402
0.000794117
-0.000159672
-0.00072788
0.000704894
-0.000199816
-0.000499846
0.000660876
-0.000238924
-0.000319313
0.000612656
-0.000223845
-0.000160247
0.000563861
-0.000202889
-5.48671e-05
0.000529913
-0.000157543
5.13626e-07
0.000451282
-0.000102769
0.000310087
-3.61511e-05
2.83482e-05
0.000241234
-0.000126464
0.000114921
0.000311263
-0.00021605
0.000180899
0.000428585
-0.000226463
0.000208163
0.000562947
-0.000199395
0.000194561
0.000717376
-0.000177996
0.000184558
0.00088959
-0.000180235
0.000188833
0.00104137
-0.000196381
0.000183909
0.00121109
-0.000185202
0.000162612
0.00134398
-0.000151894
0.000121819
0.00146237
-0.000107757
7.29855e-05
0.00155584
-6.94496e-05
1.61556e-05
0.00161818
-2.18747e-05
-4.64514e-05
0.00165218
3.19929e-05
-0.000110607
0.00165065
8.63542e-05
-0.000173548
0.00162482
0.000138486
-0.00023898
0.00157133
0.000193409
-0.000304961
0.00150282
0.000244784
-0.00037753
0.00142247
0.000288112
-0.000468155
0.00135031
0.000339028
-0.000575078
0.00125776
0.000373588
-0.00068358
0.00121757
0.000405665
-0.000842592
0.00115678
0.000411446
-0.000946373
0.00106907
0.000389735
-0.00107523
0.00107748
0.000368448
-0.00118302
0.00104741
0.000334447
-0.00127971
0.00104111
0.000299526
-0.00136251
0.00102587
0.000259977
-0.00142953
0.00100568
0.000221526
-0.00146809
0.000980213
0.000161807
-0.00145569
0.000938006
9.21467e-05
-0.00139683
0.000883259
2.07966e-05
-0.00128202
0.000814993
-5.17608e-05
-0.00109895
0.000750789
-0.000139745
-0.000888394
0.000688543
-0.000194205
-0.000639811
0.000646418
-0.000234126
-0.000412232
0.000639827
-0.000254751
-0.00021591
0.000594003
-0.000226464
-7.96146e-05
0.000574268
-0.000180651
-6.238e-06
0.000493232
-0.000115327
0.000344368
-4.05175e-05
4.72427e-05
0.000349511
-0.000155519
0.000155099
0.000463117
-0.00025971
0.000249084
0.000601636
-0.000267036
0.000291132
0.000742291
-0.000221391
0.000287208
0.000906097
-0.000184798
0.000284556
0.00106431
-0.000172068
0.000277979
0.00121143
-0.000163484
0.000282918
0.0013504
-0.000144249
0.000274528
0.00145924
-0.000106873
0.000241657
0.00155149
-5.62456e-05
0.000197452
0.00160282
-2.78284e-06
0.000142927
0.00162159
5.11167e-05
7.61814e-05
0.00161368
0.00010524
8.34985e-06
0.00156682
0.000151661
-5.94409e-05
0.00149632
0.000196288
-0.0001311
0.00140535
0.00023764
-0.000206015
0.00130755
0.000270182
-0.000282141
0.00120655
0.000292045
-0.000368652
0.00112333
0.000313486
-0.000478466
0.00103642
0.000331155
-0.00058483
0.000980664
0.000343274
-0.000739065
0.000965289
0.000345723
-0.0008825
0.000881037
0.000331469
-0.00102043
0.000906612
0.000308792
-0.00115205
0.000890644
0.000288392
-0.00126576
0.000897658
0.00025716
-0.00137174
0.000893197
0.000238652
-0.00146077
0.000890798
0.000203903
-0.00152822
0.000872376
0.000175286
-0.0015519
0.000838735
0.000122954
-0.00151508
0.000789818
5.66233e-05
-0.00141287
0.000736879
-2.40993e-05
-0.00123642
0.000679193
-0.000104858
-0.00101012
0.000635224
-0.000172972
-0.000745514
0.000604227
-0.00022242
-0.000490617
0.000632615
-0.000247684
-0.000268979
0.000617373
-0.000245009
-0.000102002
0.000605709
-0.00019842
-1.46566e-05
0.000535559
-0.000129672
0.000377111
-4.73996e-05
6.53051e-05
0.000453665
-0.000169459
0.000199191
0.00061931
-0.00029008
0.000318892
0.000774694
-0.000292758
0.00037544
0.000917391
-0.000231648
0.000389343
0.00106795
-0.000175758
0.00038495
0.00120717
-0.000138466
0.000376994
0.00134027
-0.000120883
0.000372318
0.00144962
-9.45367e-05
0.000362988
0.00152661
-5.80389e-05
0.000345496
0.00157448
-5.50682e-06
0.000306773
0.00159851
4.30311e-05
0.000236393
0.00158565
0.000106326
0.000167425
0.00153073
0.00015192
9.34651e-05
0.00144772
0.000193061
1.71775e-05
0.00134764
0.000224966
-6.27859e-05
0.00123629
0.000249021
-0.000144236
0.00112717
0.000261837
-0.000226911
0.00102525
0.000263976
-0.000320047
0.000950296
0.000266173
-0.000431768
0.000883125
0.000265016
-0.000553398
0.000833213
0.000269081
-0.00068458
0.00082508
0.000271391
-0.000847564
0.000771704
0.000272317
-0.000978157
0.00077763
0.000259574
-0.00111637
0.000773324
0.000255528
-0.00123324
0.000783149
0.000231387
-0.00135136
0.000782124
0.000229192
-0.00146103
0.000781401
0.000219068
-0.0015482
0.000757599
0.000201941
-0.00159728
0.000727496
0.000160325
-0.00158733
0.000690092
8.97761e-05
-0.00150583
0.000650084
5.29298e-06
-0.00135077
0.000609445
-8.53149e-05
-0.00112533
0.000574699
-0.000164916
-0.000859283
0.000542304
-0.000204124
-0.000568508
0.000573738
-0.000231899
-0.00031944
0.000612859
-0.000244553
-0.000127028
0.000619158
-0.000205861
-2.26872e-05
0.000567673
-0.000136455
0.000406039
-5.16142e-05
7.99551e-05
0.000550261
-0.000176551
0.000242563
0.000767467
-0.000310765
0.000388128
0.000938027
-0.000308898
0.000463622
0.00107469
-0.000232797
0.000493121
0.00120278
-0.000164327
0.000488636
0.00131893
-0.00010728
0.000479288
0.00142613
-7.65063e-05
0.000462933
0.00150568
-3.97055e-05
0.000435325
0.00155839
-4.17156e-06
0.000400772
0.00157907
2.99663e-05
0.000366214
0.00155599
7.70865e-05
0.00031023
0.00150629
0.000135338
0.000234106
0.00143087
0.000175986
0.000146941
0.00132378
0.000211102
6.14194e-05
0.00120392
0.000229251
-2.65013e-05
0.00108671
0.000237505
-0.00011509
0.000980075
0.000235681
-0.000209113
0.000889675
0.000229599
-0.000310102
0.000828115
0.00022317
-0.000415636
0.000772612
0.000216048
-0.000530133
0.000734238
0.000213472
-0.00063685
0.000714206
0.000217591
-0.000796939
0.00070029
0.000231502
-0.000922932
0.000674444
0.00022918
-0.00105433
0.000668412
0.000236307
-0.00117784
0.000671012
0.000235651
-0.00130345
0.000672155
0.000235583
-0.00143079
0.00066054
0.000248197
-0.00154094
0.000641101
0.000226649
-0.00161338
0.000617093
0.000182843
-0.00163901
0.000585095
0.000130627
-0.00158912
0.00056002
4.01732e-05
-0.00145107
0.000522977
-5.15795e-05
-0.00121542
0.000498441
-0.000159392
-0.000932071
0.000473859
-0.00021491
-0.000631204
0.000503327
-0.000230455
-0.000366742
0.000569374
-0.000220977
-0.000149934
0.000621294
-0.000218943
-2.93261e-05
0.000588928
-0.000141863
0.000435244
-5.85315e-05
9.24741e-05
0.000628463
-0.000170675
0.000281452
0.000897346
-0.000318857
0.000452172
0.00108184
-0.000314532
0.000546299
0.00120507
-0.000224504
0.000586838
0.00130926
-0.000147023
0.000588015
0.00139676
-7.90047e-05
0.000575629
0.00147536
-3.68523e-05
0.000546822
0.00152782
6.66752e-06
0.000506924
0.001555
4.32918e-05
0.000454476
0.00154301
8.85122e-05
0.000397751
0.00150306
0.000109653
0.000331462
0.00142517
0.00014741
0.000262884
0.0013163
0.000183143
0.000179047
0.00119976
0.000207856
8.91233e-05
0.00107729
0.000216551
-3.31832e-06
0.000965032
0.000214118
-9.40732e-05
0.000866032
0.000204797
-0.000192193
0.000790208
0.000197587
-0.000295805
0.000740958
0.000190769
-0.000402331
0.00069422
0.000184918
-0.000504625
0.000655004
0.000181529
-0.000603474
0.000627144
0.000185911
-0.000729347
0.000621691
0.000204472
-0.000843762
0.000579491
0.000209368
-0.000963853
0.00056156
0.000226944
-0.00108432
0.000558291
0.00023319
-0.00122132
0.000547801
0.000261355
-0.00136031
0.00053867
0.000260855
-0.00148619
0.00052465
0.000242334
-0.00159005
0.000510852
0.000210096
-0.0016357
0.000497255
0.000133495
-0.0016174
0.000479708
6.20115e-05
-0.00151762
0.000445624
-2.24264e-05
-0.00132613
0.000421375
-0.000114428
-0.00103494
0.000406761
-0.000224092
-0.000702009
0.000422993
-0.000252598
-0.000401105
0.000494041
-0.000225571
-0.000173072
0.000590762
-0.000197501
-3.67008e-05
0.000597425
-0.000144869
0.000459871
-6.13268e-05
0.000100731
0.000686865
-0.000159133
0.000311957
0.0010037
-0.000317578
0.000507877
0.00119608
-0.000310166
0.000621518
0.00130548
-0.000214053
0.000668902
0.00138823
-0.000126347
0.000675464
0.00144869
-5.8489e-05
0.000660053
0.00149563
-4.85178e-06
0.000624099
0.00151871
4.50656e-05
0.000571851
0.00151951
8.77304e-05
0.000504593
0.00148854
0.000121723
0.000429278
0.00142562
0.000152755
0.000348664
0.00133297
0.000172818
0.000268804
0.00121672
0.00017944
0.000188001
0.00108935
0.000191216
9.98506e-05
0.000970703
0.000194736
1.2027e-05
0.000864471
0.000188385
-7.86062e-05
0.0007781
0.000178565
-0.000179182
0.000715223
0.000175561
-0.000273556
0.000664116
0.000171218
-0.000371989
0.000620504
0.000172148
-0.000461994
0.000576877
0.000168132
-0.000554238
0.000547559
0.000171829
-0.00064231
0.000527523
0.00018224
-0.00074178
0.000483182
0.000195779
-0.000851223
0.000458754
0.000212248
-0.000971179
0.000438174
0.000240074
-0.00110875
0.000428407
0.000256961
-0.00125274
0.000421
0.000261663
-0.00139618
0.00041562
0.000252466
-0.00151568
0.000416764
0.000213591
-0.0016063
0.00041275
0.000175128
-0.0016222
0.000390676
0.000104924
-0.00156851
0.000347837
4.41031e-05
-0.00140813
0.000310987
-4.99918e-05
-0.00114229
0.000300723
-0.000159808
-0.000793604
0.000327186
-0.000252873
-0.000451909
0.000411779
-0.000259432
-0.00019516
0.000525558
-0.000191544
-4.40511e-05
0.000592476
-0.00014616
0.000483343
-6.75237e-05
0.000105122
0.000722362
-0.000140619
0.000335881
0.00107934
-0.000306398
0.000555897
0.00128115
-0.000305084
0.000686196
0.00137748
-0.000202295
0.000740303
0.00143921
-0.000105087
0.000745492
0.00147518
-3.16841e-05
0.000725065
0.00149756
1.84948e-05
0.00067864
0.00149036
7.47713e-05
0.000618964
0.00146616
0.000113031
0.00054732
0.00141206
0.000148129
0.000462013
0.00133613
0.000174797
0.000367734
0.00123331
0.000193931
0.000273018
0.0011163
0.000195135
0.000191541
0.000990468
0.00018036
0.00010633
0.00087868
0.000177234
2.58138e-05
0.000781313
0.000163674
-6.12799e-05
0.000704801
0.000160393
-0.000152601
0.000644843
0.000161701
-0.000238705
0.00058927
0.00016095
-0.000327011
0.000545597
0.000163213
-0.000407326
0.000496456
0.000160736
-0.000483071
0.000461912
0.000161392
-0.000546959
0.000429486
0.000161925
-0.000629134
0.000387306
0.000178051
-0.000726473
0.000360993
0.0001951
-0.000836863
0.000325297
0.000223267
-0.000967673
0.000314358
0.000244858
-0.00110902
0.000309586
0.000252763
-0.001257
0.000319432
0.000244171
-0.0014067
0.000327422
0.000239039
-0.00152233
0.000316084
0.000212291
-0.00159312
0.000276534
0.000184933
-0.0015866
0.00022312
0.000118194
-0.00147347
0.000172652
2.52075e-05
-0.00123402
0.000146337
-8.50617e-05
-0.00089227
0.000179773
-0.000194336
-0.000510206
0.000294521
-0.000264806
-0.000219366
0.000454437
-0.000219718
-4.90914e-05
0.000568103
-0.000145901
0.000506873
-7.26216e-05
0.000108543
0.000733144
-0.000119326
0.000354228
0.00112309
-0.000289441
0.00059274
0.00133669
-0.000294056
0.000739362
0.0014263
-0.000195446
0.000799065
0.00146692
-8.74134e-05
0.000802479
0.00147614
-4.3726e-06
0.000776365
0.00146973
5.39448e-05
0.0007294
0.00144133
9.59963e-05
0.000663093
0.00139717
0.000135296
0.0005813
0.00132925
0.000164602
0.000487079
0.0012417
0.000188644
0.000384803
0.00113346
0.000202129
0.000280962
0.00101802
0.000202126
0.000190949
0.000898656
0.000181825
0.000110293
0.000794836
0.000164501
4.01544e-05
0.000699882
0.00015157
-3.74558e-05
0.000633922
0.00014849
-0.000119202
0.000574235
0.000152355
-0.000198701
0.000516318
0.00015245
-0.000268332
0.000461557
0.000153672
-0.000338814
0.000415377
0.000151561
-0.000400639
0.000378899
0.000144838
-0.000456711
0.000341515
0.000144041
-0.000520912
0.000298182
0.000153325
-0.000600214
0.000269973
0.000170322
-0.000701055
0.000233609
0.000192529
-0.000813115
0.000211615
0.000214803
-0.000946322
0.000217968
0.000224824
-0.00109772
0.000231922
0.000238912
-0.0012468
0.000232972
0.000243528
-0.00139118
0.000211063
0.000249402
-0.00150417
0.000168384
0.000221139
-0.00155296
0.000103663
0.000168248
-0.00149835
3.20208e-05
8.60164e-05
-0.00130956
-1.90252e-05
-2.34248e-05
-0.0009978
-2.96877e-06
-0.000129019
-0.00059288
0.000117919
-0.000228317
-0.000245554
0.000357864
-0.000250753
-5.99221e-05
0.000524743
-0.000142271
0.000519299
-7.23476e-05
0.000111353
0.000710479
-8.86887e-05
0.00036688
0.00112727
-0.000259708
0.000619085
0.0013551
-0.000270606
0.000779252
0.00144194
-0.000175801
0.000846246
0.0014699
-6.9978e-05
0.000842888
0.00145659
2.29089e-05
0.000809231
0.00142909
7.42979e-05
0.000751314
0.00137858
0.000120663
0.000680405
0.00131825
0.000149829
0.000600703
0.00123675
0.000172197
0.000507916
0.00113981
0.00019468
0.000406677
0.00103203
0.000202669
0.000304362
0.000920051
0.000200281
0.000208554
0.000810173
0.000184291
0.0001265
0.000716469
0.000160422
5.07074e-05
0.000631273
0.000144402
-1.84894e-05
0.000561431
0.000141688
-8.19033e-05
0.000496722
0.000140927
-0.000143263
0.000437328
0.00014035
-0.00020717
0.000388367
0.000137097
-0.000270823
0.000345366
0.000133664
-0.000322591
0.000302286
0.000128381
-0.000371117
0.00026387
0.000126171
-0.0004238
0.000221427
0.000129438
-0.000483378
0.000188018
0.000141533
-0.000572584
0.000158518
0.000164298
-0.000667849
0.000129323
0.000177557
-0.000793927
0.000140737
0.000203309
-0.000928228
0.000139914
0.000226309
-0.00108117
0.00012879
0.000257121
-0.0012397
0.000104346
0.00026525
-0.00138148
5.51884e-05
0.000254978
-0.00147457
-1.68376e-05
0.000213591
-0.0014747
-0.000109985
0.000142136
-0.00134745
-0.000189032
4.2754e-05
-0.00107016
-0.000211269
-6.89958e-05
-0.000681088
-0.000102078
-0.000169073
-0.000278719
0.000178923
-0.000223428
-6.17202e-05
0.00046698
-0.000159236
0.000529888
-7.23082e-05
0.000117272
0.000631416
-3.82082e-05
0.000380088
0.0010907
-0.000226246
0.000644026
0.00133935
-0.000248191
0.000822081
0.00142325
-0.000159367
0.000894066
0.0014374
-3.94788e-05
0.000889874
0.00140675
5.40325e-05
0.000851915
0.001359
0.000108046
0.000794191
0.0012926
0.000143711
0.000720996
0.00122617
0.000165277
0.000632798
0.00114429
0.000180664
0.000531681
0.00105281
0.000188115
0.000422096
0.000945779
0.000195837
0.000314452
0.000838754
0.00018894
0.000218787
0.000730683
0.000175154
0.000144281
0.000635472
0.000155503
7.64303e-05
0.000555566
0.000143558
1.34245e-05
0.000489251
0.000135186
-4.60371e-05
0.000425457
0.000130727
-0.000104285
0.000373116
0.00012246
-0.000158197
0.000324007
0.000118272
-0.000206525
0.000279968
0.000113726
-0.000251937
0.000237238
0.000110461
-0.000295008
0.000198139
0.000108802
-0.000342249
0.000159008
0.000109659
-0.000393112
0.000122689
0.000116192
-0.000461503
8.70001e-05
0.000139908
-0.000547784
5.22806e-05
0.000163323
-0.000643389
4.88522e-05
0.000187489
-0.000762747
3.71994e-05
0.000222073
-0.000904281
2.09936e-05
0.000249331
-0.00106335
-5.21683e-06
0.000268632
-0.0012212
-5.53504e-05
0.000268391
-0.00135019
-0.00013046
0.000242613
-0.0014056
-0.000239237
0.000184661
-0.00134254
-0.000347809
9.57159e-05
-0.00113163
-0.000410923
-1.12593e-05
-0.000776813
-0.000341314
-0.000115577
-0.000355294
-6.73766e-05
-0.00017522
-6.78915e-05
0.000355602
-0.000176026
0.0005207
-5.87045e-05
0.000117954
0.000516971
-3.5104e-06
0.000366993
0.00103635
-0.000194684
0.000641968
0.00129748
-0.000233111
0.000833352
0.00138469
-0.000152821
0.00091351
0.00139081
-3.35705e-05
0.00090614
0.00134768
6.64437e-05
0.000860226
0.00128236
0.000122556
0.000785385
0.00120926
0.000158172
0.000699062
0.00113027
0.000182222
0.000614397
0.00103335
0.0001956
0.000529997
0.000936333
0.000200879
0.000442624
0.000835715
0.000197438
0.000354596
0.000739127
0.000187656
0.00027325
0.000650449
0.000161581
0.000198488
0.000568951
0.000141283
0.000127502
0.000497473
0.000129079
5.3592e-05
0.000432633
0.000130528
-1.33442e-05
0.000375565
0.000116828
-6.86147e-05
0.000322546
0.00010584
-0.000112128
0.000268792
9.87276e-05
-0.00015224
0.000223497
9.6583e-05
-0.000189962
0.000182042
9.29171e-05
-0.000229187
0.000144198
9.31648e-05
-0.000267701
0.000105972
9.15493e-05
-0.000314981
6.83229e-05
0.000101646
-0.000371117
2.66818e-05
0.000116454
-0.000450373
-9.05584e-06
0.000140592
-0.000534577
-4.12192e-05
0.000174275
-0.000643257
-6.16077e-05
0.000207487
-0.000768468
-9.76564e-05
0.00024386
-0.000912511
-0.000137301
0.000276127
-0.00106819
-0.000193549
0.000293877
-0.00121506
-0.000268748
0.000285156
-0.00130661
-0.000389095
0.000241409
-0.00129811
-0.000522896
0.000166588
-0.00112987
-0.000655221
7.6064e-05
-0.000799052
-0.000642308
-2.98267e-05
-0.000384331
-0.000351814
-0.000130283
-5.73128e-05
0.00017318
-0.000144596
0.00050275
-3.93626e-05
0.00013876
0.000337014
4.11967e-05
0.000368203
0.000939213
-0.000132307
0.000646699
0.00121269
-0.000193708
0.000841865
0.00130548
-0.000115963
0.000934119
0.00129866
-1.03111e-07
0.000933598
0.00124917
9.90322e-05
0.000895719
0.00117108
0.000149153
0.000836838
0.00108751
0.000180637
0.000771673
0.00100536
0.000190076
0.0006927
0.000920423
0.000191902
0.000601154
0.000839956
0.000187923
0.00049929
0.000757678
0.000179901
0.000395367
0.000675373
0.000167677
0.000298276
0.000599883
0.000147657
0.000218561
0.000526076
0.00012259
0.000149963
0.000459321
0.00010675
8.61208e-05
0.000392452
0.000104024
2.71161e-05
0.000329216
0.000105354
-1.87979e-05
0.000273344
9.51161e-05
-6.19681e-05
0.000224775
8.71876e-05
-0.000100224
0.000178194
8.35586e-05
-0.000136401
0.000137306
8.09136e-05
-0.000171013
9.81022e-05
8.07073e-05
-0.000209338
6.37426e-05
8.05537e-05
-0.000253446
2.25491e-05
8.98808e-05
-0.000305936
-1.93984e-05
9.85693e-05
-0.000363623
-6.17989e-05
0.000110431
-0.000430118
-0.000113108
0.000138383
-0.000510369
-0.000157745
0.000176388
-0.000613363
-0.000211287
0.000216625
-0.000746897
-0.000260207
0.00025644
-0.00090634
-0.000325479
0.000291373
-0.00107948
-0.000407753
0.000312141
-0.0012111
-0.00056422
0.00030675
-0.00126591
-0.000734074
0.000265981
-0.00118323
-0.000915823
0.000177926
-0.000925063
-0.000967077
6.66003e-05
-0.000491363
-0.000746802
-3.87117e-05
-9.78937e-05
-0.000132476
-8.78138e-05
0.000409384
-4.5282e-06
0.000108733
0.000217698
1.05825e-05
0.000326862
0.000859505
-0.000138422
0.000611001
0.0011341
-0.000205549
0.000822976
0.00123317
-0.000139667
0.000929598
0.00121942
-2.73855e-05
0.00094957
0.00116028
6.89188e-05
0.000910649
0.00106847
0.00014154
0.000845773
0.000988232
0.000164151
0.000767418
0.000910608
0.000173103
0.000679585
0.000833575
0.000174681
0.000590869
0.000756971
0.000171701
0.000500541
0.000683358
0.000164649
0.000413774
0.000610541
0.0001516
0.00033123
0.000547238
0.000135189
0.000254912
0.000482759
0.000119635
0.00019252
0.000425047
9.66646e-05
0.000139998
0.000361558
8.34165e-05
8.57206e-05
0.000303676
7.98178e-05
3.22282e-05
0.00024394
8.28967e-05
-9.39285e-06
0.000187679
7.8717e-05
-5.17373e-05
0.000145954
7.45847e-05
-8.61039e-05
9.9349e-05
7.23225e-05
-0.000121378
6.18643e-05
7.15111e-05
-0.000155777
2.47555e-05
7.33864e-05
-0.000196162
-1.87476e-05
8.16811e-05
-0.0002461
-5.59055e-05
8.6445e-05
-0.000302078
-9.80963e-05
9.22757e-05
-0.000370644
-0.000151791
0.000107249
-0.000449217
-0.000214664
0.000135492
-0.000537359
-0.000294062
0.000170917
-0.000632458
-0.000380181
0.000215073
-0.000739203
-0.00048498
0.000266245
-0.000865362
-0.000599019
0.000317424
-0.00100777
-0.000763322
0.000341512
-0.00111954
-0.000955118
0.000332816
-0.00111224
-0.00119088
0.000267758
-0.000938109
-0.00130257
0.000161362
-0.000563428
-0.00116456
4.30811e-05
-0.00013408
-0.000535834
-2.59918e-05
0.000221149
5.41551e-05
7.93012e-05
0.000124694
1.37026e-05
0.000315773
0.000748362
-0.00012533
0.000586349
0.00104823
-0.000184699
0.000810846
0.00115641
-0.000147733
0.000928947
0.00114532
-4.40001e-05
0.000959084
0.0010816
4.85396e-05
0.000918192
0.000987269
0.000122088
0.000855489
0.000900668
0.000150267
0.000788825