/*--------------------------------*- C++ -*----------------------------------*\
| =========                 |                                                 |
| \\      /  F ield         | OpenFOAM: The Open Source CFD Toolbox           |
|  \\    /   O peration     | Version:  v1806                                 |
|   \\  /    A nd           | Web:      www.OpenFOAM.com                      |
|    \\/     M anipulation  |                                                 |
\*---------------------------------------------------------------------------*/
FoamFile
{
    version     2.0;
    format      ascii;
    class       volScalarField;
    location    "0.1065";
    object      p;
}
// * * * * * * * * * * * * * * * * * * * * * * * * * * * * * * * * * * * * * //

dimensions      [0 2 -2 0 0 0 0];


internalField   nonuniform List<scalar> 
64000
(
-0.000141334
-0.112372
-0.253272
-0.314514
-0.335318
-0.339718
-0.339146
-0.342017
-0.343188
-0.359879
-0.370529
-0.400806
-0.410763
-0.474867
-0.498092
-0.573847
-0.562516
-0.691899
-0.610297
-0.872122
-0.589334
-0.784186
-0.611779
-0.715645
-0.577965
-0.569454
-0.464395
-0.447795
-0.417253
-0.443059
-0.477055
-0.554938
-0.643565
-0.718939
-0.796791
-0.842911
-0.892089
-0.898358
-0.906261
-0.897846
-0.120393
-0.23079
-0.300607
-0.326461
-0.336986
-0.333472
-0.33034
-0.328199
-0.322954
-0.340336
-0.327736
-0.363446
-0.37164
-0.404119
-0.420428
-0.460667
-0.493493
-0.648091
-0.595404
-0.814011
-0.513106
-0.684424
-0.552622
-0.623847
-0.489818
-0.481343
-0.394243
-0.391567
-0.375237
-0.417029
-0.462735
-0.510765
-0.608517
-0.672714
-0.756387
-0.801473
-0.853907
-0.871639
-0.88887
-0.886871
-0.27598
-0.307168
-0.33178
-0.332676
-0.339244
-0.337528
-0.328213
-0.327248
-0.299718
-0.328869
-0.322791
-0.347541
-0.365025
-0.4207
-0.50152
-0.596752
-0.592519
-0.722743
-0.680376
-0.945316
-0.692915
-0.915149
-0.839598
-0.956933
-0.862676
-0.883715
-0.816725
-0.816373
-0.776286
-0.772426
-0.76427
-0.766322
-0.781712
-0.784675
-0.81715
-0.833856
-0.864893
-0.873325
-0.887135
-0.888886
-0.343639
-0.349957
-0.356949
-0.362402
-0.33931
-0.31733
-0.30211
-0.282044
-0.289376
-0.301954
-0.31351
-0.332501
-0.446851
-0.510953
-0.569832
-0.667729
-0.720541
-0.861909
-0.873572
-1.16484
-0.945465
-1.19102
-1.16239
-1.30235
-1.23186
-1.25764
-1.18988
-1.17007
-1.1044
-1.06108
-1.01062
-0.9525
-0.916303
-0.877838
-0.864299
-0.848213
-0.868441
-0.862429
-0.881879
-0.889891
-0.351246
-0.33548
-0.345368
-0.33245
-0.337204
-0.324099
-0.312629
-0.281896
-0.312407
-0.350598
-0.398088
-0.473061
-0.534472
-0.595262
-0.728104
-0.866969
-0.941233
-1.09693
-1.11635
-1.44556
-1.24848
-1.49396
-1.46975
-1.62602
-1.56054
-1.58186
-1.50384
-1.46566
-1.38209
-1.31127
-1.21909
-1.14773
-1.06791
-1.00213
-0.914146
-0.870107
-0.861536
-0.875843
-0.887417
-0.898726
-0.361123
-0.338557
-0.344653
-0.349596
-0.347287
-0.352061
-0.397379
-0.353235
-0.418855
-0.473079
-0.538286
-0.609472
-0.697271
-0.801639
-0.893681
-1.0281
-1.1007
-1.19357
-1.33616
-1.62402
-1.47753
-1.69512
-1.67681
-1.80109
-1.7362
-1.74657
-1.6622
-1.62204
-1.52243
-1.4526
-1.34297
-1.24524
-1.14578
-1.07407
-0.964222
-0.871737
-0.879212
-0.886143
-0.903223
-0.920778
-0.371395
-0.343017
-0.367567
-0.381412
-0.425411
-0.457245
-0.525201
-0.472134
-0.533223
-0.593653
-0.668831
-0.773264
-0.8624
-0.983989
-1.0723
-1.2034
-1.27155
-1.42204
-1.38504
-1.75499
-1.63359
-1.82593
-1.78154
-1.88528
-1.82655
-1.83291
-1.7594
-1.72045
-1.6343
-1.56561
-1.45199
-1.352
-1.21877
-1.11559
-0.997835
-0.897504
-0.88519
-0.898005
-0.916124
-0.936607
-0.391653
-0.362749
-0.394285
-0.432652
-0.489484
-0.564767
-0.549261
-0.553153
-0.656181
-0.736304
-0.820676
-0.919746
-1.00874
-1.09388
-1.17897
-1.29171
-1.35373
-1.4784
-1.48235
-1.68054
-1.73356
-1.79526
-1.8201
-1.87891
-1.86155
-1.86482
-1.81095
-1.78626
-1.71441
-1.66018
-1.56705
-1.4609
-1.34296
-1.20747
-1.11174
-0.960156
-0.926989
-0.928391
-0.947478
-0.97016
-0.406576
-0.379738
-0.426946
-0.478485
-0.564019
-0.638369
-0.61077
-0.702093
-0.756441
-0.87383
-0.946998
-1.04403
-1.07777
-1.162
-1.20708
-1.29172
-1.33244
-1.43274
-1.47966
-1.56858
-1.74988
-1.72004
-1.81239
-1.83872
-1.87057
-1.87835
-1.84581
-1.82738
-1.78262
-1.74505
-1.6497
-1.55009
-1.42574
-1.27812
-1.16665
-1.02994
-0.946019
-0.944923
-0.954425
-0.981497
-0.446966
-0.426509
-0.476569
-0.545795
-0.653614
-0.673221
-0.72945
-0.803827
-0.877845
-0.96333
-1.01566
-1.10285
-1.12916
-1.16417
-1.17285
-1.21273
-1.22029
-1.2643
-1.28089
-1.30151
-1.56595
-1.49198
-1.76446
-1.77931
-1.86496
-1.87643
-1.8702
-1.86718
-1.8475
-1.81088
-1.74795
-1.64689
-1.51854
-1.37744
-1.25293
-1.11722
-1.00298
-0.9876
-0.991143
-1.02226
-0.49077
-0.46643
-0.531469
-0.614949
-0.699731
-0.744983
-0.822347
-0.902047
-0.957103
-1.02465
-1.06204
-1.11546
-1.1038
-1.16
-1.1176
-1.1362
-1.11666
-1.13777
-1.11778
-1.11108
-1.35521
-1.2933
-1.69166
-1.73281
-1.83748
-1.87531
-1.87492
-1.90123
-1.8853
-1.8712
-1.8055
-1.71762
-1.59258
-1.42911
-1.28489
-1.16126
-1.03356
-0.985026
-0.990248
-1.02044
-0.561902
-0.539578
-0.604089
-0.693426
-0.760196
-0.840902
-0.921733
-0.999423
-1.04801
-1.08919
-1.08368
-1.10048
-1.09264
-1.07939
-1.07938
-1.0474
-1.0258
-1.03868
-1.00773
-1.01798
-1.23183
-1.15913
-1.63408
-1.66984
-1.80197
-1.84761
-1.88313
-1.91493
-1.9299
-1.921
-1.87139
-1.79723
-1.68238
-1.54379
-1.36397
-1.22773
-1.08149
-1.04011
-1.02374
-1.06218
-0.630414
-0.602521
-0.668409
-0.743425
-0.840338
-0.923314
-1.00931
-1.06858
-1.10482
-1.11528
-1.08391
-1.06529
-0.981635
-1.01018
-0.935936
-0.955735
-0.901725
-0.936301
-0.876498
-0.929705
-1.09123
-1.0526
-1.55561
-1.57931
-1.74111
-1.795
-1.85635
-1.91278
-1.9345
-1.94348
-1.91357
-1.85944
-1.74725
-1.5933
-1.4188
-1.26725
-1.09418
-1.02077
-1.00357
-1.03736
-0.716955
-0.68265
-0.738959
-0.824604
-0.922797
-1.01828
-1.09244
-1.14265
-1.14168
-1.13301
-1.07711
-1.01956
-0.932971
-0.854986
-0.832999
-0.781805
-0.784873
-0.803038
-0.718387
-0.856274
-0.930748
-0.978527
-1.36733
-1.44188
-1.62305
-1.72674
-1.81561
-1.89298
-1.94364
-1.97366
-1.98747
-1.92536
-1.79628
-1.65454
-1.48027
-1.32582
-1.17372
-1.0653
-1.02222
-1.06636
-0.807593
-0.770901
-0.831914
-0.916168
-1.0284
-1.1154
-1.18156
-1.1923
-1.16374
-1.12865
-1.03816
-0.936302
-0.808294
-0.722684
-0.624715
-0.609112
-0.588883
-0.622361
-0.500602
-0.771826
-0.702321
-0.90165
-1.08764
-1.25093
-1.47133
-1.59081
-1.71972
-1.81766
-1.89734
-1.97508
-1.96366
-1.89468
-1.80035
-1.66047
-1.49649
-1.31614
-1.17949
-1.05162
-0.998666
-1.02746
-0.887337
-0.849054
-0.902611
-0.987267
-1.09532
-1.18085
-1.23477
-1.2322
-1.18591
-1.11334
-0.985067
-0.86154
-0.690427
-0.574805
-0.458633
-0.413501
-0.376143
-0.412457
-0.378272
-0.491173
-0.524421
-0.658475
-0.850009
-1.04592
-1.27126
-1.46039
-1.61085
-1.75613
-1.90195
-1.94775
-1.93732
-1.90045
-1.81941
-1.70271
-1.54212
-1.37459
-1.19112
-1.11236
-0.974901
-1.01755
-0.96998
-0.952248
-1.01296
-1.10054
-1.21015
-1.30578
-1.34814
-1.31934
-1.23174
-1.11291
-0.9652
-0.789064
-0.609481
-0.433709
-0.284494
-0.160386
-0.135439
-0.079853
-0.077245
-0.17218
-0.285504
-0.440222
-0.62886
-0.810918
-1.04911
-1.2586
-1.42358
-1.63247
-1.73505
-1.77938
-1.80067
-1.77642
-1.72956
-1.63708
-1.50637
-1.3383
-1.17176
-1.06883
-1.00521
-0.995713
-1.04068
-1.00618
-1.05039
-1.12071
-1.22224
-1.304
-1.35602
-1.29959
-1.18449
-1.02875
-0.851246
-0.645708
-0.407028
-0.183507
0.0601671
0.249088
0.332514
0.341313
0.147998
0.0479255
-0.0769672
-0.250079
-0.412242
-0.60071
-0.797228
-1.08085
-1.25625
-1.47389
-1.61318
-1.68251
-1.70621
-1.69196
-1.66012
-1.58845
-1.47737
-1.32427
-1.14314
-0.99982
-0.909128
-0.885851
-1.1081
-1.09389
-1.14329
-1.20724
-1.32132
-1.41457
-1.45713
-1.3479
-1.10979
-0.908316
-0.753336
-0.588899
-0.381607
-0.0405728
0.276514
0.583594
0.654704
0.660847
0.493374
0.403619
0.178721
0.0424538
-0.157383
-0.32671
-0.51665
-0.729737
-0.96948
-1.11719
-1.27238
-1.34898
-1.41323
-1.44363
-1.4857
-1.46108
-1.41456
-1.24708
-1.12473
-1.00274
-0.927518
-0.907829
-1.33723
-1.29559
-1.30818
-1.33905
-1.42732
-1.48314
-1.49326
-1.24663
-1.01108
-0.813551
-0.623052
-0.391243
-0.10081
0.274737
0.591917
0.860908
1.00812
1.02952
0.934462
0.71845
0.530824
0.386751
0.167688
-0.0191311
-0.218901
-0.398696
-0.771132
-0.963303
-1.12515
-1.17593
-1.18955
-1.17476
-1.15534
-1.11414
-1.04382
-0.980628
-0.831119
-0.739905
-0.630944
-0.723203
-1.40938
-1.42346
-1.42386
-1.46814
-1.54765
-1.59663
-1.57984
-1.26819
-0.906811
-0.606253
-0.332765
-0.0438479
0.314273
0.668627
0.922956
1.13338
1.31531
1.38647
1.33563
1.12734
0.960102
0.716564
0.519103
0.339917
0.153497
0.0220028
-0.245483
-0.406725
-0.518336
-0.57768
-0.73701
-0.886669
-1.10353
-1.18506
-1.2275
-1.12445
-1.01187
-0.874758
-0.736971
-0.663475
-1.41977
-1.40076
-1.37629
-1.37501
-1.40977
-1.40308
-1.35296
-1.05845
-0.651494
-0.335518
-0.0375854
0.285118
0.65949
0.983347
1.22749
1.40732
1.54596
1.7057
1.71288
1.58839
1.33821
1.11248
0.899436
0.755396
0.489264
0.275471
0.0933638
-0.0317844
-0.180673
-0.1775
-0.178849
-0.101751
-0.0509443
-0.0329607
-0.0998086
-0.154062
-0.200453
-0.261779
-0.352
-0.431695
-1.50495
-1.48042
-1.44788
-1.42422
-1.43132
-1.39031
-1.29213
-1.00701
-0.521811
-0.139528
0.228972
0.597142
0.973346
1.27449
1.50218
1.66922
1.77879
1.88965
2.02733
1.92996
1.70634
1.47678
1.2899
1.05656
0.825231
0.592019
0.387524
0.261928
0.0949488
0.0160358
-0.0489917
-0.0442695
-0.0780225
0.0195935
0.17199
0.364247
0.521424
0.718081
0.862203
0.89799
-1.57355
-1.51253
-1.47776
-1.41534
-1.37616
-1.2969
-1.16799
-0.871665
-0.411502
0.0396997
0.446942
0.831845
1.17895
1.47256
1.69611
1.85582
1.95561
2.03783
2.19657
2.21753
2.07597
1.74387
1.4763
1.3093
1.00478
0.832579
0.621787
0.508886
0.355757
0.305382
0.228749
0.275186
0.301471
0.420983
0.46573
0.585504
0.681392
0.837263
0.927604
0.787518
-1.7289
-1.69821
-1.61507
-1.51084
-1.43549
-1.32503
-1.15735
-0.874819
-0.429981
0.0847753
0.526087
0.907969
1.23505
1.52309
1.75393
1.91446
2.02499
2.08283
2.20499
2.33267
2.21148
1.90856
1.65178
1.3623
1.16295
0.997355
0.79003
0.688464
0.534978
0.494526
0.385309
0.394145
0.337147
0.408069
0.415949
0.540192
0.617289
0.805021
0.967485
0.93165
-1.88531
-1.83694
-1.77799
-1.61159
-1.50984
-1.35702
-1.21368
-0.857489
-0.469927
0.0119912
0.435688
0.806842
1.12777
1.43648
1.65848
1.83567
1.94026
1.99893
2.12816
2.32318
2.23009
1.90612
1.71014
1.48596
1.23245
1.12676
0.92622
0.866422
0.743978
0.740073
0.677714
0.747084
0.73603
0.848855
0.84368
0.952706
0.970512
1.07437
1.14657
1.06574
-2.10595
-2.05692
-2.01772
-1.8169
-1.67431
-1.5167
-1.33226
-0.99414
-0.643717
-0.226149
0.138131
0.485401
0.813727
1.10395
1.32682
1.50766
1.62959
1.74245
1.92271
2.13549
2.12177
1.85507
1.6567
1.49662
1.28037
1.12394
0.970041
0.913815
0.811402
0.831093
0.733939
0.756006
0.662058
0.73134
0.691056
0.83381
0.898505
1.0987
1.24497
1.34604
-2.33209
-2.26543
-2.29222
-2.05645
-1.86702
-1.68266
-1.49955
-1.1933
-0.899484
-0.551536
-0.237189
0.104152
0.398364
0.677673
0.894207
1.06738
1.16682
1.39034
1.57365
1.84329
1.87819
1.72905
1.48314
1.40641
1.25729
1.15149
1.00258
0.985576
0.910663
0.905513
0.835594
0.912456
0.856389
0.9369
0.818526
0.876803
0.7737
0.856025
0.846828
0.81086
-2.64435
-2.59231
-2.57381
-2.45527
-2.20561
-2.05535
-1.81875
-1.55535
-1.31965
-1.02674
-0.749611
-0.452776
-0.192861
0.0616945
0.272858
0.399653
0.748687
0.863496
1.03974
1.32682
1.40458
1.36867
1.20412
1.17483
1.1065
1.05792
0.986668
1.00392
0.948642
1.02079
1.02977
1.16039
1.12527
1.26943
1.17408
1.30633
1.23195
1.40602
1.39655
1.48332
-2.90115
-2.85349
-2.83979
-2.77059
-2.53676
-2.31325
-2.12638
-1.89756
-1.7123
-1.48787
-1.28086
-1.03834
-0.834087
-0.608657
-0.469686
-0.162547
0.0533972
0.205067
0.378192
0.706711
0.802548
0.870971
0.860825
0.869724
0.921308
0.962191
0.976961
1.07709
1.04706
1.19345
1.21834
1.38533
1.37405
1.56344
1.45911
1.65949
1.57266
1.83152
1.83036
1.95441
-3.28618
-3.26698
-3.21871
-3.22507
-3.04808
-2.76198
-2.58526
-2.39998
-2.27369
-2.1002
-1.94059
-1.75029
-1.57564
-1.44158
-1.26713
-0.932242
-0.708356
-0.552152
-0.35369
-0.0223994
0.129922
0.272438
0.386347
0.495342
0.681973
0.773733
0.917782
1.07127
1.13325
1.22629
1.27997
1.49204
1.44875
1.74248
1.61443
1.90467
1.83688
2.20154
2.26665
2.4968
-3.53527
-3.5132
-3.50038
-3.48915
-3.50166
-3.11565
-2.95858
-2.80843
-2.74202
-2.61973
-2.52741
-2.36874
-2.28469
-2.18898
-1.87153
-1.65497
-1.47542
-1.3099
-1.12299
-0.752618
-0.523512
-0.295873
-0.063516
0.140583
0.447292
0.616231
0.80383
1.12855
1.14516
1.32105
1.37703
1.59725
1.59803
1.91149
1.82171
2.21482
2.08969
2.59872
2.67955
3.11433
-3.95011
-3.95032
-3.93527
-3.88708
-3.91483
-3.70994
-3.46554
-3.34704
-3.31118
-3.23159
-3.17149
-3.10467
-3.05572
-2.75269
-2.60097
-2.4598
-2.27497
-2.1131
-1.90587
-1.48213
-1.17953
-0.877026
-0.524855
-0.226861
0.153641
0.391828
0.646668
1.0325
1.13266
1.35823
1.36616
1.68122
1.57099
1.99924
1.84592
2.36892
2.27065
2.88167
3.05993
3.75567
-4.1465
-4.1281
-4.14418
-4.09276
-4.10013
-4.05858
-3.81107
-3.69282
-3.71112
-3.6695
-3.75552
-3.60842
-3.43763
-3.3046
-3.1912
-3.07677
-2.93153
-2.75002
-2.53873
-2.09416
-1.73365
-1.33031
-0.894534
-0.520754
-0.068223
0.246409
0.535699
0.951321
1.15297
1.35607
1.43243
1.73647
1.68797
2.08279
1.95611
2.5824
2.46128
3.38859
3.48781
4.64461
-4.56466
-4.58876
-4.56409
-4.53452
-4.51162
-4.49417
-4.30055
-4.15419
-4.16661
-4.209
-4.07997
-4.02778
-3.96395
-3.86284
-3.76694
-3.65678
-3.52765
-3.32211
-3.10943
-2.67678
-2.24313
-1.75218
-1.24237
-0.824633
-0.340553
0.125647
0.410831
0.867089
1.16523
1.34077
1.39882
1.76088
1.60754
2.17253
1.86777
2.61862
2.40273
3.6476
3.79448
5.54858
-4.68569
-4.62049
-4.66125
-4.58577
-4.61038
-4.55559
-4.51666
-4.37138
-4.41237
-4.29775
-4.35539
-4.34658
-4.34452
-4.25638
-4.18007
-4.07552
-3.93012
-3.71962
-3.48383
-2.99523
-2.49666
-2.01928
-1.47246
-0.995613
-0.464631
0.0503665
0.312299
0.817708
1.13877
1.38718
1.4282
1.82261
1.62174
2.27279
2.00382
2.84234
2.54185
4.24081
4.29299
7.17661
-5.11105
-5.18677
-5.09629
-5.05217
-4.9668
-4.87267
-4.87272
-4.67166
-4.60917
-4.58337
-4.63792
-4.63727
-4.64253
-4.59341
-4.534
-4.42989
-4.27496
-4.04881
-3.76428
-3.18364
-2.74787
-2.29137
-1.69861
-1.15344
-0.628991
-0.0329735
0.224831
0.802576
1.16942
1.40184
1.38428
1.87046
1.56789
2.31531
1.83382
2.94005
2.35367
4.42341
4.70202
8.88296
-5.57803
-5.13262
-5.22925
-4.92563
-4.96198
-4.75961
-4.89426
-4.59248
-4.62268
-4.60764
-4.68083
-4.70473
-4.74472
-4.71614
-4.6761
-4.56611
-4.43412
-4.17932
-3.95694
-3.23714
-2.78686
-2.39102
-1.72195
-1.18442
-0.675879
-0.0562527
0.159029
0.783928
1.08703
1.443
1.37952
1.93794
1.69677
2.51905
2.07061
3.51329
2.98294
5.70433
6.09525
13.4415
-5.53097
-5.78635
-5.59622
-5.59642
-5.19736
-5.18873
-5.00807
-4.77057
-4.67761
-4.68288
-4.766
-4.78578
-4.82274
-4.80115
-4.75824
-4.63943
-4.50732
-4.23488
-3.93884
-3.27127
-2.90824
-2.5319
-1.83352
-1.25796
-0.739584
-0.0487038
0.165849
0.839388
1.19782
1.48308
1.41224
1.95557
1.61019
2.50698
1.96347
3.46478
2.86163
6.50861
8.15794
17.773
-8.11311
-5.34072
-5.65678
-5.28003
-5.20347
-4.99565
-4.95109
-4.74847
-4.69195
-4.67926
-4.7589
-4.79014
-4.84512
-4.82512
-4.78882
-4.66985
-4.5533
-4.30563
-3.92888
-3.23275
-2.82285
-2.44284
-1.63038
-1.12391
-0.693916
-0.0915548
-0.0015466
0.638365
1.02362
1.4297
1.41289
2.06652
1.78752
2.71112
2.39055
4.32442
4.62104
10.6424
15.709
30.8555
-0.137002
-0.249629
-0.318763
-0.351409
-0.359512
-0.356264
-0.353666
-0.357123
-0.350191
-0.383477
-0.363821
-0.430308
-0.433912
-0.492694
-0.512997
-0.593214
-0.588472
-0.715615
-0.672103
-0.970707
-0.676076
-0.811053
-0.722923
-0.785953
-0.661539
-0.650297
-0.563274
-0.560355
-0.534657
-0.559523
-0.584157
-0.625241
-0.711365
-0.76171
-0.830251
-0.864316
-0.905515
-0.912431
-0.918718
-0.907402
-0.262079
-0.311283
-0.348921
-0.364132
-0.359036
-0.352854
-0.336047
-0.344439
-0.310244
-0.351534
-0.329097
-0.375667
-0.396596
-0.431986
-0.436139
-0.510601
-0.525351
-0.669497
-0.617125
-0.860397
-0.665815
-0.791767
-0.703113
-0.767852
-0.657674
-0.668005
-0.594782
-0.604574
-0.586407
-0.605008
-0.627922
-0.667411
-0.686505
-0.726917
-0.80195
-0.83575
-0.879449
-0.887385
-0.899339
-0.8925
-0.342704
-0.355921
-0.369863
-0.36885
-0.362931
-0.345864
-0.333607
-0.318498
-0.314732
-0.368665
-0.347106
-0.371059
-0.386878
-0.444548
-0.49349
-0.610113
-0.62293
-0.763637
-0.738807
-1.00713
-0.876962
-1.06274
-1.04972
-1.15586
-1.0729
-1.10063
-1.03625
-1.0392
-0.998109
-0.974979
-0.930144
-0.884704
-0.866204
-0.856081
-0.863209
-0.857782
-0.890084
-0.890796
-0.900227
-0.897596
-0.387182
-0.385053
-0.387787
-0.380617
-0.362993
-0.344098
-0.330527
-0.331014
-0.304979
-0.321061
-0.328198
-0.370235
-0.432634
-0.525985
-0.586774
-0.711861
-0.758666
-0.923663
-0.938433
-1.23206
-1.16879
-1.39167
-1.40464
-1.51866
-1.44245
-1.46138
-1.38289
-1.35339
-1.27948
-1.21383
-1.13531
-1.04895
-0.975764
-0.91176
-0.897168
-0.873464
-0.890504
-0.883148
-0.898212
-0.900502
-0.379182
-0.367669
-0.372042
-0.366368
-0.371845
-0.358093
-0.361983
-0.335946
-0.33108
-0.364628
-0.407096
-0.487046
-0.556572
-0.656879
-0.7586
-0.909703
-0.983453
-1.15827
-1.20793
-1.47417
-1.4126
-1.64744
-1.66775
-1.7691
-1.68375
-1.70317
-1.61799
-1.58768
-1.48007
-1.38459
-1.26963
-1.18728
-1.1051
-1.01471
-0.930604
-0.894154
-0.887943
-0.891713
-0.904228
-0.912723
-0.384102
-0.382547
-0.380243
-0.396372
-0.384762
-0.381998
-0.414528
-0.399305
-0.419346
-0.470917
-0.536733
-0.619312
-0.711077
-0.831714
-0.935724
-1.08929
-1.17593
-1.31855
-1.37492
-1.65169
-1.60644
-1.82491
-1.83244
-1.92324
-1.84355
-1.82678
-1.73928
-1.67295
-1.59737
-1.48986
-1.37484
-1.2561
-1.15838
-1.08712
-0.980398
-0.907541
-0.909805
-0.912167
-0.923176
-0.940248
-0.401549
-0.387787
-0.408433
-0.415836
-0.44442
-0.451609
-0.520323
-0.491849
-0.521144
-0.592415
-0.67176
-0.783864
-0.882621
-1.00323
-1.11507
-1.23811
-1.3241
-1.4705
-1.49217
-1.72526
-1.69434
-1.89697
-1.87989
-1.95554
-1.88111
-1.87439
-1.79698
-1.75169
-1.64491
-1.56611
-1.44376
-1.3283
-1.20994
-1.10308
-1.01132
-0.922133
-0.911532
-0.921121
-0.934338
-0.953916
-0.417162
-0.411383
-0.439819
-0.466646
-0.503976
-0.547708
-0.573513
-0.558119
-0.653865
-0.744713
-0.832343
-0.940841
-1.03265
-1.13847
-1.2193
-1.33144
-1.39061
-1.50245
-1.52023
-1.67866
-1.70913
-1.83998
-1.86188
-1.92308
-1.89473
-1.89455
-1.84984
-1.80505
-1.73222
-1.63902
-1.53345
-1.43627
-1.31332
-1.20345
-1.09997
-1.00162
-0.964075
-0.967955
-0.973213
-0.99445
-0.437593
-0.431114
-0.473329
-0.512217
-0.562818
-0.642413
-0.611885
-0.711989
-0.781763
-0.884377
-0.961324
-1.04487
-1.10424
-1.19582
-1.25205
-1.32467
-1.35579
-1.43959
-1.4757
-1.57509
-1.66
-1.71709
-1.81784
-1.87467
-1.89269
-1.90833
-1.87833
-1.85325
-1.77009
-1.70722
-1.62115
-1.52137
-1.42502
-1.24428
-1.1522
-1.02747
-0.983809
-0.967878
-0.980565
-1.00082
-0.473417
-0.468801
-0.517018
-0.559236
-0.66809
-0.657382
-0.737905
-0.829103
-0.90818
-1.00105
-1.04958
-1.12294
-1.15087
-1.19732
-1.22935
-1.26369
-1.2531
-1.27493
-1.28388
-1.35347
-1.48309
-1.49857
-1.75138
-1.81105
-1.89049
-1.91307
-1.91295
-1.87854
-1.84704
-1.78207
-1.73132
-1.67889
-1.54946
-1.44937
-1.27035
-1.12876
-1.0363
-1.03034
-1.02193
-1.0495
-0.519688
-0.514586
-0.583529
-0.655706
-0.715181
-0.739965
-0.836115
-0.905087
-0.957263
-1.0033
-1.10234
-1.14311
-1.13869
-1.17597
-1.16597
-1.19801
-1.16348
-1.14778
-1.10794
-1.12226
-1.25213
-1.28662
-1.68046
-1.77531
-1.87219
-1.91046
-1.90767
-1.9166
-1.86389
-1.87954
-1.84108
-1.72224
-1.61384
-1.43247
-1.32576
-1.16655
-1.04128
-1.02283
-1.01881
-1.04306
-0.592213
-0.590643
-0.664824
-0.745099
-0.778607
-0.853448
-0.914863
-1.00666
-1.05591
-1.08349
-1.04781
-1.0958
-1.11617
-1.11587
-1.09916
-1.11726
-1.0876
-1.05845
-1.00408
-1.00545
-1.11334
-1.14711
-1.60127
-1.71564
-1.82946
-1.87966
-1.90725
-1.89917
-1.95344
-1.95809
-1.87782
-1.83934
-1.72809
-1.63092
-1.45785
-1.30697
-1.10058
-1.05926
-1.05749
-1.08753
-0.664003
-0.654171
-0.733595
-0.795483
-0.879928
-0.947052
-1.0168
-1.04932
-1.08988
-1.11283
-1.07959
-1.05074
-0.905787
-1.05818
-0.978391
-1.02279
-0.988243
-0.960876
-0.894176
-0.904967
-0.994678
-1.0436
-1.53178
-1.62918
-1.76852
-1.82662
-1.88597
-1.97086
-1.99801
-1.96965
-2.00324
-1.92992
-1.79729
-1.60416
-1.43983
-1.30687
-1.16597
-1.01863
-1.04117
-1.05903
-0.746735
-0.725796
-0.794361
-0.874761
-0.967405
-1.04983
-1.11545
-1.1477
-1.13227
-1.11733
-1.05743
-1.02278
-0.919386
-0.780219
-0.897272
-0.894496
-0.875316
-0.838275
-0.763534
-0.797894
-0.847742
-0.961122
-1.31945
-1.46919
-1.64764
-1.75996
-1.84509
-1.96672
-2.0088
-2.08229
-2.04822
-1.9704
-1.8445
-1.69785
-1.48323
-1.34048
-1.21456
-1.08403
-1.0283
-1.0989
-0.83852
-0.810966
-0.880794
-0.964911
-1.07511
-1.15971
-1.2312
-1.22235
-1.17524
-1.13699
-1.03548
-0.92246
-0.783375
-0.735373
-0.629464
-0.752655
-0.70032
-0.661856
-0.582307
-0.643105
-0.653039
-0.836009
-1.05342
-1.22561
-1.48834
-1.61039
-1.7986
-1.91047
-1.995
-2.0411
-2.01845
-1.95908
-1.85167
-1.69888
-1.49839
-1.33047
-1.1768
-1.12393
-0.996158
-1.06251
-0.910774
-0.882543
-0.950128
-1.03916
-1.14799
-1.22302
-1.26932
-1.2693
-1.20553
-1.12654
-0.982371
-0.867835
-0.690577
-0.579932
-0.4574
-0.502646
-0.480206
-0.445837
-0.374802
-0.385505
-0.465889
-0.609154
-0.799702
-0.992373
-1.26277
-1.47312
-1.68551
-1.83491
-1.97229
-2.00788
-2.00933
-1.96673
-1.8791
-1.7509
-1.56021
-1.37823
-1.19283
-1.12445
-0.995784
-1.03891
-1.02227
-1.00759
-1.07813
-1.17301
-1.28556
-1.3438
-1.39022
-1.35453
-1.26312
-1.13305
-0.974372
-0.80786
-0.604234
-0.426551
-0.250464
-0.12147
-0.219796
-0.0946315
-0.034555
-0.109709
-0.232828
-0.384316
-0.575909
-0.761933
-0.990836
-1.28988
-1.50469
-1.71826
-1.81385
-1.87238
-1.88436
-1.85708
-1.80119
-1.69518
-1.53931
-1.35667
-1.18357
-1.06732
-1.01054
-1.01933
-1.0557
-1.04927
-1.10429
-1.20078
-1.29282
-1.37493
-1.41029
-1.3534
-1.22189
-1.06372
-0.877393
-0.682405
-0.440667
-0.19426
0.084213
0.306584
0.284816
0.310184
0.223609
0.128101
0.00257905
-0.166436
-0.357174
-0.540976
-0.748419
-1.13654
-1.37266
-1.54663
-1.69733
-1.7623
-1.78948
-1.77579
-1.74196
-1.6666
-1.52502
-1.37169
-1.14771
-1.01606
-0.960163
-0.940113
-1.17192
-1.19355
-1.23247
-1.32158
-1.39818
-1.48622
-1.51587
-1.4004
-1.16703
-0.947656
-0.776837
-0.575946
-0.344623
-0.00044513
0.358791
0.649891
0.665866
0.649732
0.58609
0.459803
0.295267
0.120939
-0.100384
-0.276191
-0.489611
-0.715893
-1.00597
-1.22265
-1.38731
-1.47013
-1.52253
-1.53991
-1.56365
-1.53095
-1.45374
-1.30118
-1.15311
-0.979434
-0.963622
-0.963183
-1.36163
-1.33273
-1.34985
-1.40853
-1.48481
-1.55186
-1.53878
-1.29531
-1.02924
-0.803438
-0.592211
-0.353979
-0.0679966
0.31122
0.684818
0.985788
1.10741
1.04933
0.946744
0.832875
0.650972
0.458891
0.231255
0.0404268
-0.136067
-0.380436
-0.646545
-0.869285
-1.07262
-1.16575
-1.22292
-1.2375
-1.26562
-1.24879
-1.16108
-1.08283
-0.880016
-0.726652
-0.660337
-0.688056
-1.49079
-1.43748
-1.44825
-1.48885
-1.59028
-1.62011
-1.58749
-1.27325
-0.886547
-0.58165
-0.300753
0.000477321
0.360134
0.740717
1.02696
1.25746
1.43367
1.50328
1.41716
1.17809
1.05116
0.835526
0.598567
0.403007
0.139967
-0.0242181
-0.233821
-0.381442
-0.473776
-0.520764
-0.6463
-0.765465
-0.943549
-1.06723
-1.14202
-1.06974
-0.947079
-0.798706
-0.711068
-0.724473
-1.44799
-1.40159
-1.39374
-1.39481
-1.45556
-1.4536
-1.39137
-1.07565
-0.65018
-0.316701
-0.00151368
0.33749
0.737399
1.08981
1.35785
1.55253
1.71744
1.85526
1.85467
1.65965
1.47553
1.2578
1.00858
0.807998
0.517686
0.317815
0.110382
-0.0315445
-0.14731
-0.157719
-0.192981
-0.147793
-0.116908
-0.0628109
-0.0777806
-0.109124
-0.122096
-0.105855
-0.195644
-0.45785
-1.49244
-1.47754
-1.4522
-1.43591
-1.44145
-1.42344
-1.32673
-1.02257
-0.522997
-0.110093
0.284833
0.68201
1.09047
1.41572
1.65464
1.83298
1.96256
2.11042
2.18663
2.09505
1.84279
1.64708
1.35618
1.17258
0.845704
0.637716
0.421231
0.283748
0.121562
0.0667787
-0.00347646
0.000602427
-0.0237916
0.059708
0.191572
0.358801
0.499467
0.68164
0.838566
0.867726
-1.57689
-1.52767
-1.47113
-1.41543
-1.38096
-1.35129
-1.18275
-0.882533
-0.401525
0.0822366
0.527265
0.956714
1.33681
1.63944
1.87314
2.04601
2.16246
2.25145
2.40022
2.38496
2.25369
1.95399
1.62181
1.36405
1.09767
0.888177
0.686358
0.548168
0.396239
0.337853
0.257963
0.305962
0.334085
0.466255
0.527693
0.641749
0.74202
0.894826
1.05624
0.92929
-1.73259
-1.69131
-1.5986
-1.4939
-1.41721
-1.31217
-1.14422
-0.83366
-0.383292
0.146842
0.638723
1.07788
1.4372
1.71915
1.95275
2.11987
2.23345
2.31169
2.41885
2.51453
2.39414
2.18574
1.8301
1.52079
1.24464
1.0727
0.856739
0.748897
0.588597
0.53588
0.422
0.427731
0.378758
0.450115
0.455121
0.565934
0.639358
0.831718
1.00658
0.999434
-1.87823
-1.8418
-1.75833
-1.58842
-1.46651
-1.32003
-1.13755
-0.786026
-0.377359
0.130547
0.612263
1.03783
1.35442
1.64159
1.88008
2.06218
2.18175
2.2627
2.35274
2.45982
2.43276
2.19779
1.95116
1.60381
1.40554
1.17971
1.04603
0.90755
0.816796
0.787438
0.735858
0.798699
0.788501
0.903608
0.896585
1.01087
1.02242
1.15768
1.26501
1.19099
-2.10186
-2.06795
-2.01365
-1.80801
-1.65134
-1.47407
-1.27393
-0.899867
-0.527202
-0.0651351
0.363897
0.729247
1.02408
1.33791
1.59835
1.79657
1.93502
2.03858
2.12833
2.26484
2.25398
2.13388
1.88363
1.68411
1.42133
1.26114
1.05446
1.03668
0.892421
0.894266
0.806749
0.829834
0.744112
0.804179
0.747238
0.880002
0.915419
1.11166
1.255
1.33743
-2.32274
-2.27387
-2.25691
-2.05161
-1.84469
-1.64926
-1.47056
-1.07528
-0.755365
-0.369164
-0.0374781
0.268478
0.57622
0.891368
1.15095
1.36117
1.52173
1.64602
1.76766
1.97909
2.01608
1.89238
1.6949
1.55701
1.42172
1.26803
1.13878
1.0591
0.993703
0.952094
0.916473
0.974574
0.90648
0.987156
0.86252
0.945536
0.825882
0.910668
0.932868
0.905816
-2.64753
-2.59947
-2.58018
-2.44489
-2.19043
-1.98396
-1.786
-1.49359
-1.20885
-0.906896
-0.646045
-0.346716
-0.057223
0.233679
0.487767
0.708089
0.933364
1.06154
1.25168
1.40974
1.47281
1.46361
1.3451
1.29109
1.21897
1.1797
1.10099
1.07831
1.07193
1.08686
1.06927
1.16261
1.11838
1.25589
1.13317
1.28052
1.17885
1.39655
1.39031
1.48503
-2.90831
-2.85759
-2.85212
-2.76421
-2.5314
-2.27092
-2.09768
-1.85746
-1.68593
-1.45236
-1.23086
-0.975977
-0.745028
-0.496786
-0.280184
-0.0261987
0.171219
0.304528
0.491123
0.754325
0.817762
0.913997
0.9219
0.95844
1.00228
1.04247
1.08635
1.15077
1.15944
1.23339
1.25586
1.41115
1.36432
1.55039
1.42664
1.6402
1.49729
1.84511
1.79173
1.9845
-3.30086
-3.26815
-3.25161
-3.21723
-3.05274
-2.74569
-2.56653
-2.38757
-2.25728
-2.079
-1.92344
-1.72413
-1.53798
-1.34105
-1.12636
-0.873377
-0.680388
-0.461543
-0.243393
0.000496473
0.10932
0.272193
0.409174
0.543187
0.718736
0.841579
0.97858
1.14351
1.22767
1.35215
1.27842
1.47949
1.44152
1.74409
1.5498
1.86186
1.68975
2.15074
2.13292
2.49058
-3.55455
-3.52467
-3.5322
-3.49958
-3.4639
-3.13558
-2.95544
-2.8108
-2.74745
-2.6368
-2.54316
-2.38847
-2.269
-2.09918
-1.89563
-1.70086
-1.57105
-1.28394
-1.11975
-0.85154
-0.585633
-0.318692
-0.0699683
0.157561
0.446129
0.650115
0.839679
1.14209
1.2863
1.39874
1.40341
1.62934
1.55548
1.90182
1.7815
2.13237
1.88506
2.46531
2.39755
2.95816
-3.97894
-3.98536
-3.9643
-3.94894
-3.93415
-3.73936
-3.49329
-3.364
-3.33776
-3.27397
-3.21777
-3.12268
-3.00304
-2.85811
-2.84181
-2.69724
-2.41876
-2.21513
-1.99069
-1.57519
-1.24673
-0.90062
-0.548438
-0.244915
0.141849
0.413595
0.674788
1.04559
1.23294
1.41607
1.41498
1.68187
1.5754
2.00264
1.69944
2.27261
1.9811
2.6208
2.53576
3.38319
-4.18336
-4.18104
-4.18983
-4.12049
-4.18287
-4.07547
-3.87206
-3.71612
-3.74359
-3.71156
-3.7408
-3.63916
-3.61392
-3.58996
-3.39014
-3.26317
-3.06586
-2.86979
-2.63743
-2.17345
-1.77903
-1.37148
-0.925604
-0.556089
-0.105201
0.239948
0.551915
0.990828
1.23455
1.43031
1.48432
1.77366
1.71571
2.05108
1.88435
2.35988
2.1057
2.99873
2.62887
3.99083
-4.59718
-4.63249
-4.61125
-4.59693
-4.55686
-4.5616
-4.38869
-4.20444
-4.20798
-4.21216
-4.22255
-4.26555
-4.23368
-4.08528
-3.95698
-3.84125
-3.65582
-3.44449
-3.19258
-2.72289
-2.27222
-1.82914
-1.30502
-0.868828
-0.360021
0.0725054
0.397016
0.891247
1.18407
1.41132
1.42847
1.80697
1.61351
2.17053
1.79774
2.45867
1.94536
2.95445
2.67939
4.5448
-4.71651
-4.70331
-4.74289
-4.62284
-4.69525
-4.62231
-4.63165
-4.40721
-4.43928
-4.40594
-4.48267
-4.5424
-4.51397
-4.454
-4.39016
-4.26901
-4.08284
-3.85508
-3.71819
-3.15238
-2.67669
-2.09061
-1.52477
-1.04384
-0.527646
-0.0123319
0.314447
0.877647
1.19185
1.44243
1.4328
1.87083
1.63851
2.29316
1.86714
2.76144
2.07289
3.45973
2.65892
5.9271
-5.13107
-5.24555
-5.13492
-5.13321
-5.04133
-4.99821
-5.00478
-4.76338
-4.74023
-4.73864
-4.86878
-4.82514
-4.81842
-4.77126
-4.70732
-4.59526
-4.46957
-4.27437
-3.89234
-3.26664
-2.8364
-2.33602
-1.76111
-1.22566
-0.688289
-0.0845176
0.231838
0.872193
1.19912
1.47594
1.41176
1.87081
1.54684
2.28165
1.72629
2.79401
1.98206
3.71579
2.75018
7.77852
-5.53923
-5.14019
-5.26116
-4.98153
-5.03117
-4.86322
-5.04408
-4.76624
-4.78284
-4.79365
-4.82941
-4.88434
-4.93086
-4.91173
-4.88482
-4.77912
-4.67767
-4.43343
-4.08754
-3.3412
-2.8933
-2.56914
-1.86021
-1.26627
-0.758787
-0.0868553
0.180414
0.857131
1.19297
1.52122
1.42115
1.98313
1.64673
2.45959
1.93745
3.31266
2.71104
5.1927
5.2683
13.1119
-5.34471
-5.79254
-5.66535
-5.69998
-5.41428
-5.29487
-5.20582
-4.96362
-4.90414
-4.9097
-4.99154
-4.97993
-5.02176
-5.02317
-4.99909
-4.90312
-4.83105
-4.50764
-4.25124
-3.51104
-3.11508
-2.69358
-1.98803
-1.35595
-0.811155
-0.0761377
0.178765
0.902866
1.188
1.52741
1.41566
1.96082
1.58861
2.51704
1.90939
3.4266
2.97344
6.62098
8.82488
20.3829
-8.0281
-5.28076
-5.56893
-5.24881
-5.22047
-5.08079
-5.04773
-4.86892
-4.8365
-4.85
-4.94442
-4.9688
-5.02575
-5.01639
-5.02477
-4.97256
-4.88143
-4.63127
-4.25074
-3.43244
-2.98526
-2.56081
-1.81215
-1.18847
-0.72432
-0.0786109
0.0132343
0.689263
1.07564
1.46708
1.40531
2.08842
1.78353
2.75477
2.40807
4.40501
5.03518
11.2759
18.7959
37.0974
-0.301267
-0.340904
-0.37073
-0.386419
-0.381707
-0.369783
-0.370964
-0.359813
-0.369245
-0.364346
-0.399741
-0.423703
-0.446906
-0.495307
-0.519412
-0.543616
-0.65504
-0.767517
-0.724826
-0.97461
-0.613441