/*--------------------------------*- C++ -*----------------------------------*\
| =========                 |                                                 |
| \\      /  F ield         | OpenFOAM: The Open Source CFD Toolbox           |
|  \\    /   O peration     | Version:  v1806                                 |
|   \\  /    A nd           | Web:      www.OpenFOAM.com                      |
|    \\/     M anipulation  |                                                 |
\*---------------------------------------------------------------------------*/
FoamFile
{
    version     2.0;
    format      ascii;
    class       vectorField;
    location    "0.059";
    object      currentcloudofpoints;
}
// * * * * * * * * * * * * * * * * * * * * * * * * * * * * * * * * * * * * * //


2409
(
(0.820956 1.3695 1.00298)
(0.698848 0.978263 1.00271)
(1.27601 1.34754 0.999457)
(0.969574 1.09644 0.796861)
(0.972623 1.0979 1.20082)
(1.10676 1.10378 1.00022)
(0.775673 1.52729 0.998788)
(0.628299 0.759845 1.00033)
(1.42527 1.50566 0.999736)
(1.02537 1.09784 0.606707)
(1.0043 1.10042 1.38353)
(1.25874 1.33335 1.08144)
(1.21363 1.29493 1.14531)
(1.14373 1.23488 1.18868)
(1.06467 1.1582 1.22448)
(1.26837 1.34242 1.04175)
(1.23774 1.31408 1.11458)
(1.17884 1.26588 1.16617)
(1.1034 1.19647 1.20652)
(1.02031 1.12474 1.22094)
(0.71998 0.985074 1.07122)
(0.772311 0.987864 1.11543)
(0.835036 0.988096 1.12637)
(0.901815 1.02969 1.14731)
(0.705427 0.984118 1.03725)
(0.745452 0.990771 1.09332)
(0.805316 0.984497 1.12041)
(0.871115 1.00231 1.12893)
(0.933692 1.06615 1.16804)
(1.25619 1.33324 0.916249)
(1.20911 1.29521 0.852909)
(1.13938 1.23611 0.81215)
(1.06177 1.15469 0.775688)
(1.26769 1.34147 0.956551)
(1.23367 1.31461 0.883521)
(1.17446 1.26684 0.832689)
(1.10018 1.196 0.795077)
(1.01561 1.11991 0.776417)
(0.90173 1.02764 0.852044)
(0.83669 0.989751 0.874294)
(0.774081 0.992186 0.887506)
(0.723586 0.984247 0.933812)
(0.933233 1.06653 0.832484)
(0.87159 1.00053 0.869808)
(0.80687 0.989053 0.881579)
(0.748742 0.990718 0.911337)
(0.707854 0.98461 0.968386)
(0.926676 1.17485 1.1508)
(0.886396 1.26279 1.16173)
(0.850169 1.32539 1.1292)
(0.825455 1.3578 1.08869)
(0.948913 1.13457 1.16053)
(0.905572 1.217 1.15424)
(0.86736 1.29992 1.14297)
(0.836561 1.34193 1.10917)
(0.822108 1.3647 1.0468)
(0.823746 1.35855 0.913992)
(0.845675 1.32901 0.860944)
(0.885255 1.26944 0.828966)
(0.924245 1.17579 0.852633)
(0.821862 1.36409 0.95923)
(0.833071 1.34496 0.885794)
(0.864607 1.30552 0.846662)
(0.903043 1.22152 0.841883)
(0.948068 1.13403 0.84192)
(0.673667 1.07899 1.00355)
(0.671026 1.14689 1.00394)
(0.684813 1.21089 1.00055)
(0.72716 1.29377 0.999572)
(0.686547 1.03603 1.005)
(0.675144 1.11783 1.00277)
(0.681012 1.17822 1.00286)
(0.702592 1.25052 0.999289)
(0.769746 1.33239 1.00125)
(0.931085 1.4166 1.00824)
(1.02961 1.42714 1.00794)
(1.12975 1.41468 1.00011)
(1.20985 1.3882 0.999863)
(0.87879 1.39494 1.00485)
(0.981993 1.42317 1.00981)
(1.07957 1.42018 1.00312)
(1.17105 1.397 0.999767)
(1.24497 1.37473 0.999545)
(0.646328 0.781922 1.15605)
(0.702583 0.815514 1.26413)
(0.74347 0.851107 1.3394)
(0.793385 0.885106 1.37867)
(0.845748 0.921458 1.37778)
(0.90066 0.97829 1.38562)
(0.963904 1.03621 1.3823)
(0.630433 0.772892 1.08467)
(0.678002 0.792206 1.21102)
(0.722774 0.837647 1.30466)
(0.768229 0.867739 1.36202)
(0.821468 0.902952 1.37784)
(0.87139 0.94698 1.37956)
(0.935629 1.00621 1.37955)
(0.987215 1.06754 1.37855)
(1.08792 1.16382 1.39922)
(1.17287 1.21205 1.37575)
(1.23388 1.2655 1.34044)
(1.29159 1.32224 1.3024)
(1.35212 1.37837 1.24617)
(1.39351 1.44305 1.1751)
(1.41846 1.49057 1.09197)
(1.03887 1.13216 1.39413)
(1.13487 1.18983 1.38752)
(1.20429 1.23657 1.35566)
(1.26078 1.29411 1.32013)
(1.32141 1.34748 1.27524)
(1.37374 1.40934 1.21053)
(1.40714 1.46732 1.13482)
(1.42269 1.49917 1.04632)
(0.651455 0.777234 0.843447)
(0.691564 0.815059 0.724325)
(0.745387 0.843863 0.65786)
(0.790566 0.881977 0.62192)
(0.844271 0.923291 0.615181)
(0.899585 0.977586 0.615602)
(0.965336 1.03547 0.612312)
(0.634294 0.764962 0.919712)
(0.667942 0.797888 0.777702)
(0.721863 0.828994 0.68807)
(0.769257 0.862898 0.638964)
(0.818338 0.901807 0.61909)
(0.871189 0.948703 0.616291)
(0.933285 1.00538 0.61988)
(0.996879 1.06596 0.610678)
(1.41776 1.49052 0.908199)
(1.394 1.4441 0.824831)
(1.35289 1.37886 0.754052)
(1.29342 1.32117 0.696938)
(1.23441 1.26381 0.658381)
(1.17251 1.21291 0.625467)
(1.09752 1.1615 0.607373)
(1.42194 1.49894 0.953371)
(1.40705 1.46786 0.865462)
(1.37442 1.41045 0.789331)
(1.3229 1.34704 0.724982)
(1.26232 1.2924 0.678392)
(1.20376 1.23602 0.644287)
(1.13577 1.18976 0.616769)
(1.06131 1.12952 0.606568)
(0.77479 1.51738 1.14782)
(0.769158 1.4943 1.24313)
(0.789967 1.44486 1.32335)
(0.847151 1.36345 1.39524)
(0.896405 1.30101 1.40386)
(0.932346 1.23811 1.4049)
(0.953282 1.17148 1.37879)
(0.776241 1.52597 1.08237)
(0.773597 1.50488 1.20306)
(0.777184 1.47207 1.28521)
(0.820119 1.40378 1.36499)
(0.875137 1.32803 1.40529)
(0.914248 1.27358 1.39572)
(0.941104 1.20531 1.39712)
(0.978088 1.13583 1.37571)
(0.77377 1.51589 0.853239)
(0.768045 1.49461 0.760909)
(0.794689 1.44174 0.672514)
(0.847296 1.36225 0.608011)
(0.897125 1.3015 0.598668)
(0.927635 1.24464 0.599414)
(0.970634 1.17136 0.604872)
(0.77676 1.52058 0.915875)
(0.770813 1.5063 0.801807)
(0.779512 1.47022 0.712945)
(0.822417 1.40223 0.636377)
(0.876195 1.32699 0.597137)
(0.913758 1.27585 0.605619)
(0.939553 1.21001 0.601935)
(1.00019 1.13449 0.602423)
(0.584947 0.848162 1.00051)
(0.561842 0.92593 1.00264)
(0.543107 1.01984 1.00166)
(0.53764 1.11809 0.997066)
(0.547079 1.21595 0.999512)
(0.586275 1.31202 0.99915)
(0.664683 1.41969 0.999593)
(0.602757 0.807841 1.00001)
(0.572763 0.888469 1.00164)
(0.551844 0.970395 1.00302)
(0.539442 1.06951 0.998317)
(0.539874 1.16669 0.99845)
(0.563652 1.26408 0.998948)
(0.621515 1.36424 0.999935)
(0.718219 1.47527 0.998803)
(0.877894 1.59564 0.997619)
(0.95745 1.63168 0.998517)
(1.03857 1.6433 1.00054)
(1.12183 1.63023 1.00117)
(1.19864 1.61516 1.00025)
(1.26855 1.59398 0.999517)
(1.34493 1.55674 0.99994)
(0.831642 1.56588 0.998672)
(0.921036 1.61542 0.99774)
(0.999801 1.63902 0.999479)
(1.08267 1.6352 1.00107)
(1.1625 1.61967 1.00085)
(1.23402 1.60144 0.999633)
(1.30485 1.57442 0.999728)
(1.38627 1.53076 0.999831)
(1.00179 1.08951 0.704088)
(1.02151 1.09181 0.64348)
(0.984386 1.09063 0.749682)
(1.01496 1.08594 1.29624)
(0.993993 1.08934 1.24858)
(1.0164 1.09137 1.35043)
(0.686714 0.834609 0.996093)
(0.696378 0.907386 0.997633)
(0.635951 0.797633 0.998697)
(1.35246 1.40614 0.999336)
(1.31204 1.37667 0.999547)
(1.39595 1.44647 0.999324)
(0.9996 1.56145 1.27534)
(1.02224 1.62413 1.18675)
(1.06424 1.3179 1.38367)
(1.19633 1.58713 1.1702)
(0.903035 1.61397 1.10686)
(1.09111 1.24468 1.40082)
(1.33712 1.5329 1.14173)
(1.2611 1.53799 1.22993)
(0.917668 1.60305 1.20195)
(1.10323 1.58695 1.22839)
(1.10263 1.62274 1.12767)
(0.891037 1.5017 1.32198)
(1.16007 1.517 1.28675)
(1.26238 1.57713 1.13773)
(1.07488 1.49478 1.32176)
(1.29697 1.57686 1.06749)
(1.15626 1.30615 1.3986)
(1.23255 1.59756 1.07865)
(0.840198 1.57074 1.17258)
(0.994466 1.24223 1.38048)
(0.984209 1.33378 1.40238)
(1.12562 1.41004 1.3624)
(1.31767 1.45766 1.24518)
(1.00754 1.64068 1.09516)
(0.834552 1.53792 1.25133)
(1.0484 1.3975 1.37539)
(1.28108 1.39459 1.30376)
(1.22857 1.45799 1.31719)
(0.84142 1.57885 1.09214)
(1.02322 1.18733 1.39301)
(1.36648 1.54014 1.06081)
(0.990867 1.46286 1.36063)
(0.924502 1.38938 1.39772)
(1.22171 1.36476 1.35444)
(1.07011 1.63698 1.05625)
(1.17283 1.61063 1.0799)
(1.08163 1.20641 1.40293)
(1.13009 1.23241 1.39868)
(1.00466 1.14501 1.38931)
(1.04601 1.17638 1.40186)
(1.05723 1.2167 1.39535)
(1.16753 1.25976 1.38758)
(1.19905 1.28687 1.36737)
(1.12858 1.27465 1.40082)
(1.22839 1.3147 1.34269)
(1.25639 1.34224 1.32172)
(1.18863 1.33589 1.37713)
(1.28534 1.35704 1.29954)
(1.31553 1.38254 1.26951)
(1.25068 1.38022 1.32978)
(1.33594 1.41448 1.24107)
(1.35286 1.44746 1.20597)
(1.30215 1.42172 1.27427)
(1.36707 1.48687 1.16024)
(1.37733 1.50979 1.11582)
(1.32848 1.49648 1.19866)
(1.39393 1.51645 1.07657)
(1.39762 1.52272 1.03012)
(1.35094 1.5363 1.10114)
(1.35579 1.54822 1.03069)
(0.93696 1.62304 1.05303)
(0.893821 1.60599 1.05869)
(0.873852 1.59802 1.10157)
(0.862055 1.58891 1.04564)
(0.812335 1.55584 1.05306)
(1.0274 1.63915 1.04861)
(0.986531 1.63536 1.05175)
(0.959274 1.62958 1.10373)
(1.09787 1.63063 1.02989)
(1.05559 1.6397 1.02906)
(1.04115 1.63865 1.07575)
(1.18591 1.61075 1.04015)
(1.14951 1.61713 1.04138)
(1.12572 1.61707 1.07203)
(1.24994 1.59362 1.03932)
(1.21592 1.60299 1.04021)
(1.20343 1.60167 1.08043)
(1.32033 1.56551 1.03463)
(1.28217 1.58433 1.03343)
(1.26376 1.5857 1.07358)
(1.33045 1.55671 1.06581)
(0.959302 1.58411 1.24239)
(0.971865 1.61537 1.19656)
(1.00955 1.59536 1.23275)
(1.06337 1.60559 1.20897)
(1.05081 1.57529 1.25217)
(0.967903 1.6277 1.15158)
(1.01659 1.63463 1.14248)
(1.06551 1.62513 1.15708)
(1.1048 1.60712 1.18047)
(1.05713 1.63303 1.11134)
(1.08355 1.28213 1.38449)
(1.11263 1.31464 1.39059)
(1.04633 1.24268 1.37901)
(1.03086 1.27972 1.3763)
(1.09518 1.36206 1.37597)
(1.13943 1.35723 1.38221)
(1.02108 1.32403 1.38754)
(0.98818 1.28821 1.38978)
(1.05446 1.35438 1.3804)
(1.01656 1.36375 1.38893)
(1.08544 1.40237 1.36401)
(1.18526 1.59697 1.12765)
(1.21548 1.58931 1.12708)
(1.15233 1.59841 1.15478)
(1.14098 1.61104 1.10811)
(1.2105 1.52313 1.26347)
(1.18382 1.55388 1.23364)
(1.22884 1.56204 1.20188)
(1.22987 1.57934 1.15607)
(1.26444 1.55866 1.18569)
(1.24689 1.58653 1.10824)
(1.15489 1.58066 1.20403)
(1.13377 1.54934 1.25913)
(0.879551 1.58832 1.19026)
(0.873013 1.59572 1.14099)
(0.91127 1.61075 1.1594)
(0.842059 1.57577 1.13711)
(0.809918 1.54534 1.16491)
(0.806833 1.53204 1.21228)
(0.808827 1.55119 1.12247)
(0.802941 1.51662 1.24901)
(0.81121 1.49316 1.28972)
(0.837174 1.55414 1.21543)
(0.842364 1.4733 1.32475)
(0.868581 1.43068 1.36422)
(0.862194 1.52238 1.28853)
(0.911828 1.34118 1.40571)
(0.886619 1.37706 1.39688)
(0.908342 1.44421 1.36599)
(0.940277 1.32148 1.40245)
(0.955032 1.2887 1.39718)
(0.957326 1.36167 1.40203)
(0.959733 1.24116 1.39506)
(0.972193 1.20785 1.37994)
(0.988255 1.17848 1.37962)
(1.01172 1.21415 1.37793)
(0.949824 1.53269 1.30215)
(0.997064 1.51295 1.32033)
(0.944066 1.48324 1.34475)
(1.03514 1.47821 1.34102)
(1.04094 1.5265 1.2998)
(0.906899 1.55368 1.26806)
(1.08758 1.54214 1.27702)
(1.31708 1.5549 1.10633)
(0.958124 1.42624 1.3807)
(0.989541 1.39195 1.38893)
(1.02275 1.42855 1.3701)
(1.06183 1.44653 1.35236)
(1.08805 1.62853 1.09287)
(1.29925 1.55447 1.14377)
(1.30018 1.53269 1.19031)
(1.28939 1.49752 1.24574)
(1.27906 1.57463 1.10377)
(1.24439 1.49464 1.27847)
(1.1912 1.48773 1.30459)
(1.27639 1.45377 1.2847)
(0.878454 1.57057 1.23002)
(1.11609 1.50456 1.30247)
(1.09941 1.44885 1.34352)
(1.14266 1.46322 1.3301)
(1.17611 1.43572 1.3433)
(1.17494 1.38984 1.36485)
(1.22638 1.40973 1.34008)
(1.25736 1.42537 1.31512)
(0.68544 1.15229 1.38821)
(0.590623 1.245 1.25633)
(0.600089 1.02098 1.24817)
(0.620755 0.955505 1.25339)
(0.624398 1.28497 1.30874)
(0.77618 1.1892 1.39957)
(0.631963 0.863872 1.21509)
(0.702414 1.44071 1.21176)
(0.87677 1.07747 1.39993)
(0.616892 1.20807 1.32451)
(0.660763 1.01906 1.33322)
(0.620081 1.33729 1.22251)
(0.710776 1.24234 1.38849)
(0.811817 1.02937 1.38605)
(0.812389 1.27444 1.40529)
(0.72679 1.32938 1.36705)
(0.678008 0.923941 1.29642)
(0.899536 1.16421 1.40418)
(0.581398 0.930267 1.15279)
(0.556611 1.21738 1.15569)
(0.826401 1.13465 1.38487)
(0.686259 1.38828 1.28938)
(0.86066 1.22921 1.38687)
(0.549809 1.12523 1.14683)
(0.73446 1.02489 1.37564)
(0.73027 0.947889 1.35936)
(0.616462 1.11412 1.31776)
(0.683254 1.07994 1.37641)
(0.784542 0.964219 1.38278)
(0.748565 1.10311 1.39166)
(0.581064 1.09837 1.2257)
(0.589611 1.17304 1.25552)
(0.60044 0.839236 1.11874)
(0.934174 1.10742 1.37472)
(0.553735 1.02745 1.12011)
(0.663732 1.4096 1.10981)
(0.582065 1.29384 1.10064)
(0.60158 0.903807 1.18956)
(0.60018 0.943813 1.21003)
(0.625236 0.909836 1.23238)
(0.611372 0.856714 1.17313)
(0.588526 0.88699 1.13753)
(0.649041 0.939413 1.27254)
(0.658696 0.891334 1.25639)
(0.637279 0.824009 1.18796)
(0.668953 0.837545 1.23642)
(0.619012 0.814991 1.13926)
(0.688648 0.871556 1.2794)
(0.894361 1.02555 1.39129)
(0.926341 1.05281 1.38168)
(0.832013 0.976929 1.38581)
(0.855889 0.999549 1.39331)
(0.8427 1.05147 1.39148)
(0.953372 1.07058 1.37547)
(0.972445 1.10322 1.3727)
(0.906608 1.09109 1.38733)
(0.602911 1.28971 1.24248)
(0.626107 1.31164 1.27507)
(0.609231 1.26542 1.28752)
(0.656258 1.36378 1.26473)
(0.65622 1.33373 1.30592)
(0.667048 1.26483 1.35507)
(0.675045 1.30818 1.34306)
(0.72154 1.28251 1.38064)
(0.621779 1.24508 1.31994)
(0.66018 1.22676 1.36051)
(0.702829 1.36147 1.33115)
(0.608211 1.22749 1.29719)
(0.610671 0.988348 1.2524)
(0.592101 0.975193 1.20303)
(0.570276 0.976522 1.13588)
(0.579725 1.02452 1.19004)
(0.567992 0.919989 1.08117)
(0.578758 0.882111 1.08201)
(0.591658 0.838359 1.06021)
(0.553812 0.971421 1.06425)
(0.660122 1.3885 1.22387)
(0.694656 1.41499 1.25647)
(0.639587 1.37407 1.17545)
(0.684658 1.42672 1.16888)
(0.583643 1.27136 1.19479)
(0.600353 1.31745 1.17202)
(0.618747 1.34964 1.10798)
(0.766744 1.25731 1.39988)
(0.775781 1.29816 1.39445)
(0.794769 1.23275 1.39765)
(0.7499 1.21357 1.40061)
(0.700904 1.19689 1.38926)
(0.735099 1.1699 1.39855)
(0.649974 1.18045 1.36168)
(0.818705 0.943209 1.38447)
(0.799745 0.996762 1.38149)
(0.814263 1.08144 1.38148)
(0.850842 1.10601 1.38921)
(0.778242 1.06815 1.38091)
(0.786065 1.11923 1.38579)
(0.773645 1.02746 1.37697)
(0.758323 0.995727 1.37432)
(0.740064 1.06418 1.38145)
(0.831095 1.31561 1.40264)
(0.79395 1.34487 1.38454)
(0.855332 1.2891 1.40106)
(0.876625 1.26663 1.39138)
(0.837193 1.25377 1.39216)
(0.817942 1.21066 1.38614)
(0.761955 1.38318 1.35243)
(0.740873 1.41624 1.31201)
(0.922811 1.16801 1.39441)
(0.916004 1.20129 1.40455)
(0.883758 1.1962 1.39061)
(0.897664 1.23481 1.39318)
(0.939723 1.14009 1.3736)
(0.908727 1.13702 1.39193)
(0.883955 1.12196 1.39742)
(0.865226 1.14834 1.3884)
(0.843893 1.18271 1.38057)
(0.630717 1.02307 1.29532)
(0.642409 0.991302 1.29311)
(0.612792 1.07111 1.28694)
(0.638207 1.06775 1.32948)
(0.568149 1.06306 1.17608)
(0.590476 1.05935 1.23642)
(0.603767 1.10931 1.27753)
(0.671416 0.973884 1.31354)
(0.737863 1.46765 1.23226)
(0.739358 1.47724 1.18265)
(0.720741 1.46428 1.1358)
(0.716752 1.46988 1.05941)
(0.728965 1.43959 1.27214)
(0.760933 1.14763 1.39407)
(0.722509 1.12794 1.39366)
(0.644345 1.13513 1.35719)
(0.620593 1.16063 1.32519)
(0.684692 1.11657 1.38277)
(0.644682 1.09944 1.35205)
(0.717976 1.09102 1.38607)
(0.611415 0.797998 1.06055)
(0.543198 1.02101 1.06226)
(0.53706 1.07177 1.06079)
(0.547654 1.21513 1.07689)
(0.53851 1.16661 1.07943)
(0.535262 1.11966 1.07201)
(0.551102 1.07692 1.13395)
(0.552406 1.17141 1.15455)
(0.585862 1.30108 1.04855)
(0.562234 1.25435 1.04888)
(0.565282 1.25608 1.13023)
(0.664473 1.41368 1.05661)
(0.623273 1.35816 1.0546)
(0.710578 0.892046 1.31842)
(0.763811 0.916851 1.37156)
(0.73776 0.901426 1.35071)
(0.703701 0.939748 1.33022)
(0.791243 0.925372 1.3822)
(0.757608 0.955494 1.37182)
(0.800819 1.16499 1.38646)
(0.6952 0.986232 1.34364)
(0.591579 1.20932 1.25918)
(0.608934 1.19251 1.29678)
(0.608391 1.14372 1.29112)
(0.732632 0.987303 1.36548)
(0.697062 1.02242 1.35986)
(0.671247 1.05041 1.35667)
(0.710357 1.05298 1.3761)
(0.573964 1.19535 1.21349)
(0.577067 1.23246 1.21415)
(0.567247 1.11181 1.19147)
(0.57252 1.14994 1.20982)
(0.58679 1.13648 1.24293)
(0.654443 1.07272 0.650427)
(0.663932 1.24895 0.642301)
(0.638203 1.02856 0.68666)
(0.613662 0.97047 0.749101)
(0.603926 1.29309 0.772915)
(0.806792 1.15193 0.612901)
(0.662243 1.38602 0.776141)
(0.883534 1.16719 0.602159)
(0.621514 1.10556 0.681699)
(0.598572 1.23824 0.705008)
(0.760116 1.01276 0.627571)
(0.735015 1.32795 0.632555)
(0.74414 1.18654 0.604372)
(0.634523 1.16041 0.650928)
(0.757118 1.10966 0.618264)
(0.633651 1.32025 0.702816)
(0.840469 1.22822 0.605044)
(0.666123 0.928409 0.698516)
(0.876348 1.07461 0.601996)
(0.624494 0.871934 0.790339)
(0.54925 0.995089 0.903168)
(0.565262 1.20863 0.828103)
(0.545017 1.09521 0.858832)
(0.580086 0.919625 0.87186)
(0.704501 1.39774 0.699562)
(0.589898 1.15137 0.729382)
(0.705995 0.980549 0.647235)
(0.586235 1.04292 0.7726)
(0.799859 1.27038 0.591549)
(0.597039 1.3281 0.887751)
(0.816722 1.04345 0.611357)
(0.603576 0.834698 0.896268)
(0.700103 1.45025 0.85563)
(0.700295 1.08901 0.62106)
(0.734066 1.25541 0.609392)
(0.944418 1.106 0.607831)
(0.629082 1.13325 0.66418)
(0.646863 1.11704 0.648156)
(0.638534 1.08974 0.663924)
(0.648737 1.05098 0.667326)
(0.632357 1.06753 0.68237)
(0.675242 1.08049 0.633653)
(0.668831 1.12548 0.631639)
(0.673428 1.0044 0.664366)
(0.682338 1.027 0.64799)
(0.702888 1.03578 0.635422)
(0.844043 1.11562 0.61494)
(0.848901 1.15985 0.61594)
(0.877015 1.12148 0.604296)
(0.821768 1.19133 0.611579)
(0.864241 1.2007 0.61348)
(0.846166 1.05722 0.605546)
(0.811907 1.09852 0.619087)
(0.781621 1.13067 0.616743)
(0.750834 1.15023 0.614036)
(0.776529 1.17045 0.610208)
(0.792945 1.20749 0.604911)
(0.787334 1.07874 0.622641)
(0.956352 1.13943 0.604669)
(0.988953 1.1023 0.606603)
(0.959342 1.06975 0.613163)
(0.649074 1.35215 0.731963)
(0.618732 1.30772 0.730766)
(0.631658 1.33772 0.769974)
(0.670407 1.35764 0.696195)
(0.683521 1.39375 0.732021)
(0.633545 1.35799 0.821234)
(0.604955 1.31042 0.824984)
(0.73839 1.44453 0.724741)
(0.718833 1.44001 0.758304)
(0.681659 1.41788 0.811206)
(0.739734 1.47311 0.795888)
(0.645146 1.38897 0.865301)
(0.904532 1.1365 0.600551)
(0.907513 1.08877 0.607797)
(0.884367 1.23905 0.610106)
(0.902544 1.20756 0.602213)
(0.918739 1.16985 0.598753)
(0.607336 1.13029 0.703362)
(0.615082 1.15986 0.683499)
(0.614268 1.04092 0.721571)
(0.608292 1.08015 0.719152)
(0.590638 1.09966 0.74748)
(0.892006 1.02311 0.611929)
(0.925691 1.05133 0.616375)
(0.855702 1.00516 0.605336)
(0.652799 1.20287 0.644171)
(0.620928 1.19967 0.672248)
(0.628033 1.24586 0.670415)
(0.597802 1.19449 0.711353)
(0.614903 1.27796 0.700525)
(0.59951 1.26654 0.732176)
(0.647339 1.28518 0.667378)
(0.585716 1.22613 0.750873)
(0.585736 1.25092 0.7946)
(0.57439 1.17978 0.768934)
(0.730875 1.09887 0.62058)
(0.757356 1.06157 0.627491)
(0.732077 1.05104 0.62792)
(0.789481 1.02906 0.623094)
(0.803631 0.97059 0.620463)
(0.77848 0.949107 0.628627)
(0.734365 0.995513 0.63565)
(0.752966 0.931613 0.64072)
(0.830345 0.983971 0.612507)
(0.7026 1.28626 0.634261)
(0.685052 1.32663 0.661365)
(0.719908 1.36312 0.66074)
(0.796195 1.34415 0.617636)
(0.769337 1.38002 0.646368)
(0.753051 1.41868 0.681686)
(0.770467 1.29657 0.607431)
(0.825397 1.31308 0.597325)
(0.735441 1.28987 0.618931)
(0.702311 1.25165 0.624213)
(0.768442 1.26244 0.598862)
(0.711629 1.21554 0.61719)
(0.693697 1.17287 0.623016)
(0.724045 1.13946 0.617686)
(0.823067 1.24916 0.598513)
(0.771904 1.22881 0.599361)
(0.741505 1.21976 0.604998)
(0.867356 1.26598 0.60555)
(0.850368 1.28683 0.597278)
(0.652244 0.97939 0.694145)
(0.63602 0.954094 0.7211)
(0.626371 1.00312 0.71442)
(0.617871 0.922177 0.770534)
(0.640595 0.90629 0.737609)
(0.677078 0.873764 0.711464)
(0.710056 0.884061 0.679327)
(0.652857 0.848596 0.753794)
(0.690736 0.952451 0.67186)
(0.73078 0.913565 0.656964)
(0.579894 1.26603 0.855164)
(0.600804 1.00677 0.761361)
(0.603215 0.896281 0.83086)
(0.59696 0.942298 0.808932)
(0.580792 0.979436 0.823221)
(0.737186 1.48371 0.851827)
(0.737009 1.48864 0.920501)
(0.567273 0.921438 0.933642)
(0.578732 0.884014 0.933015)
(0.590305 0.842046 0.947321)
(0.61064 0.796796 0.946385)
(0.5916 0.879234 0.883356)
(0.545862 1.00475 0.950966)
(0.555366 0.95805 0.950806)
(0.565223 0.955765 0.88662)
(0.543768 1.10081 0.924222)
(0.542797 1.05271 0.926547)
(0.544467 1.04509 0.88064)
(0.547379 1.16127 0.910689)
(0.55225 1.21048 0.912994)
(0.554032 1.15376 0.839763)
(0.588118 1.32057 0.943502)
(0.566139 1.27166 0.944117)
(0.624922 1.3732 0.940217)
(0.680998 1.43705 0.920864)
(0.625323 0.807185 0.86942)
(0.63593 0.825451 0.815151)
(0.615455 0.851105 0.841197)
(0.565068 1.01726 0.834692)
(0.564763 1.06645 0.810949)
(0.568667 1.12484 0.784835)
(1.05796 1.6136 0.80277)
(0.980064 1.58982 0.748017)
(1.27122 1.56739 0.835211)
(1.03362 1.40848 0.616585)
(0.863934 1.58131 0.843092)
(1.3459 1.52737 0.861269)
(1.09761 1.25474 0.59508)
(1.10832 1.36 0.617532)
(0.959997 1.62067 0.846513)
(1.0539 1.52925 0.703285)
(0.948302 1.49416 0.659596)
(1.06293 1.63144 0.909049)
(1.12522 1.47669 0.67412)
(1.04313 1.31465 0.608216)
(1.14193 1.56386 0.758946)
(1.00168 1.24966 0.614325)
(1.3143 1.4873 0.772764)
(0.983827 1.31402 0.59897)
(0.91236 1.60738 0.914394)
(1.30303 1.57459 0.930931)
(1.21838 1.60587 0.910079)
(1.21989 1.52071 0.732728)
(1.18315 1.31442 0.612348)
(0.868668 1.55314 0.740101)
(0.982925 1.6332 0.931944)
(1.20202 1.58581 0.817879)
(1.23713 1.35824 0.65518)
(1.18565 1.41806 0.648645)
(0.846956 1.56969 0.907964)
(1.36914 1.53774 0.939365)
(1.03659 1.18837 0.602544)
(1.13578 1.61158 0.851457)
(1.15059 1.62253 0.933415)
(1.27671 1.41156 0.697951)
(0.859975 1.47161 0.662892)
(0.94677 1.37358 0.601623)
(1.35732 1.54674 0.96929)
(1.39847 1.52158 0.969671)
(1.39456 1.51511 0.923633)
(1.00939 1.61842 0.820558)
(0.969376 1.6108 0.795698)
(1.02234 1.60367 0.773578)
(1.02072 1.55927 0.721297)
(1.06042 1.575 0.746827)
(1.06154 1.61951 0.852491)
(1.01707 1.62351 0.872623)
(1.09857 1.54224 0.72972)
(1.10366 1.58839 0.778201)
(1.09898 1.60976 0.824712)
(1.10065 1.61759 0.876645)
(1.14119 1.59358 0.804121)
(0.897721 1.60089 0.951029)
(0.937701 1.61976 0.956004)
(0.814385 1.54989 0.946354)
(0.864193 1.5826 0.952216)
(0.882396 1.58984 0.909967)
(0.971655 1.63231 0.963349)
(1.01268 1.63885 0.96622)
(0.949504 1.62127 0.922424)
(1.05238 1.63709 0.953689)
(1.09487 1.63051 0.954429)
(1.02475 1.63284 0.918728)
(1.1766 1.61782 0.966357)
(1.13686 1.62586 0.966534)
(1.10894 1.62398 0.919403)
(1.20986 1.60888 0.954156)
(1.24459 1.59566 0.953339)
(1.18618 1.61175 0.920463)
(1.28588 1.58293 0.965426)
(1.32349 1.56363 0.964702)
(1.26001 1.58708 0.918231)
(1.33478 1.5541 0.933682)
(1.02573 1.14434 0.599684)
(1.00603 1.17847 0.60731)
(1.05952 1.17545 0.598506)
(0.814959 1.54239 0.798937)
(0.822387 1.55045 0.843345)
(0.857859 1.57458 0.870673)
(0.812341 1.54442 0.878178)
(0.820493 1.52481 0.746928)
(0.863832 1.57199 0.790221)
(0.938219 1.61298 0.876482)
(0.891759 1.59425 0.876642)
(0.914698 1.60374 0.843141)
(0.917754 1.59537 0.790174)
(1.30767 1.5457 0.844046)
(1.2932 1.53019 0.798573)
(1.33071 1.50753 0.815594)
(1.35262 1.46254 0.802468)
(1.3717 1.48512 0.842112)
(1.32434 1.5517 0.893942)
(1.35709 1.53272 0.900479)
(1.28698 1.56968 0.881558)
(1.38172 1.50739 0.886114)
(0.832416 1.49809 0.702107)
(0.854497 1.41494 0.632408)
(0.828734 1.45648 0.666647)
(0.863281 1.51384 0.698299)
(0.922774 1.33565 0.600014)
(0.898806 1.36792 0.605101)
(0.906856 1.41935 0.625745)
(0.955557 1.28026 0.602787)
(0.940452 1.31197 0.602626)
(0.967649 1.34391 0.599781)
(0.982639 1.21168 0.613261)
(0.960911 1.24774 0.604576)
(0.990963 1.28162 0.606655)
(1.02258 1.21874 0.616579)
(1.11321 1.41446 0.644634)
(1.0778 1.44109 0.649913)
(1.06775 1.37952 0.62033)
(1.03768 1.35691 0.607067)
(1.07599 1.33709 0.61456)
(1.01294 1.31363 0.604363)
(1.01019 1.3569 0.602846)
(0.992698 1.39297 0.609292)
(1.00372 1.51334 0.68128)
(0.996734 1.44984 0.63784)
(1.04283 1.46989 0.658797)
(1.08986 1.49848 0.690335)
(0.948039 1.43089 0.626201)
(0.925062 1.57332 0.741136)
(0.963567 1.54249 0.700096)
(0.908164 1.52608 0.693391)
(1.07347 1.28662 0.612458)
(1.11142 1.30799 0.608282)
(1.14499 1.28509 0.599082)
(1.14698 1.33974 0.61158)
(1.02473 1.28208 0.613698)
(1.05462 1.25248 0.615411)
(1.06707 1.22257 0.60404)
(1.1345 1.23808 0.599134)
(1.18245 1.26264 0.620602)
(1.0898 1.21015 0.59858)
(1.1456 1.38866 0.633699)
(1.15345 1.44639 0.660548)
(1.18291 1.3651 0.628287)
(0.975227 1.62357 0.88577)
(1.13252 1.51689 0.714402)
(0.904732 1.4842 0.659512)
(1.14405 1.61407 0.890739)
(1.17864 1.53791 0.745674)
(1.17184 1.49764 0.700815)
(1.20445 1.46861 0.684434)
(1.21237 1.55186 0.773245)
(1.17342 1.57348 0.785996)
(1.16984 1.59833 0.833927)
(1.24971 1.46729 0.70428)
(1.29824 1.4455 0.733821)
(1.26791 1.50264 0.745904)
(1.31399 1.39085 0.732599)
(1.33591 1.42898 0.766929)
(1.24817 1.54246 0.780241)
(1.23272 1.41608 0.668376)
(1.256 1.38428 0.676293)
(1.21235 1.38854 0.647335)
(1.28515 1.36426 0.701762)
(1.26538 1.33854 0.681928)
(1.24358 1.58716 0.872495)
(1.21051 1.59576 0.862888)
(1.17941 1.60425 0.878135)
(1.23681 1.57405 0.824114)
(1.20969 1.33657 0.633931)
(1.21181 1.28901 0.639686)
(1.23747 1.3107 0.660539)
(0.831366 1.09649 1.13479)
(0.719308 1.08609 1.0892)
(0.701403 1.1806 1.07161)
(0.848148 1.18408 1.15373)
(0.715221 1.25774 1.0742)
(0.791898 1.17566 1.14851)
(0.783225 1.06866 1.12995)
(0.745323 1.16207 1.10451)
(0.753752 1.24207 1.1193)
(0.89088 1.11076 1.13458)
(0.67992 1.11209 1.04391)
(0.815679 1.24692 1.15569)
(0.773137 1.29535 1.11332)
(0.687746 1.05168 1.04628)
(0.762852 1.32077 1.06431)
(0.7894 1.346 1.0329)
(0.792542 1.339 1.07552)
(0.796594 1.32622 1.10006)
(0.81027 1.31196 1.11938)
(0.765818 1.30737 1.09058)
(0.753868 1.07564 1.11015)
(0.765695 1.11785 1.11825)
(0.737053 1.12121 1.09141)
(0.718537 1.13725 1.0699)
(0.727037 1.17383 1.08329)
(0.696989 1.14772 1.05306)
(0.699651 1.10168 1.0648)
(0.70313 1.07048 1.06788)
(0.68401 1.08504 1.04362)
(0.780406 1.02344 1.12015)
(0.747226 1.03587 1.10446)
(0.720474 1.03782 1.0811)
(0.704222 1.01967 1.05911)
(0.731554 1.21136 1.08762)
(0.734459 1.25014 1.09632)
(0.708183 1.21716 1.0694)
(0.699065 1.23472 1.03593)
(0.692631 1.19629 1.03978)
(0.76099 1.26809 1.11466)
(0.742954 1.27709 1.09385)
(0.719762 1.27589 1.03854)
(0.736243 1.28846 1.06916)
(0.744148 1.30839 1.03247)
(0.867084 1.05617 1.12879)
(0.896645 1.06843 1.13811)
(0.859932 1.10244 1.13091)
(0.931079 1.10176 1.15328)
(0.867882 1.14819 1.13577)
(0.83818 1.14263 1.14026)
(0.908403 1.14398 1.13738)
(0.886016 1.17773 1.14136)
(0.789391 1.12116 1.13313)
(0.769533 1.16913 1.12565)
(0.75132 1.20339 1.10617)
(0.775161 1.21423 1.1302)
(0.676305 1.09708 1.02371)
(0.677257 1.13214 1.02392)
(0.679596 1.06751 1.02482)
(0.688715 1.16473 1.03702)
(0.835203 1.03706 1.12535)
(0.808089 1.07957 1.13162)
(0.812209 1.13894 1.14325)
(0.809162 1.0256 1.12579)
(0.819891 1.18075 1.15469)
(0.865768 1.22362 1.15905)
(0.829414 1.28823 1.13791)
(0.850441 1.25709 1.1598)
(0.833773 1.21789 1.16172)
(0.793808 1.27579 1.12532)
(0.691592 1.01963 1.02617)
(0.784919 1.24728 1.13419)
(0.802505 1.2122 1.15246)
(0.921232 1.38191 1.11311)
(1.16903 1.3605 1.10176)
(1.14985 1.39413 1.06092)
(1.10454 1.33956 1.13329)
(1.0305 1.35113 1.16338)
(1.03756 1.26432 1.1894)
(1.08879 1.38703 1.125)
(1.06507 1.41528 1.07145)
(0.968842 1.26375 1.18449)
(1.21885 1.37712 1.05472)
(1.00909 1.39119 1.12646)
(0.956315 1.33981 1.14384)
(0.971004 1.41825 1.07278)
(0.893114 1.39984 1.06323)
(0.989872 1.18697 1.19366)
(1.11019 1.40511 1.0644)
(1.11833 1.39069 1.09216)
(1.07599 1.40198 1.09893)
(1.03475 1.40422 1.10062)
(1.04882 1.39153 1.12661)
(1.12827 1.3704 1.10822)
(1.13693 1.34745 1.1149)
(1.09928 1.36419 1.13018)
(1.15817 1.37724 1.08375)
(1.06714 1.34838 1.1494)
(1.06135 1.3709 1.14419)
(1.0228 1.37254 1.14484)
(0.859855 1.38004 1.07528)
(0.858754 1.38595 1.03296)
(0.88723 1.35519 1.11666)
(0.874822 1.37294 1.09906)
(0.906328 1.39217 1.09057)
(1.18961 1.32979 1.11589)
(1.21436 1.35175 1.09149)
(1.19309 1.36877 1.07984)
(1.23921 1.36055 1.0671)
(1.25167 1.36837 1.0272)
(1.04289 1.20701 1.20211)
(1.07963 1.24526 1.18012)
(1.10901 1.28725 1.14367)
(1.15058 1.31234 1.12545)
(1.06508 1.30985 1.15564)
(1.02167 1.17058 1.20931)
(0.980825 1.14182 1.18984)
(1.01135 1.22308 1.19761)
(0.928972 1.25932 1.16427)
(0.946045 1.21597 1.1683)
(0.976181 1.22416 1.18584)
(0.958248 1.1802 1.1691)
(0.961445 1.30582 1.1604)
(0.919567 1.30249 1.14711)
(1.00098 1.26444 1.19045)
(0.995852 1.31306 1.17138)
(0.993269 1.34597 1.15371)
(1.02965 1.31334 1.17125)
(0.912371 1.40887 1.03576)
(0.90592 1.33469 1.12963)
(0.940425 1.3607 1.12242)
(0.945855 1.39974 1.09438)
(0.933904 1.40974 1.06773)
(0.988962 1.40238 1.0986)
(0.966965 1.38432 1.11408)
(0.985138 1.3664 1.13386)
(1.21525 1.38267 1.02807)
(1.18242 1.38146 1.05706)
(1.18096 1.3887 1.03087)
(0.952533 1.4188 1.0415)
(1.00137 1.42446 1.04071)
(1.09992 1.41473 1.03517)
(1.04922 1.42168 1.03921)
(1.01779 1.41604 1.07137)
(1.14226 1.40413 1.03021)
(0.973674 1.27627 0.823219)
(1.18391 1.35013 0.889382)
(1.00343 1.407 0.907515)
(1.04633 1.25638 0.815772)
(1.00306 1.36719 0.861025)
(1.11176 1.37727 0.878621)
(0.929728 1.31966 0.842892)
(1.05727 1.33583 0.844596)
(0.915451 1.38166 0.866851)
(1.12097 1.31939 0.858851)
(1.19106 1.38518 0.938806)
(0.98962 1.1839 0.811972)
(1.09777 1.41335 0.943008)
(0.923951 1.40909 0.943805)
(0.869387 1.37346 0.890234)
(0.881762 1.35782 0.864688)
(0.876791 1.39181 0.975682)
(0.876328 1.38748 0.927699)
(0.91708 1.39738 0.899186)
(0.925675 1.35393 0.857673)
(0.889799 1.33045 0.850263)
(0.906103 1.29599 0.835847)
(0.945133 1.22299 0.833655)
(0.977258 1.22904 0.820657)
(0.957166 1.17883 0.837133)
(1.01524 1.21676 0.808667)
(1.007 1.26576 0.818767)
(1.03015 1.35162 0.855193)
(1.01184 1.30937 0.836312)
(0.989013 1.32628 0.852643)
(1.04882 1.30112 0.833981)
(0.930571 1.27006 0.831839)
(0.952063 1.29698 0.837784)
(0.96804 1.343 0.857686)
(0.929392 1.41242 0.977717)
(0.96286 1.37463 0.867076)
(0.962723 1.39546 0.886573)
(1.00423 1.38821 0.881838)
(0.964317 1.40926 0.923951)
(0.979232 1.13962 0.809834)
(1.01992 1.16657 0.7925)
(1.04694 1.20115 0.800469)
(1.12004 1.34875 0.871797)
(1.08918 1.32861 0.853873)
(1.0873 1.35725 0.863182)
(1.08145 1.29367 0.841025)
(1.05594 1.37375 0.871197)
(1.1536 1.33284 0.874839)
(1.14735 1.36088 0.890282)
(1.19468 1.32406 0.874448)
(1.15938 1.30607 0.860131)
(1.12024 1.27892 0.843054)
(1.08485 1.24369 0.819454)
(1.15055 1.3802 0.910458)
(1.18591 1.36881 0.913985)
(1.22117 1.3645 0.929636)
(1.21976 1.34547 0.901973)
(0.979563 1.41775 0.980313)
(1.11657 1.41516 0.971632)
(1.0649 1.41811 0.975362)
(1.04874 1.40801 0.9291)
(1.01718 1.4152 0.959638)