/*--------------------------------*- C++ -*----------------------------------*\
| =========                 |                                                 |
| \\      /  F ield         | OpenFOAM: The Open Source CFD Toolbox           |
|  \\    /   O peration     | Version:  v1806                                 |
|   \\  /    A nd           | Web:      www.OpenFOAM.com                      |
|    \\/     M anipulation  |                                                 |
\*---------------------------------------------------------------------------*/
FoamFile
{
    version     2.0;
    format      ascii;
    class       volVectorField;
    location    "0.077";
    object      U;
}
// * * * * * * * * * * * * * * * * * * * * * * * * * * * * * * * * * * * * * //

dimensions      [0 1 -1 0 0 0 0];


internalField   nonuniform List<vector> 
64000
(
(-0.00950154 -0.010607 -0.00719197)
(0.013858 -0.0106731 -0.00464516)
(0.0198235 -0.00360478 0.000722796)
(0.0239247 -0.00339171 0.00128768)
(0.0248309 -0.00248136 0.00168171)
(0.0249853 -0.00273319 0.00244344)
(0.0245012 -0.00353525 0.00269694)
(0.0211029 -0.00394945 0.00297453)
(0.0198239 -0.00489973 0.00442866)
(0.0126207 -0.00443364 0.00378327)
(0.00732495 -0.00521964 0.00627108)
(-0.00577939 -0.00888723 0.00621044)
(-0.0255152 -0.0126228 0.00632944)
(-0.0491547 -0.017792 0.00393199)
(-0.0789006 -0.018143 0.00500526)
(-0.11463 -0.0164492 0.0025911)
(-0.144591 0.000483698 0.00188567)
(-0.18887 -0.00441971 -0.00260077)
(-0.189485 -0.0097765 0.00559917)
(-0.249524 -0.028249 -0.0153516)
(-0.216505 -0.0227038 -0.0232429)
(-0.106387 -0.0241355 -0.0390105)
(-0.106263 -0.00935899 -0.0262018)
(-0.102305 -0.00381428 -0.0372319)
(-0.118411 0.00269198 -0.0480172)
(-0.112784 0.0109941 -0.0573367)
(-0.100749 0.0209471 -0.062057)
(-0.0653912 0.0321757 -0.0577293)
(-0.0323928 0.0384591 -0.0534973)
(0.0111718 0.0521948 -0.03677)
(0.0581861 0.0461905 -0.0320652)
(0.0925044 0.0378103 -0.0237171)
(0.108595 0.0269436 -0.0120116)
(0.104591 0.0134417 -0.00457215)
(0.0907894 0.00506296 0.00152213)
(0.0716897 -0.00301886 0.00412284)
(0.0516608 -0.00675125 0.00556274)
(0.0308785 -0.00592257 0.00642221)
(0.016499 -0.00435577 0.00685821)
(0.00224041 -0.00276863 0.00467859)
(-0.00698594 0.00103678 -0.00347661)
(0.00866898 -0.0165672 -0.00327699)
(0.0238533 -0.0111498 -0.00130374)
(0.0334606 -0.00789448 -0.000731008)
(0.0388713 -0.00305137 -0.000890489)
(0.0388474 -0.000742409 -0.00149669)
(0.0373525 0.00330464 -0.0029892)
(0.0299643 0.00493238 -0.00279589)
(0.0230191 0.0106632 -0.00702892)
(0.00526811 0.0161988 -0.00436253)
(-0.0189962 0.0250013 -0.00810354)
(-0.0559355 0.0314057 0.000454401)
(-0.103809 0.0425437 -0.00399528)
(-0.155804 0.0629148 -0.00684533)
(-0.2149 0.0760423 -0.0111411)
(-0.272747 0.0849956 -0.0181733)
(-0.35359 0.0929344 -0.0435195)
(-0.458691 0.0951519 -0.0584919)
(-0.507881 0.101074 -0.0759584)
(-0.592169 0.0990131 -0.0989385)
(-0.544818 0.126221 -0.0982723)
(-0.407872 0.141183 -0.126585)
(-0.389114 0.186464 -0.137025)
(-0.371918 0.211391 -0.146375)
(-0.360703 0.2366 -0.157796)
(-0.322322 0.258243 -0.163888)
(-0.272447 0.279077 -0.165228)
(-0.201681 0.294887 -0.153624)
(-0.125173 0.300757 -0.133648)
(-0.0542199 0.306846 -0.109848)
(0.0113356 0.289472 -0.0757796)
(0.0754484 0.259305 -0.0470696)
(0.111953 0.209737 -0.0388282)
(0.124127 0.159325 -0.0265602)
(0.118721 0.108392 -0.0127812)
(0.0995894 0.0687268 -0.00526725)
(0.0797664 0.0401639 -0.000866574)
(0.054689 0.0255794 0.000141757)
(0.0327069 0.0157959 0.00170911)
(0.00805576 0.00738359 0.00203673)
(-0.00065754 -0.00647373 0.00149468)
(0.0147959 -0.022771 -0.00153242)
(0.0316037 -0.0177583 -0.0025235)
(0.0419984 -0.00554826 -0.00339967)
(0.0443302 0.00484106 -0.00524577)
(0.0418065 0.0161518 -0.00671795)
(0.0342797 0.0315413 -0.00794798)
(0.020181 0.0456996 -0.00958825)
(0.00417999 0.0696364 -0.0019957)
(-0.0262655 0.0899846 -0.00482224)
(-0.0644291 0.117175 -0.00813021)
(-0.117588 0.149661 -0.0133062)
(-0.172488 0.183402 -0.0174475)
(-0.250825 0.211144 -0.0322094)
(-0.349137 0.230455 -0.0351668)
(-0.445358 0.244099 -0.0422911)
(-0.53183 0.248841 -0.0588212)
(-0.619216 0.26942 -0.0770556)
(-0.662992 0.298904 -0.0947792)
(-0.731808 0.332687 -0.116272)
(-0.670606 0.370955 -0.107745)
(-0.507374 0.399922 -0.123875)
(-0.465078 0.456753 -0.126087)
(-0.436977 0.488536 -0.123446)
(-0.41664 0.520699 -0.125877)
(-0.374232 0.542757 -0.124205)
(-0.323868 0.556907 -0.119674)
(-0.258631 0.560621 -0.104778)
(-0.191528 0.550594 -0.0829712)
(-0.126739 0.530942 -0.0593323)
(-0.0705516 0.500546 -0.0399822)
(-0.0276498 0.452373 -0.027793)
(0.00658103 0.379597 -0.0162418)
(0.0290209 0.307066 -0.00814518)
(0.0411645 0.227341 -0.0110666)
(0.04732 0.162435 -0.0108902)
(0.0472826 0.114488 -0.00712888)
(0.0382639 0.0772067 -0.00487789)
(0.0271494 0.0511333 -0.00110949)
(0.00797117 0.0244448 0.00172491)
(0.000323899 -0.0109206 0.00230956)
(0.0169992 -0.0245208 -0.0011145)
(0.0380518 -0.0115787 -0.00309405)
(0.0459111 0.0062174 -0.0063379)
(0.0437753 0.0300586 -0.00701169)
(0.0392351 0.0550449 -0.00891518)
(0.026202 0.090296 -0.00877099)
(0.00701029 0.12286 -0.00560763)
(-0.0202303 0.167677 -0.0105358)
(-0.0658361 0.207871 -0.0129076)
(-0.111852 0.251989 -0.0171726)
(-0.176918 0.287441 -0.0245289)
(-0.262677 0.315472 -0.0269633)
(-0.353906 0.331694 -0.0288587)
(-0.440326 0.352796 -0.0312206)
(-0.519382 0.377152 -0.0366361)
(-0.589938 0.407052 -0.0511524)
(-0.664039 0.436144 -0.0606071)
(-0.69363 0.476567 -0.0698588)
(-0.74784 0.520288 -0.0774756)
(-0.675386 0.553917 -0.0496455)
(-0.491487 0.573704 -0.0462907)
(-0.435016 0.616296 -0.0410737)
(-0.407399 0.624468 -0.02949)
(-0.388441 0.637583 -0.0266339)
(-0.355336 0.638503 -0.0214535)
(-0.316686 0.630957 -0.0179906)
(-0.268313 0.612701 -0.0106336)
(-0.21879 0.587262 0.00124285)
(-0.17381 0.555182 0.00845337)
(-0.142092 0.515225 0.013667)
(-0.117584 0.471172 0.0122149)
(-0.0942983 0.414018 0.0066689)
(-0.0722381 0.350077 -0.00153067)
(-0.049576 0.270422 -0.0052634)
(-0.0203472 0.201953 -0.0103211)
(-0.00011141 0.146685 -0.0104255)
(0.00882996 0.110325 -0.00779465)
(0.0169579 0.0769055 -0.00330159)
(0.00634288 0.0364643 0.00140174)
(0.00086699 -0.0112928 0.000812263)
(0.0233355 -0.0140277 -0.00436671)
(0.0462052 0.00337222 -0.00720837)
(0.0544174 0.0383961 -0.00823961)
(0.0517536 0.0765664 -0.00751159)
(0.0457041 0.12262 -0.0150584)
(0.0265683 0.178115 -0.0124214)
(-0.000974767 0.237184 -0.00601607)
(-0.0338429 0.292451 -0.00778117)
(-0.0877043 0.337469 -0.00986091)
(-0.150086 0.372392 -0.0125647)
(-0.229767 0.391742 -0.0152261)
(-0.30352 0.414231 -0.0160778)
(-0.377909 0.440095 -0.0213185)
(-0.451343 0.470585 -0.0199678)
(-0.518591 0.503215 -0.0212598)
(-0.576029 0.530937 -0.0246721)
(-0.630625 0.567419 -0.0216586)
(-0.640771 0.611222 -0.0174886)
(-0.681132 0.65669 -0.0261567)
(-0.609595 0.684844 0.00223922)
(-0.419249 0.690327 0.0151504)
(-0.358666 0.703789 0.0262068)
(-0.340145 0.679479 0.0365164)
(-0.33308 0.662096 0.0373902)
(-0.319321 0.636506 0.0433159)
(-0.300947 0.604365 0.0445859)
(-0.270908 0.56818 0.0486717)
(-0.24201 0.527386 0.0420026)
(-0.217203 0.488305 0.0341461)
(-0.196737 0.443921 0.0241729)
(-0.187276 0.41103 0.0168031)
(-0.17969 0.374579 0.00901762)
(-0.174687 0.34377 -0.00294397)
(-0.152552 0.278611 -0.0130914)
(-0.103782 0.208539 -0.0141137)
(-0.0523026 0.160514 -0.0135006)
(-0.016835 0.129943 -0.0115379)
(0.00287385 0.0954168 -0.00590757)
(0.00346993 0.0458157 0.00137316)
(0.00556789 -0.00667952 -0.000266063)
(0.0285728 0.000956505 -0.00604146)
(0.060661 0.0271806 -0.00582135)
(0.0733257 0.0794355 -0.00962481)
(0.0672472 0.137392 -0.0145104)
(0.0631299 0.201651 -0.0183692)
(0.0454838 0.277106 -0.0137061)
(0.00896764 0.327669 -0.00409097)
(-0.0458046 0.371338 -0.00533345)
(-0.117333 0.404555 -0.00727188)
(-0.185238 0.43412 -0.00934768)
(-0.249011 0.462846 -0.00953506)
(-0.308586 0.49713 -0.00769964)
(-0.366665 0.52481 -0.00478638)
(-0.417603 0.554802 0.00132641)
(-0.469375 0.583123 0.00639278)
(-0.502932 0.613364 0.00841411)
(-0.537298 0.645071 0.00853461)
(-0.542298 0.691363 0.0105997)
(-0.569793 0.725349 0.00895916)
(-0.501223 0.750017 0.035924)
(-0.327486 0.701429 0.0506685)
(-0.283137 0.683964 0.0610178)
(-0.286156 0.628984 0.0739909)
(-0.294223 0.587635 0.0768512)
(-0.299024 0.545606 0.0769201)
(-0.296851 0.502567 0.0742634)
(-0.287054 0.461498 0.0681996)
(-0.271997 0.414435 0.0658592)
(-0.261207 0.376599 0.0452946)
(-0.251433 0.333523 0.0343)
(-0.240818 0.303027 0.0199969)
(-0.227333 0.277948 0.00842164)
(-0.235791 0.265639 -0.00328846)
(-0.240548 0.241482 -0.0156351)
(-0.174832 0.192544 -0.0140763)
(-0.0928516 0.161462 -0.0150994)
(-0.0404852 0.135109 -0.0118466)
(-0.00465269 0.103443 -0.00674584)
(0.00248191 0.0491425 0.00190215)
(0.00754724 -0.00119014 0.00025708)
(0.0384039 0.0132847 -0.0100303)
(0.0809874 0.0536887 -0.00983318)
(0.105465 0.108535 -0.0116777)
(0.100753 0.172565 -0.0156607)
(0.0977782 0.247151 -0.0184361)
(0.0541346 0.308928 -0.0105173)
(-0.0110847 0.339964 0.00223566)
(-0.0596022 0.383425 -0.00272953)
(-0.116597 0.423543 -0.00336359)
(-0.165693 0.469309 -0.00344369)
(-0.216847 0.511446 -0.00164813)
(-0.263628 0.550279 0.0015981)
(-0.310493 0.583712 0.00689216)
(-0.350767 0.616238 0.0144021)
(-0.385327 0.641191 0.0199063)
(-0.409453 0.668186 0.0258353)
(-0.426632 0.680756 0.0292594)
(-0.418899 0.705761 0.0264174)
(-0.440204 0.720045 0.0172374)
(-0.430748 0.739156 0.0325698)
(-0.29102 0.633729 0.0538697)
(-0.232977 0.584661 0.0581427)
(-0.252844 0.523621 0.0707984)
(-0.270928 0.480868 0.0714965)
(-0.292185 0.442859 0.0711972)
(-0.305806 0.407459 0.0673816)
(-0.312463 0.373435 0.0604773)
(-0.310779 0.336844 0.047636)
(-0.311739 0.302775 0.0322385)
(-0.308829 0.270056 0.0191789)
(-0.300809 0.242269 0.00698787)
(-0.287715 0.222836 -0.00212996)
(-0.284703 0.207261 -0.00904274)
(-0.288392 0.217862 -0.0182392)
(-0.226826 0.192976 -0.0207186)
(-0.127524 0.166707 -0.021858)
(-0.0559958 0.146065 -0.0168484)
(-0.00988672 0.112191 -0.0106993)
(0.00240628 0.0537807 0.000151614)
(0.0071536 0.00590096 -0.00337196)
(0.0453257 0.0324029 -0.0134998)
(0.0995112 0.081653 -0.0137181)
(0.124883 0.137361 -0.0111176)
(0.128657 0.196047 -0.01204)
(0.113851 0.268241 -0.012386)
(0.0525136 0.297793 -0.00151516)
(0.00367592 0.348948 0.0050893)
(-0.0302031 0.39565 0.00118024)
(-0.0804085 0.449058 0.00261994)
(-0.122983 0.49305 0.00356711)
(-0.165924 0.530245 0.00977338)
(-0.202116 0.563429 0.0158013)
(-0.233242 0.590287 0.023508)
(-0.261247 0.615524 0.0279697)
(-0.289761 0.630762 0.0321128)
(-0.308931 0.641987 0.0348224)
(-0.327193 0.641915 0.0340416)
(-0.32573 0.636547 0.0311549)
(-0.340877 0.61557 0.0147734)
(-0.381901 0.619624 0.0159162)
(-0.294371 0.540162 0.0348265)
(-0.221409 0.457754 0.0375725)
(-0.241639 0.417427 0.0490095)
(-0.266926 0.381191 0.0528534)
(-0.29799 0.356606 0.0542951)
(-0.321786 0.330464 0.0552875)
(-0.339497 0.30498 0.048214)
(-0.349035 0.276996 0.0391428)
(-0.356991 0.247139 0.0172419)
(-0.358426 0.215636 0.00903472)
(-0.348993 0.191178 -0.000183038)
(-0.334789 0.178213 -0.00810391)
(-0.318655 0.169745 -0.0119306)
(-0.326569 0.191452 -0.0214014)
(-0.276797 0.196192 -0.0207797)
(-0.161535 0.172088 -0.0225321)
(-0.0744197 0.155255 -0.017629)
(-0.0149911 0.119454 -0.0103571)
(0.00350872 0.0574866 0.000935458)
(0.00610986 0.0172882 -0.00591343)
(0.0535626 0.0631029 -0.0178638)
(0.119546 0.119543 -0.0193794)
(0.151176 0.17499 -0.013303)
(0.158846 0.236425 -0.0142)
(0.127273 0.286334 -0.0117915)
(0.0704858 0.322968 -0.00260434)
(0.0324576 0.380014 0.00494903)
(0.00422754 0.41782 0.0109943)
(-0.0308856 0.458356 0.0108836)
(-0.0706605 0.496566 0.0151033)
(-0.102348 0.523362 0.0206212)
(-0.128574 0.546115 0.0277672)
(-0.153778 0.558915 0.0340398)
(-0.177505 0.56323 0.0362197)
(-0.20299 0.559903 0.0367535)
(-0.225454 0.553243 0.0354796)
(-0.252178 0.537895 0.0307985)
(-0.273016 0.523905 0.024769)
(-0.290723 0.492061 0.0100286)
(-0.342841 0.48154 -0.000342522)
(-0.317489 0.452257 0.0102484)
(-0.241795 0.353706 0.0192055)
(-0.240576 0.336469 0.0252992)
(-0.271065 0.310827 0.0331673)
(-0.30599 0.29652 0.0375199)
(-0.339195 0.278575 0.0427447)
(-0.364247 0.256853 0.0388951)
(-0.384001 0.233314 0.0240345)
(-0.401353 0.200449 0.00888318)
(-0.404012 0.175961 -0.000945668)
(-0.391347 0.152989 -0.0062655)
(-0.37625 0.139587 -0.0120178)
(-0.349195 0.140868 -0.0201021)
(-0.339523 0.153987 -0.0240758)
(-0.306275 0.19086 -0.0287934)
(-0.197126 0.174414 -0.0265186)
(-0.0897172 0.164474 -0.0246353)
(-0.019981 0.129268 -0.0137013)
(0.00440587 0.0634532 -0.00124599)
(0.00765485 0.0337381 -0.00880737)
(0.0626024 0.101851 -0.0255788)
(0.137843 0.162443 -0.024694)
(0.176345 0.216149 -0.0150596)
(0.177748 0.269311 -0.0151071)
(0.145649 0.302017 -0.0138144)
(0.103273 0.349507 -0.00337708)
(0.0705877 0.396097 0.00856528)
(0.0398093 0.433423 0.015422)
(0.015583 0.460126 0.0260081)
(-0.0115895 0.482577 0.0227805)
(-0.0428879 0.495642 0.0332514)
(-0.0659045 0.504293 0.0382427)
(-0.0892628 0.494799 0.0438859)
(-0.112862 0.479622 0.0438062)
(-0.139719 0.456602 0.0406554)
(-0.167364 0.433257 0.0353783)
(-0.198263 0.407837 0.0277887)
(-0.229085 0.391073 0.0192935)
(-0.261018 0.372873 0.00458339)
(-0.315305 0.357935 -0.00813916)
(-0.341317 0.357271 -0.00722661)
(-0.273078 0.290938 0.0080943)
(-0.238071 0.281437 0.0108174)
(-0.272222 0.263841 0.0213754)
(-0.307174 0.256185 0.0287769)
(-0.346637 0.23728 0.0379385)
(-0.378929 0.220754 0.0323095)
(-0.407348 0.191085 0.0247292)
(-0.422918 0.164814 0.0095914)
(-0.428447 0.136951 0.0108857)
(-0.423921 0.115503 0.0172939)
(-0.404278 0.0961625 0.0141286)
(-0.379846 0.0980201 0.00883305)
(-0.360202 0.111694 -0.0133764)
(-0.329118 0.160208 -0.0245585)
(-0.227526 0.171801 -0.0250583)
(-0.107253 0.164434 -0.0215208)
(-0.0258212 0.137039 -0.0127223)
(0.00547743 0.0677214 -4.25813e-05)
(0.00878282 0.0558103 -0.0113594)
(0.0709826 0.1445 -0.0318498)
(0.155489 0.208839 -0.0310702)
(0.198846 0.25751 -0.0182132)
(0.19644 0.295075 -0.0117754)
(0.171004 0.329024 -0.0137425)
(0.142195 0.369613 -0.00315478)
(0.111208 0.406621 0.00462955)
(0.0857288 0.434919 0.0128836)
(0.0576417 0.455785 0.0286373)
(0.0290722 0.460576 0.0370293)
(0.0122265 0.461384 0.0470866)
(-0.0117528 0.448601 0.0468719)
(-0.0420926 0.427497 0.0500716)
(-0.0686352 0.398876 0.0482087)
(-0.100101 0.367014 0.041661)
(-0.132686 0.337263 0.033331)
(-0.168019 0.310346 0.024336)
(-0.202478 0.294712 0.01569)
(-0.241171 0.28019 0.00258396)
(-0.293266 0.271523 -0.00745719)
(-0.334429 0.275645 -0.0116431)
(-0.277114 0.258563 0.00113089)
(-0.231653 0.244805 0.00181349)
(-0.260578 0.232742 0.0142403)
(-0.298898 0.221086 0.0229135)
(-0.343592 0.205976 0.0321352)
(-0.380523 0.183611 0.030231)
(-0.412731 0.157946 0.0198088)
(-0.436054 0.128511 0.0301889)
(-0.450281 0.0941487 0.0315156)
(-0.452084 0.0659919 0.0182539)
(-0.438498 0.0518559 0.0130662)
(-0.404892 0.0486608 0.00515844)
(-0.367542 0.0637889 -0.000590327)
(-0.336793 0.110473 -0.0224977)
(-0.251488 0.151156 -0.0284958)
(-0.12461 0.160645 -0.0235852)
(-0.0287301 0.140958 -0.0150167)
(0.00479052 0.0721535 -0.00168443)
(0.00954458 0.0748971 -0.0120344)
(0.0769777 0.185143 -0.0357563)
(0.168517 0.252196 -0.0341993)
(0.211981 0.289349 -0.0177225)
(0.215669 0.317823 -0.00996045)
(0.200319 0.349905 -0.00715853)
(0.176967 0.381355 -0.00561061)
(0.150106 0.40569 0.00770951)
(0.123354 0.42558 0.0127968)
(0.0990902 0.43403 0.0248822)
(0.075988 0.436889 0.036458)
(0.0474579 0.425672 0.0517077)
(0.0223331 0.399054 0.0555101)
(-0.0026069 0.364936 0.0548054)
(-0.0350866 0.333483 0.0485418)
(-0.0698063 0.300174 0.0389607)
(-0.107019 0.273474 0.0279852)
(-0.142433 0.251266 0.0188327)
(-0.18087 0.242649 0.009491)
(-0.224173 0.231015 0.000143186)
(-0.271385 0.228494 -0.00777808)
(-0.309644 0.230055 -0.0116623)
(-0.260431 0.238367 -0.00192113)
(-0.214517 0.220844 -0.00271822)
(-0.241042 0.20489 0.00931253)
(-0.276729 0.188776 0.0187695)
(-0.324485 0.171421 0.0263896)
(-0.365043 0.148684 0.0215821)
(-0.401686 0.12149 0.0381129)
(-0.434603 0.0869338 0.0452927)
(-0.456494 0.0539113 0.0398149)
(-0.458003 0.028301 0.0508206)
(-0.450853 0.00515036 0.0395376)
(-0.434006 0.00158487 0.0342145)
(-0.397001 0.0111265 0.0248146)
(-0.353126 0.0578993 0.00380388)
(-0.264342 0.11252 -0.0251162)
(-0.138612 0.148764 -0.0250691)
(-0.0347737 0.139452 -0.0143952)
(0.00591717 0.0752967 -0.00165176)
(0.0102236 0.0958929 -0.0113458)
(0.0811983 0.225584 -0.038355)
(0.173354 0.293293 -0.0372459)
(0.222752 0.322076 -0.0187221)
(0.237514 0.344379 -0.00590028)
(0.229612 0.367818 7.3819e-05)
(0.208481 0.389496 0.00451053)
(0.18385 0.403624 0.00545299)
(0.162398 0.412886 0.0161347)
(0.138831 0.414438 0.0262859)
(0.111742 0.404759 0.0356779)
(0.0848281 0.38541 0.0426409)
(0.0514407 0.356844 0.0554435)
(0.0207266 0.319727 0.0553343)
(-0.00836893 0.280274 0.0471803)
(-0.0459136 0.25367 0.0338819)
(-0.0845451 0.229168 0.0219602)
(-0.119014 0.213462 0.0135849)
(-0.157829 0.206713 0.00458325)
(-0.200484 0.200335 -0.00103773)
(-0.242241 0.200473 -0.00747714)
(-0.268146 0.201899 -0.00911951)
(-0.22495 0.230683 -0.00249776)
(-0.193475 0.205353 -0.0037436)
(-0.213242 0.178998 0.0056535)
(-0.247835 0.156656 0.0139915)
(-0.293225 0.132274 0.0188257)
(-0.336105 0.110208 0.0317818)
(-0.380539 0.0776939 0.0441616)
(-0.418164 0.0465434 0.0468045)
(-0.441136 0.0140384 0.0662576)
(-0.467107 -0.023383 0.0468993)
(-0.474277 -0.0642264 0.035095)
(-0.456847 -0.0848446 0.013655)
(-0.416294 -0.0722436 0.00434942)
(-0.371299 -0.0236592 0.00862434)
(-0.285533 0.061456 -0.00234912)
(-0.152941 0.117931 -0.0311005)
(-0.039719 0.132357 -0.014424)
(0.00616904 0.0772228 -0.00321465)
(0.0093623 0.101889 -0.0104619)
(0.0795762 0.248672 -0.0405974)
(0.173785 0.319873 -0.0412846)
(0.228935 0.345965 -0.0218492)
(0.254449 0.359874 -0.00346607)
(0.25378 0.370919 0.00626999)
(0.234696 0.38255 0.0124965)
(0.211823 0.390914 0.015997)
(0.191352 0.396072 0.0190712)
(0.168474 0.390334 0.0231298)
(0.144296 0.375461 0.0295325)
(0.112328 0.350949 0.0400706)
(0.0784273 0.318028 0.0420317)
(0.0417662 0.284775 0.0500131)
(0.0111018 0.24681 0.045151)
(-0.0209841 0.217623 0.0270402)
(-0.06242 0.198719 0.0163691)
(-0.0934286 0.185604 0.00905038)
(-0.13042 0.179624 0.00131415)
(-0.168682 0.175816 -0.00171297)
(-0.204015 0.172979 -0.00598387)
(-0.205781 0.192927 -0.00197834)
(-0.176138 0.214549 -0.00228561)
(-0.174498 0.185159 -0.00173939)
(-0.189782 0.152198 0.00271209)
(-0.215548 0.119406 0.00993122)
(-0.255339 0.0957325 0.0148475)
(-0.297487 0.0665368 0.0327189)
(-0.341933 0.039861 0.0402669)
(-0.380061 0.00979795 0.0612629)
(-0.428567 -0.0320618 0.0455922)
(-0.470225 -0.0853143 0.0383339)
(-0.487866 -0.128909 0.0243642)
(-0.475493 -0.161027 0.0136315)
(-0.434804 -0.163842 -0.00630932)
(-0.373874 -0.122643 -0.00691014)
(-0.291484 -0.0203767 -0.000810591)
(-0.171526 0.0768352 -0.0169284)
(-0.0437965 0.11797 -0.0200816)
(0.00721877 0.077255 -0.0021462)
(0.00820092 0.112789 -0.00872604)
(0.0781115 0.274071 -0.0402153)
(0.173052 0.349977 -0.042814)
(0.234687 0.373453 -0.022907)
(0.266982 0.379577 -0.00247869)
(0.272063 0.377851 0.011654)
(0.260479 0.380501 0.0211416)
(0.243176 0.382779 0.0238404)
(0.223918 0.380834 0.0265646)
(0.199488 0.369157 0.0283867)
(0.171795 0.349505 0.0302339)
(0.139792 0.319343 0.0282563)
(0.102434 0.287548 0.0305388)
(0.0635153 0.250634 0.0321055)
(0.0273619 0.22332 0.033449)
(-0.00384567 0.19003 0.020492)
(-0.0370225 0.173983 0.0103889)
(-0.0670981 0.165267 0.00522784)
(-0.098536 0.15434 -0.000914582)
(-0.134159 0.150154 -0.00225035)
(-0.144992 0.159625 -0.000210335)
(-0.139705 0.184053 0.00211061)
(-0.138325 0.180367 0.000903593)
(-0.152964 0.154143 0.000198625)
(-0.16776 0.124324 0.00241208)
(-0.184089 0.0874478 0.00602009)
(-0.216082 0.0603147 0.0186169)
(-0.252944 0.0310807 0.0278613)
(-0.291312 0.00375146 0.0467406)
(-0.34526 -0.035753 0.0402023)
(-0.401583 -0.0882593 0.0381883)
(-0.450063 -0.139869 0.028438)
(-0.480315 -0.191923 0.0181012)
(-0.484338 -0.232391 0.00290321)
(-0.450506 -0.251179 -0.0115513)
(-0.384825 -0.219881 -0.0206723)
(-0.29458 -0.130264 -0.0184674)
(-0.179118 0.0160171 0.000915171)
(-0.0538156 0.095441 -0.0268266)
(0.006331 0.0790674 -0.0034413)
(0.00585927 0.0923841 -0.00823293)
(0.0720896 0.267563 -0.0397594)
(0.167249 0.349436 -0.0417201)
(0.233483 0.372989 -0.0222209)
(0.272849 0.373448 0.00103944)
(0.286708 0.367374 0.0150746)
(0.282173 0.36591 0.0209042)
(0.264967 0.360528 0.024347)
(0.244264 0.352734 0.0266701)
(0.22036 0.33958 0.0274643)
(0.193176 0.31898 0.0270941)
(0.159796 0.292789 0.0236215)
(0.122083 0.259772 0.0195824)
(0.0849347 0.227973 0.0136323)
(0.0480196 0.200547 0.0182039)
(0.0159484 0.176772 0.010945)
(-0.00910168 0.157884 0.00508256)
(-0.0384277 0.145252 -0.000646457)
(-0.0690291 0.13721 -0.00224114)
(-0.0814974 0.142024 0.000740129)
(-0.0823908 0.156194 0.00323167)
(-0.0922952 0.155775 0.00468734)
(-0.107288 0.143527 0.00379838)
(-0.126525 0.12102 0.00306714)
(-0.145386 0.0994112 0.00359684)
(-0.159461 0.0627435 0.00581616)
(-0.181016 0.031666 0.0165911)
(-0.211592 0.00304197 0.030768)
(-0.254901 -0.0320215 0.0300637)
(-0.309399 -0.0767533 0.0332999)
(-0.365093 -0.124638 0.0299097)
(-0.417797 -0.181027 0.0258304)
(-0.455932 -0.239673 0.0161431)
(-0.472167 -0.294494 0.0028409)
(-0.450792 -0.326854 -0.0141826)
(-0.392286 -0.316481 -0.027416)
(-0.28878 -0.236715 -0.0313202)
(-0.177791 -0.0838358 -0.0196813)
(-0.0578467 0.0506045 -0.0194577)
(0.00834279 0.0671867 -0.0086494)
(0.00561257 0.104935 -0.0047984)
(0.0696514 0.286278 -0.0353504)
(0.16362 0.372023 -0.0402803)
(0.236166 0.39355 -0.0193802)
(0.285003 0.38874 0.00512281)
(0.309009 0.374429 0.0147419)
(0.308417 0.363796 0.0217769)
(0.292784 0.351928 0.0233776)
(0.274787 0.340535 0.0220078)
(0.250115 0.32145 0.01917)
(0.222245 0.296096 0.0161904)
(0.186849 0.265333 0.0114161)
(0.145792 0.234036 0.00744668)
(0.106988 0.203352 0.00410265)
(0.0695744 0.180763 0.00311504)
(0.0381678 0.164192 0.000832962)
(0.0105959 0.153706 -0.00206726)
(-0.00918479 0.143884 -0.00170399)
(-0.0204657 0.145345 -0.00123964)
(-0.0300862 0.147904 0.00155341)
(-0.0422738 0.140517 0.00412386)
(-0.0601698 0.12612 0.00644366)
(-0.0783089 0.110324 0.00600559)
(-0.0988101 0.0918331 0.0052581)
(-0.122788 0.0728159 0.00731226)
(-0.140669 0.04808 0.00519749)
(-0.154092 0.0115359 0.0103862)
(-0.181941 -0.021809 0.013194)
(-0.221595 -0.0638606 0.0184638)
(-0.270284 -0.106593 0.0201409)
(-0.324969 -0.156113 0.021602)
(-0.378536 -0.213868 0.0193734)
(-0.421534 -0.276839 0.01379)
(-0.447179 -0.342549 0.00221189)
(-0.438702 -0.391587 -0.0139203)
(-0.390571 -0.402946 -0.0309191)
(-0.298385 -0.338346 -0.0453495)
(-0.183488 -0.185619 -0.0339061)
(-0.057964 0.00836114 -0.0087839)
(0.00650769 0.0692387 -0.0113814)
(-0.00456003 0.0771687 -0.0153305)
(0.0488111 0.267634 -0.040484)
(0.14433 0.363528 -0.0463836)
(0.224162 0.386734 -0.0269762)
(0.282511 0.383307 -0.00615892)
(0.316543 0.361848 0.00656807)
(0.325686 0.344151 0.0128515)
(0.312232 0.325496 0.0135524)
(0.290357 0.313263 0.0127621)
(0.26196 0.302302 0.00942969)
(0.23267 0.289089 0.00697927)
(0.199753 0.26999 0.00385276)
(0.162799 0.249204 0.00185925)
(0.129355 0.227534 0.000444561)
(0.0990845 0.207819 0.00261791)
(0.0726531 0.196799 -0.00125811)
(0.0509504 0.186297 -0.00682555)
(0.0337599 0.173512 -0.00401532)
(0.0174716 0.162537 -0.00371961)
(-0.00160462 0.145862 0.000393381)
(-0.0179531 0.124106 0.00421632)
(-0.0354471 0.103867 0.00640686)
(-0.0539583 0.0850513 0.00624595)
(-0.0745556 0.0674934 0.00654342)
(-0.0961299 0.0491433 0.00302527)
(-0.121375 0.0312334 0.00194757)
(-0.141659 0.00232674 0.00159007)
(-0.164805 -0.0330332 0.00240659)
(-0.200215 -0.0695432 0.00580834)
(-0.241783 -0.112895 0.0104308)
(-0.289306 -0.163565 0.0135548)
(-0.337915 -0.22812 0.0139288)
(-0.381125 -0.302131 0.0099611)
(-0.411502 -0.381617 0.000575884)
(-0.412465 -0.446931 -0.0137746)
(-0.373277 -0.477746 -0.0316986)
(-0.28184 -0.438291 -0.0542011)
(-0.168816 -0.30701 -0.0545026)
(-0.0472706 -0.084858 -0.0199944)
(0.00873268 0.0390717 -0.00691479)
(-0.00541063 0.163265 -0.00697447)
(0.0448039 0.371585 -0.0219901)
(0.133625 0.471243 -0.0327075)
(0.215857 0.493806 -0.0128743)
(0.281725 0.48236 -0.00515671)
(0.323052 0.451687 0.0119801)
(0.340111 0.416417 0.015418)
(0.336532 0.401316 0.0173671)
(0.330856 0.402977 0.0130343)
(0.31063 0.400161 0.0078665)
(0.280615 0.388079 0.00217467)
(0.242738 0.364129 -0.00187671)
(0.200849 0.332438 -0.00500596)
(0.1598 0.300128 -0.00530164)
(0.126936 0.267274 -0.00455019)
(0.100075 0.238522 -0.00144078)
(0.0684892 0.211858 -0.00740114)
(0.047617 0.187874 -0.00858918)
(0.0334421 0.157404 -0.00632513)
(0.013344 0.133468 -0.0036181)
(-0.00301932 0.111385 0.00170975)
(-0.0187051 0.0866899 0.004926)
(-0.0344182 0.0674733 0.00578872)
(-0.0536989 0.046796 0.00778942)
(-0.0753697 0.0285525 0.000895183)
(-0.0984515 0.00985834 0.00425998)
(-0.120795 -0.00586899 0.00312993)
(-0.14368 -0.0338605 -0.00177996)
(-0.174219 -0.0725758 -0.00639066)
(-0.215184 -0.120026 -0.00749852)
(-0.263805 -0.169221 -0.00522309)
(-0.313915 -0.227183 -0.00188091)
(-0.356968 -0.292984 0.00151366)
(-0.386276 -0.377227 -0.00320494)
(-0.390213 -0.459054 -0.0171741)
(-0.365857 -0.524759 -0.0444106)
(-0.301681 -0.518715 -0.0717973)
(-0.191892 -0.393978 -0.0672906)
(-0.0531633 -0.159722 -0.0408506)
(0.0102404 0.0316956 -0.00589684)
(-0.0187119 0.247772 -0.0231503)
(0.0175841 0.488862 -0.0439647)
(0.106978 0.599007 -0.0525652)
(0.191547 0.639712 -0.0389612)
(0.262717 0.631849 -0.0279958)
(0.309855 0.604059 -0.0123402)
(0.34853 0.561213 -0.0016321)
(0.37518 0.534167 -0.00127738)
(0.368561 0.516229 -0.00628609)
(0.330912 0.489451 -0.00954857)
(0.285284 0.454707 -0.0105982)
(0.236533 0.412198 -0.0112704)
(0.192749 0.364315 -0.0105746)
(0.156529 0.317979 -0.00920411)
(0.125687 0.274202 -0.00715518)
(0.100829 0.234593 -0.00409114)
(0.0816939 0.198951 -0.000422536)
(0.0595922 0.172222 -0.00542977)
(0.0419913 0.144923 -0.00555747)
(0.0302481 0.117963 -0.00402214)
(0.0115096 0.0952713 -0.00147586)
(-0.00453817 0.0749683 0.00290438)
(-0.0197182 0.0497032 0.00500277)
(-0.0389772 0.0311315 0.00553631)
(-0.0562874 0.0127047 0.00467584)
(-0.0745009 -0.0037282 0.00880996)
(-0.0967643 -0.0188286 0.00768854)
(-0.13148 -0.0379471 0.00452026)
(-0.169716 -0.0655991 0.00409496)
(-0.198824 -0.107099 0.00246158)
(-0.228168 -0.157686 -0.00173697)
(-0.258238 -0.231061 -0.00891531)
(-0.296044 -0.31982 -0.0179227)
(-0.33386 -0.43906 -0.0255309)
(-0.357009 -0.551279 -0.0341245)
(-0.350727 -0.654612 -0.0535484)
(-0.282474 -0.683386 -0.0775315)
(-0.191813 -0.574535 -0.0879618)
(-0.0685101 -0.291366 -0.0589247)
(0.010958 -0.00567951 -0.00872994)
(-2.83945e-05 0.214352 0.00184003)
(0.0375602 0.457109 -0.034785)
(0.1105 0.581903 -0.0469699)
(0.193776 0.637636 -0.0425695)
(0.263266 0.641577 -0.0338754)
(0.312723 0.621297 -0.0229904)
(0.349398 0.585276 -0.0156793)
(0.372552 0.544807 -0.00732703)
(0.367699 0.503078 -0.00849278)
(0.331912 0.464996 -0.00767433)
(0.288078 0.426418 -0.00714541)
(0.239893 0.386533 -0.00576114)
(0.195855 0.343923 -0.00484936)
(0.158625 0.303109 -0.00355893)
(0.13052 0.261593 -0.00357745)
(0.10895 0.224294 -0.00160738)
(0.0873014 0.187123 -0.00137099)
(0.0727327 0.155586 0.000937942)
(0.0562661 0.132586 -8.40951e-05)
(0.0382664 0.106377 -0.00322342)
(0.0264347 0.085303 -0.000963325)
(0.00651216 0.0625538 0.000105488)
(-0.0083262 0.0433839 0.00815909)
(-0.0204883 0.0219974 0.00631643)
(-0.0380408 0.00542018 0.00577597)
(-0.0542148 -0.0112132 0.0088893)
(-0.0728142 -0.0281548 0.00995848)
(-0.0985104 -0.0449118 0.00799626)
(-0.136828 -0.0554097 0.00443846)
(-0.179071 -0.0751912 0.00380089)
(-0.229888 -0.109601 0.0050009)
(-0.282471 -0.170012 0.00798606)
(-0.331459 -0.25382 0.00933167)
(-0.351291 -0.375109 0.00505618)
(-0.346872 -0.508582 -0.00484748)
(-0.331834 -0.651266 -0.0188124)
(-0.271256 -0.737303 -0.0387007)
(-0.162978 -0.717846 -0.0595293)
(-0.0353328 -0.450295 -0.0602445)
(0.0177186 -0.0850855 0.00318552)
(4.54669e-05 0.231583 -0.00029665)
(0.0365182 0.449486 -0.0298871)
(0.103976 0.572387 -0.0404675)
(0.180724 0.628798 -0.0381569)
(0.248809 0.6344 -0.0238808)
(0.300023 0.612587 -0.0173366)
(0.341996 0.574119 -0.00801474)
(0.368281 0.534572 -0.00202388)
(0.364859 0.489329 -0.0017534)
(0.331695 0.451192 -0.00102661)
(0.286162 0.41128 -0.000662618)
(0.236722 0.3706 -0.000100852)
(0.194859 0.329809 -4.49243e-05)
(0.16083 0.290637 -0.00017746)
(0.13282 0.252123 -0.000149836)
(0.110646 0.213226 0.000728911)
(0.0948109 0.176127 0.00170198)
(0.0840039 0.142276 0.00284433)
(0.0686129 0.115609 0.00258315)
(0.0558554 0.0932433 0.00473811)
(0.0379959 0.0737214 0.00107208)
(0.0219934 0.0535773 0.000584058)
(0.00734221 0.0357229 0.00476139)
(-0.0090556 0.0185094 0.00607081)
(-0.0200633 -0.00272215 0.00672401)
(-0.0355749 -0.0190953 0.00812171)
(-0.0526854 -0.0384746 0.00952958)
(-0.0725402 -0.0589094 0.0102162)
(-0.100824 -0.0761872 0.00986218)
(-0.134267 -0.0941569 0.0080156)
(-0.175425 -0.112577 0.00811518)
(-0.216698 -0.145148 0.00793908)
(-0.273674 -0.188892 0.00873659)
(-0.323087 -0.265812 0.0100681)
(-0.354625 -0.373847 0.00789939)
(-0.366585 -0.523733 0.00384196)
(-0.331265 -0.639301 -0.00875437)
(-0.230484 -0.672623 -0.0310098)
(-0.0599877 -0.463635 -0.0455823)
(0.0261288 -0.0541494 -0.0225491)
(0.00667095 0.203997 -0.000298999)
(0.0444491 0.401868 -0.0244423)
(0.105046 0.532541 -0.0335167)
(0.178898 0.593986 -0.0326615)
(0.24464 0.609958 -0.0202108)
(0.295242 0.591849 -0.0127575)
(0.339142 0.556035 -0.00346455)
(0.363249 0.51285 0.00185577)
(0.360495 0.463643 0.00263917)
(0.330723 0.421495 0.00289301)
(0.285387 0.380513 0.00353753)
(0.238821 0.343155 0.00420567)
(0.199155 0.307281 0.00397864)
(0.166019 0.271697 0.00382335)
(0.138562 0.23601 0.003119)
(0.117561 0.200484 0.00331502)
(0.0990037 0.167252 0.00391371)
(0.0919505 0.132386 0.0062118)
(0.0834789 0.105406 0.0059892)
(0.0690273 0.0808557 0.00533862)
(0.0564595 0.0652592 0.00570535)
(0.0363308 0.0457477 0.00515774)
(0.0234694 0.0299972 0.00387351)
(0.0081496 0.012971 0.0031867)