/*--------------------------------*- C++ -*----------------------------------*\
| =========                 |                                                 |
| \\      /  F ield         | OpenFOAM: The Open Source CFD Toolbox           |
|  \\    /   O peration     | Version:  v1806                                 |
|   \\  /    A nd           | Web:      www.OpenFOAM.com                      |
|    \\/     M anipulation  |                                                 |
\*---------------------------------------------------------------------------*/
FoamFile
{
    version     2.0;
    format      ascii;
    class       volScalarField;
    location    "0.0165";
    object      p;
}
// * * * * * * * * * * * * * * * * * * * * * * * * * * * * * * * * * * * * * //

dimensions      [0 2 -2 0 0 0 0];


internalField   nonuniform List<scalar> 
64000
(
-1.68144e-05
-0.0960417
-0.242281
-0.390856
-0.555391
-0.5988
-0.681757
-0.732091
-0.774968
-0.813845
-0.877083
-0.889261
-0.8975
-0.924966
-0.846314
-0.790354
-0.731787
-0.659148
-0.726938
-0.531409
-0.911163
-0.486682
-2.29512
-1.95578
-2.20238
-2.21249
-2.15508
-2.12365
-2.05076
-1.95409
-1.95609
-1.98346
-2.02891
-2.07208
-2.11293
-2.09191
-2.1061
-2.09726
-2.10331
-2.09324
-0.124999
-0.210595
-0.311785
-0.403956
-0.550858
-0.602502
-0.690034
-0.718293
-0.695667
-0.67078
-0.567167
-0.55019
-0.517825
-0.544472
-0.567509
-0.638499
-0.817628
-0.743252
-0.689014
-0.51742
-0.602678
-0.424043
-2.1171
-2.09642
-2.2095
-2.26548
-2.24492
-2.25157
-2.14198
-2.13465
-1.97275
-1.97246
-1.98841
-2.00272
-2.06511
-2.05939
-2.05555
-2.05275
-2.06681
-2.05666
-0.281894
-0.312289
-0.382446
-0.430645
-0.551404
-0.499136
-0.521743
-0.561142
-0.561016
-0.748256
-0.907808
-1.05776
-1.0676
-1.20956
-1.13578
-1.07278
-0.978494
-0.8657
-0.77977
-0.648168
-0.751057
-0.632398
-2.4597
-2.67348
-2.79607
-2.89575
-2.9176
-2.94417
-2.89631
-2.81475
-2.76772
-2.64099
-2.46284
-2.37184
-2.32576
-2.28665
-2.2536
-2.20376
-2.15971
-2.10957
-0.390023
-0.393267
-0.466304
-0.488919
-0.564457
-0.836718
-0.91426
-1.00584
-1.20997
-1.37859
-1.42024
-1.46043
-1.44632
-1.38969
-1.35469
-1.3065
-1.21347
-1.08197
-0.959817
-0.839556
-0.868657
-0.737479
-2.63621
-2.98203
-3.11523
-3.20608
-3.22749
-3.27195
-3.25089
-3.23193
-3.18494
-3.14635
-3.03159
-2.78038
-2.58604
-2.46147
-2.30173
-2.16449
-2.05036
-1.98112
-0.46043
-0.474285
-0.558411
-0.575843
-0.698559
-1.2072
-1.38317
-1.62421
-1.71828
-1.83528
-1.85033
-1.82167
-1.86839
-1.82292
-1.81475
-1.72735
-1.60045
-1.45875
-1.31779
-1.21413
-1.21728
-1.02401
-2.86348
-3.30621
-3.47077
-3.53667
-3.54714
-3.58211
-3.59935
-3.61647
-3.62441
-3.61633
-3.51157
-3.36382
-3.07903
-2.74276
-2.31772
-1.86969
-1.7459
-1.73264
-0.544118
-0.598991
-0.634231
-0.649942
-0.969729
-1.58734
-1.71945
-1.96476
-2.06943
-2.16644
-2.20607
-2.23825
-2.18789
-2.14253
-2.26771
-2.16931
-1.99814
-1.83544
-1.68056
-1.5834
-1.53334
-1.12257
-2.47435
-3.12705
-3.44155
-3.52962
-3.56435
-3.63828
-3.71286
-3.79801
-3.78265
-3.72275
-3.66691
-3.42042
-3.1135
-2.6496
-2.11068
-1.52728
-1.38596
-1.49186
-0.567995
-0.558547
-0.651356
-0.803015
-1.37832
-1.81488
-1.96826
-2.20525
-2.33385
-2.4725
-2.56249
-2.65563
-2.71608
-2.75458
-2.76824
-2.64213
-2.56387
-2.5431
-2.53499
-2.50097
-2.04741
-1.1898
-1.7217
-2.26051
-3.04665
-3.37523
-3.49144
-3.63264
-3.7827
-3.93085
-3.91848
-3.85513
-3.75849
-3.52821
-3.16187
-2.697
-2.0673
-1.48023
-1.21793
-1.37534
-0.64766
-0.589437
-0.704349
-1.14962
-1.63936
-1.96766
-2.15863
-2.33781
-2.5397
-2.71364
-2.87844
-3.00708
-3.09001
-3.19005
-3.26004
-3.28191
-3.09004
-3.13668
-3.13996
-2.73073
-1.85717
-1.11278
-1.27188
-1.5952
-2.31365
-3.06387
-3.37438
-3.62879
-3.80685
-4.05162
-4.05135
-3.96803
-3.88202
-3.63467
-3.25573
-2.68234
-2.05684
-1.46713
-1.11228
-1.25568
-0.56222
-0.561094
-0.894864
-1.34259
-1.74007
-2.05101
-2.29576
-2.49063
-2.6535
-2.89748
-3.04893
-3.13445
-3.33854
-3.49485
-3.6216
-3.63516
-3.31559
-3.49179
-2.93597
-2.07951
-1.40579
-1.15277
-1.17228
-1.15238
-1.49261
-2.55336
-3.27485
-3.63184
-3.83492
-4.05025
-4.08167
-3.93931
-3.81383
-3.55074
-3.21369
-2.71903
-2.04402
-1.45633
-1.09281
-1.11979
-0.639568
-0.722935
-1.02772
-1.42376
-1.75154
-2.06706
-2.31728
-2.56263
-2.73909
-2.93401
-3.06637
-3.18452
-3.41302
-3.61257
-3.75366
-3.5742
-3.20359
-2.94501
-1.72364
-1.29083
-1.1758
-1.19193
-1.23563
-0.991312
-0.915637
-1.77218
-3.03626
-3.6676
-3.92532
-3.98861
-4.00997
-4.00147
-3.80649
-3.61549
-3.20261
-2.69698
-2.0013
-1.44228
-1.05058
-1.05123
-0.684745
-0.793892
-1.07599
-1.40922
-1.72295
-1.99665
-2.27169
-2.48298
-2.66748
-2.81235
-2.90074
-2.99062
-3.27263
-3.47845
-3.48127
-3.01496
-2.49751
-1.11333
-0.770825
-0.784235
-0.90224
-1.12391
-1.29869
-1.02974
-0.895774
-1.08094
-2.66823
-3.72803
-4.01138
-4.06503
-3.94033
-3.84686
-3.66912
-3.35063
-3.05066
-2.56909
-2.0177
-1.32847
-0.989104
-0.969876
-0.773371
-0.86271
-1.0991
-1.35961
-1.62969
-1.87477
-2.11924
-2.3006
-2.34934
-2.42251
-2.51797
-2.63116
-2.73817
-2.96527
-2.57721
-1.70508
-0.484721
-0.080581
-0.117718
-0.32036
-0.555465
-0.956245
-1.34265
-1.15932
-1.09287
-1.14488
-1.87084
-3.51693
-4.07199
-4.06059
-3.94273
-3.75269
-3.64304
-3.42477
-2.99293
-2.39212
-1.83642
-1.31554
-0.903445
-0.924595
-0.835708
-0.903966
-1.08505
-1.27522
-1.49301
-1.66845
-1.84835
-1.90338
-1.88805
-1.96455
-2.05651
-2.0727
-2.08531
-1.66874
-0.485125
0.509834
0.711961
0.669805
0.447043
0.143882
-0.147411
-0.696123
-1.37474
-1.33222
-1.32741
-1.40618
-1.64962
-2.83898
-3.83844
-3.93582
-3.88788
-3.8167
-3.4989
-3.11653
-2.84663
-2.43291
-1.66569
-1.20126
-0.797989
-0.798785
-0.857411
-0.90624
-1.05462
-1.19159
-1.33082
-1.40502
-1.50127
-1.41374
-1.32154
-1.3339
-1.29545
-1.04078
-0.405447
0.831467
1.47664
1.70495
1.43392
1.27307
0.933703
0.578466
0.281425
-0.385661
-1.39869
-1.50614
-1.58202
-1.6595
-1.8876
-2.20785
-3.62968
-3.8629
-3.91437
-3.58337
-3.23325
-2.8588
-2.41855
-2.00698
-1.64479
-1.01211
-0.668287
-0.65691
-0.870001
-0.881016
-0.982163
-1.0698
-1.17431
-1.17787
-1.10637
-0.893709
-0.644082
-0.382093
0.192783
1.16741
1.96568
2.50742
2.48283
2.40703
1.97432
1.60871
1.31943
0.950037
0.676795
-0.121314
-1.44513
-1.67692
-1.77514
-1.89791
-1.99978
-2.26908
-2.76233
-3.60929
-3.51924
-3.20645
-2.82483
-2.41226
-1.99556
-1.52735
-1.16022
-0.859238
-0.547446
-0.468628
-0.769819
-0.789051
-0.870193
-0.924895
-0.983647
-0.936332
-0.754699
-0.253552
0.495104
1.34561
2.20543
2.92623
3.22373
3.20274
2.93271
2.79784
2.30792
1.76448
1.56998
1.1927
0.907414
-0.00411395
-1.54094
-1.88326
-1.98739
-2.08813
-2.21756
-2.33736
-2.6186
-3.12402
-3.03829
-2.70239
-2.26831
-1.78943
-1.28361
-0.92003
-0.561848
-0.521968
-0.199053
-0.280485
-0.906084
-0.837263
-0.866817
-0.852781
-0.851806
-0.76243
-0.276054
0.798823
1.80332
2.58284
3.17918
3.41125
3.34673
3.13364
2.82751
2.6818
2.26168
1.77506
1.38688
1.16055
0.869249
0.0380238
-1.50725
-2.0592
-2.21468
-2.28237
-2.25346
-2.38397
-2.59656
-2.88076
-2.62222
-1.96811
-1.43056
-0.805813
-0.112093
0.124247
0.375065
0.0479638
-0.0900237
-0.00129092
-0.735707
-0.686499
-0.704539
-0.653394
-0.640509
-0.465133
0.317399
1.27448
2.01089
2.35056
2.42474
2.42402
2.30898
2.17904
1.99941
1.78069
1.61389
1.21738
0.784076
0.692561
0.496764
-0.104017
-1.43393
-2.19211
-2.38975
-2.45879
-2.45977
-2.57406
-2.71276
-2.94447
-2.49081
-1.95925
-1.22555
-0.694389
-0.384841
-0.188345
-0.012015
0.448341
0.136317
0.131097
-1.71922
-1.44944
-1.3595
-1.22482
-1.24043
-1.08733
-0.603199
-0.442852
-0.192361
-0.0130946
0.13048
0.286166
0.387832
0.470975
0.474096
0.443423
0.287519
0.206668
-0.116092
-0.290675
-0.265074
-0.545478
-1.48288
-2.34665
-2.54697
-2.48914
-2.57826
-2.69103
-2.81536
-2.91169
-3.08729
-2.01219
-0.806508
-0.244717
0.193605
0.348634
0.460483
0.233669
0.374701
0.23044
-2.28759
-2.46642
-2.52129
-2.55282
-2.71056
-2.77516
-2.63306
-2.99285
-2.99594
-2.76447
-2.45504
-2.07855
-1.72835
-1.41781
-1.19526
-1.01535
-0.939524
-1.01877
-1.11
-1.35534
-1.3048
-1.37978
-1.87247
-2.57701
-2.67355
-2.56227
-2.59351
-2.69214
-2.84716
-3.0056
-3.13183
-3.26396
-1.89034
-0.211665
0.773285
1.17065
1.04343
0.722308
0.369157
0.0430758
-2.36735
-2.53815
-2.6202
-2.76224
-2.94192
-3.06384
-3.20253
-3.84183
-4.36152
-4.42561
-4.25712
-3.88293
-3.42182
-2.95413
-2.56149
-2.26333
-2.08864
-2.05787
-2.12928
-2.25956
-2.31254
-2.37375
-2.57986
-2.95549
-2.87324
-2.68444
-2.59715
-2.65242
-2.84015
-3.0731
-3.31008
-3.49049
-3.18151
-2.12535
-1.23525
-0.464331
0.146647
0.132222
0.164369
-0.241673
-2.70869
-2.80633
-2.8985
-3.04626
-3.20375
-3.34387
-3.56639
-4.16557
-4.9174
-5.27831
-5.29173
-5.03554
-4.60178
-4.10821
-3.69935
-3.46871
-3.40974
-3.37939
-3.26546
-3.12387
-3.11049
-3.11704
-3.25775
-3.33671
-3.11006
-2.76837
-2.61795
-2.64191
-2.82316
-3.08851
-3.3884
-3.64276
-3.44261
-3.02141
-2.76589
-2.57559
-2.39736
-2.3586
-2.43092
-2.38534
-2.81011
-2.96459
-3.11746
-3.29034
-3.51711
-3.68869
-3.97261
-4.48164
-5.17815
-5.71086
-5.89076
-5.77097
-5.44135
-5.00973
-4.66508
-4.40554
-4.03992
-3.84576
-3.75606
-3.66106
-3.60354
-3.51026
-3.56194
-3.45858
-3.2139
-2.95353
-2.72676
-2.65442
-2.82833
-3.1605
-3.54841
-3.85815
-3.81541
-3.59875
-3.54957
-3.59632
-3.71919
-3.69321
-3.52101
-3.28646
-2.97495
-3.01793
-3.299
-3.46989
-3.72817
-3.96154
-4.28542
-4.74638
-5.34313
-5.88264
-6.15845
-6.1781
-5.98227
-5.6036
-5.15237
-4.62625
-4.1373
-3.86018
-3.77473
-3.70179
-3.68208
-3.68186
-3.56844
-3.47537
-3.42221
-3.19944
-2.96818
-2.8008
-2.81462
-3.05393
-3.47937
-3.87503
-4.06312
-4.11063
-4.25201
-4.40855
-4.70808
-4.78363
-4.61946
-3.99603
-3.14345
-3.05005
-3.46681
-3.61543
-3.89556
-4.18179
-4.51604
-4.93527
-5.43419
-5.89902
-6.17441
-6.24618
-6.14688
-5.83926
-5.31085
-4.77521
-4.15645
-3.7269
-3.66484
-3.61042
-3.60054
-3.66109
-3.52873
-3.62799
-3.64896
-3.59511
-3.51396
-3.49937
-3.59787
-3.77051
-3.9936
-4.20849
-4.44393
-4.63173
-4.94653
-5.19053
-5.64588
-5.80982
-5.57822
-4.47233
-3.32502
-3.12559
-3.59052
-3.73303
-4.02897
-4.37302
-4.68819
-5.06753
-5.48364
-5.89664
-6.13189
-6.1713
-6.06953
-5.85908
-5.40232
-4.9585
-4.29394
-3.57592
-3.52407
-3.53222
-3.59639
-3.70529
-3.63056
-3.73634
-3.98847
-4.15975
-4.2913
-4.65499
-5.05305
-5.37446
-5.62845
-5.79142
-5.93755
-5.98867
-6.20906
-6.26842
-6.66666
-6.669
-6.68956
-5.62375
-3.4798
-3.18049
-3.67632
-3.8741
-4.15924
-4.46755
-4.7969
-5.15283
-5.49234
-5.84389
-6.07791
-6.13206
-6.04201
-5.84574
-5.51946
-5.08449
-4.49827
-3.56307
-3.48475
-3.47465
-3.55246
-3.71036
-3.82096
-3.83061
-4.20257
-4.60114
-4.84155
-5.21808
-5.4073
-5.43953
-5.44243
-5.39343
-5.4191
-5.35878
-5.50677
-5.37706
-5.71111
-5.59895
-6.12366
-5.87608
-3.59211
-3.31828
-3.68849
-4.02629
-4.31021
-4.55499
-4.87705
-5.15006
-5.4541
-5.72603
-5.89411
-5.93745
-5.8496
-5.72334
-5.58179
-5.2641
-4.60674
-3.56878
-3.41218
-3.41139
-3.542
-3.66837
-3.78084
-3.8822
-4.34328
-4.85371
-5.16283
-5.3452
-5.38233
-5.36881
-5.3804
-5.32753
-5.34523
-5.1831
-5.23588
-4.79929
-4.89715
-4.30583
-4.52178
-4.17695
-3.68311
-3.48485
-3.66537
-4.16245
-4.43451
-4.6679
-4.93393
-5.18442
-5.42844
-5.62433
-5.76743
-5.83166
-5.82037
-5.71415
-5.55757
-5.36161
-4.91165
-3.71065
-3.34188
-3.31273
-3.45234
-3.5688
-3.63781
-3.61499
-4.3194
-5.23935
-5.2474
-5.33712
-5.36188
-5.31194
-5.31818
-5.24119
-5.28272
-5.08877
-5.13444
-4.52404
-4.59143
-3.7477
-3.96981
-3.81766
-3.77949
-3.65048
-3.67221
-4.22246
-4.47516
-4.72082
-4.91663
-5.18711
-5.3498
-5.5219
-5.64365
-5.71225
-5.72025
-5.69231
-5.63454
-5.33653
-4.96883
-3.94195
-3.20704
-3.20578
-3.32202
-3.47548
-3.49679
-3.32518
-4.34566
-5.25126
-5.21289
-5.29719
-5.28209
-5.28523
-5.25569
-5.15312
-5.23091
-4.92092
-5.03229
-4.2557
-4.37116
-3.30072
-3.49837
-3.16425
-3.86414
-3.83845
-3.71366
-4.22525
-4.51487
-4.74567
-4.96607
-5.18095
-5.33567
-5.46816
-5.56981
-5.63211
-5.65941
-5.65616
-5.56105
-5.49455
-5.2968
-4.18363
-3.07242
-3.12483
-3.20444
-3.36771
-3.39117
-3.09737
-4.19776
-5.19421
-5.1494
-5.21547
-5.2444
-5.19906
-5.15156
-5.0576
-5.07563
-4.86563
-4.93143
-4.06759
-4.27194
-3.04636
-3.32095
-2.7595
-3.93769
-3.93924
-3.8184
-4.10617
-4.49291
-4.67588
-4.89856
-5.08531
-5.26253
-5.40508
-5.48714
-5.5538
-5.61274
-5.55658
-5.57008
-5.52162
-5.51476
-4.52669
-2.8887
-3.03086
-3.06342
-3.25627
-3.34235
-2.99173
-3.94392
-5.28833
-5.05056
-5.2454
-5.17938
-5.16895
-5.11831
-4.91451
-5.01065
-4.6159
-4.98967
-3.93146
-4.30386
-2.8714
-3.3411
-2.4695
-3.99515
-4.03324
-4.04995
-4.05354
-4.52217
-4.7516
-4.93144
-5.10137
-5.25755
-5.38291
-5.50423
-5.62229
-5.61674
-5.62815
-5.57026
-5.51788
-5.50083
-4.73389
-2.77279
-2.95677
-2.95926
-3.15053
-3.32091
-2.98069
-3.62654
-5.43194
-4.97532
-5.23036
-5.10756
-5.13377
-5.07628
-4.88479
-4.87672
-4.53822
-4.84648
-3.88472
-4.45613
-2.75574
-3.41939
-2.17395
-4.0092
-4.00529
-4.04042
-3.97861
-4.33905
-4.52805
-4.74863
-4.90568
-5.07168
-5.21653
-5.35171
-5.43254
-5.55943
-5.54722
-5.50581
-5.44718
-5.36575
-4.79467
-2.61255
-2.7898
-2.78711
-2.99967
-3.25126
-3.01785
-3.40395
-5.45527
-4.95592
-5.16497
-5.0712
-5.04815
-5.05067
-4.78241
-4.94921
-4.32059
-4.90787
-3.51461
-4.6133
-2.41806
-3.3521
-1.66848
-4.20255
-4.29647
-4.30813
-4.26227
-4.51974
-4.66281
-4.82842
-4.96618
-5.13167
-5.23769
-5.37304
-5.50441
-5.57724
-5.62824
-5.55691
-5.46239
-5.33677
-4.84046
-2.47109
-2.60892
-2.61326
-2.84351
-3.12741
-3.04248
-3.34307
-5.46337
-4.99668
-5.13361
-5.08207
-4.87959
-5.07893
-4.66787
-4.93504
-4.16603
-4.93255
-3.37328
-4.60024
-2.16538
-3.18851
-0.95372
-3.94784
-3.8249
-3.97827
-4.01798
-4.17161
-4.38401
-4.49247
-4.61694
-4.76942
-4.95611
-5.14475
-5.30099
-5.44234
-5.49422
-5.55629
-5.44448
-5.27149
-4.73332
-2.16245
-2.24962
-2.25319
-2.52053
-2.83426
-2.91677
-3.3384
-5.42873
-5.07577
-5.10484
-4.98009
-4.78979
-4.85426
-4.71539
-4.96213
-4.04047
-4.84331
-2.82648
-4.33977
-0.963036
-2.20623
0.768219
-4.2122
-4.3711
-4.16844
-4.46991
-4.46559
-4.70785
-4.70753
-4.74732
-4.91958
-5.06825
-5.24441
-5.4201
-5.55642
-5.65835
-5.81674
-5.76738
-5.46
-4.66477
-1.92891
-1.88378
-1.95887
-2.18262
-2.51986
-2.78218
-3.49925
-5.51769
-5.27423
-5.12489
-4.99165
-4.67526
-4.78145
-4.37142
-5.14847
-3.81798
-5.2733
-2.69842
-4.21352
0.0268657
-1.02504
2.5488
-4.94048
-4.3008
-4.4865
-3.96781
-4.30221
-4.20072
-4.26802
-4.36922
-4.54006
-4.71123
-4.96058
-5.22425
-5.49505
-5.73885
-6.0163
-6.09411
-5.75766
-4.45004
-1.44517
-1.11316
-1.28686
-1.65179
-2.09046
-2.59584
-3.72682
-5.61124
-5.46371
-5.12982
-4.91706
-4.51629
-4.68208
-4.16912
-4.91541
-3.54762
-4.85826
-1.56064
-2.89155
3.49553
3.24212
9.75872
-4.42808
-5.10042
-4.68999
-4.85387
-4.23934
-4.58346
-4.41639
-4.45037
-4.61988
-4.7967
-5.06021
-5.40272
-5.79692
-6.16654
-6.50655
-6.61485
-6.07844
-4.27522
-1.2823
-0.659912
-0.838486
-1.19897
-1.79116
-2.44553
-3.90766
-5.72147
-5.70813
-5.19391
-4.88161
-4.34559
-4.60585
-4.11596
-5.24096
-3.91945
-5.57229
-1.98578
-2.47262
6.21132
10.4291
20.1712
-7.15233
-4.2764
-4.89881
-4.39996
-4.34525
-4.13486
-4.23018
-4.24859
-4.41477
-4.59774
-4.89443
-5.28061
-5.84284
-6.41453
-6.72472
-6.85715
-6.13516
-3.94681
-0.993584
-0.121561
-0.280501
-0.704722
-1.53605
-2.35587
-4.04234
-5.82901
-5.89084
-5.27482
-4.87433
-4.2084
-4.50797
-3.96863
-5.19777
-4.01445
-5.6905
-1.72859
-1.04939
11.4327
23.0377
39.8382
-0.105625
-0.190846
-0.286011
-0.407214
-0.553521
-0.600335
-0.680136
-0.733093
-0.796572
-0.825632
-0.931208
-0.930413
-0.902709
-0.887937
-0.826475
-0.774777
-0.70325
-0.625675
-0.77039
-0.680848
-0.633838
-0.360459
-2.19802
-2.23129
-2.44652
-2.56331
-2.48258
-2.38963
-2.25387
-2.22074
-2.02749
-2.05322
-2.12842
-2.10708
-2.12394
-2.10127
-2.10058
-2.08842
-2.09408
-2.08484
-0.222126
-0.27692
-0.342166
-0.425216
-0.552003
-0.59039
-0.656513
-0.74009
-0.666586
-0.678757
-0.487298
-0.57167
-0.551957
-0.612226
-0.740389
-0.833282
-0.826314
-0.706265
-0.624913
-0.462087
-0.456815
-0.489991
-2.12433
-2.46603
-2.64761
-2.71442
-2.624
-2.52459
-2.4404
-2.39414
-2.28281
-2.13764
-2.0836
-2.06681
-2.10493
-2.08231
-2.08899
-2.08356
-2.08136
-2.05932
-0.310232
-0.336108
-0.406562
-0.458106
-0.529462
-0.535938
-0.569568
-0.545392
-0.613466
-0.742348
-0.883003
-1.04106
-1.12063
-1.25231
-1.26427
-1.17937
-1.05433
-0.920664
-0.805575
-0.639407
-0.656476
-0.798174
-2.53118
-3.10849
-3.2899
-3.34088
-3.26068
-3.15483
-3.08819
-3.0617
-3.01157
-2.85139
-2.6087
-2.46183
-2.35729
-2.29682
-2.26137
-2.22764
-2.19116
-2.14789
-0.392645
-0.399667
-0.463607
-0.491979
-0.539282
-0.70762
-0.787908
-0.910739
-1.13243
-1.38563
-1.4706
-1.52398
-1.54518
-1.62506
-1.56948
-1.43019
-1.26863
-1.09732
-0.931587
-0.759861
-0.766763
-0.945699
-2.70698
-3.39158
-3.57673
-3.62226
-3.56083
-3.46202
-3.42827
-3.43236
-3.43834
-3.3917
-3.2315
-2.9007
-2.64759
-2.42816
-2.31729
-2.1671
-2.08957
-2.04764
-0.451548
-0.458846
-0.574388
-0.626802
-0.77069
-0.940343
-1.38592
-1.64591
-1.80515
-1.92465
-1.94211
-1.93529
-1.99151
-2.07342
-1.9918
-1.85516
-1.69315
-1.52645
-1.35851
-1.10422
-0.959753
-0.978972
-2.6524
-3.46887
-3.64709
-3.69716
-3.74145
-3.71446
-3.75133
-3.75048
-3.75265
-3.73762
-3.66971
-3.4758
-3.12852
-2.73344
-2.27202
-1.88138
-1.76794
-1.77959
-0.564984
-0.585815
-0.688038
-0.76026
-0.877121
-1.45477
-1.80354
-2.06142
-2.18073
-2.27007
-2.28776
-2.2877
-2.36187
-2.4207
-2.38445
-2.22408
-2.0373
-1.86657
-1.67143
-1.39224
-1.14448
-0.894
-2.16268
-3.19746
-3.66443
-3.74762
-3.73084
-3.76711
-3.88118
-3.8941
-3.94957
-3.90389
-3.7871
-3.57983
-3.21166
-2.66373
-2.0263
-1.52466
-1.41786
-1.51276
-0.581282
-0.650956
-0.766296
-0.892941
-1.24048
-1.7845
-2.06475
-2.28567
-2.43245
-2.5645
-2.63622
-2.69328
-2.84301
-2.88416
-2.83842
-2.76862
-2.67357
-2.64272
-2.629
-2.33173
-1.61596
-0.970654
-1.49612
-2.25342
-3.19487
-3.57346
-3.65861
-3.74526
-3.82878
-3.96305
-3.93673
-3.89264
-3.78624
-3.58835
-3.25584
-2.69771
-1.94574
-1.38944
-1.24853
-1.36774
-0.643902
-0.650643
-0.804436
-1.27394
-1.6604
-1.92585
-2.17395
-2.41652
-2.62466
-2.79746
-2.95699
-3.14367
-3.29592
-3.37838
-3.43035
-3.42945
-3.36879
-3.36912
-3.11519
-2.38466
-1.50412
-0.953524
-1.09106
-1.49917
-2.29164
-3.15831
-3.51899
-3.73395
-3.8401
-3.89355
-4.07221
-3.9422
-3.86913
-3.64255
-3.25354
-2.72379
-1.96292
-1.35112
-1.14076
-1.24647
-0.58655
-0.626389
-1.01765
-1.49295
-1.72396
-2.07114
-2.34636
-2.53208
-2.76768
-3.01742
-3.14304
-3.43217
-3.63722
-3.79585
-3.91322
-3.92414
-3.76267
-3.46819
-2.59045
-1.75707
-1.25877
-1.05663
-1.04819
-1.02074
-1.33632
-2.46135
-3.29859
-3.70234
-3.86233
-3.91752
-3.89662
-3.88278
-3.67125
-3.40119
-3.14711
-2.66857
-2.00067
-1.31158
-1.06438
-1.13061
-0.629192
-0.78681
-1.16265
-1.55874
-1.74096
-2.0972
-2.34012
-2.67946
-2.88777
-2.99565
-3.25624
-3.58353
-3.83439
-4.04836
-4.18379
-4.0269
-3.45362
-2.41587
-1.40876
-1.10125
-1.09637
-1.17701
-1.16887
-0.866622
-0.73741
-1.53474
-2.86701
-3.62371
-3.99208
-3.99477
-4.07451
-4.04637
-4.01119
-3.86264
-3.27322
-2.66349
-1.99008
-1.37221
-0.998725
-1.05994
-0.705453
-0.88356
-1.189
-1.52042
-1.78385
-2.00127
-2.30609
-2.57661
-2.71063
-2.9864
-3.24692
-3.54418
-3.81802
-4.03189
-4.00677
-3.32579
-2.02758
-0.783255
-0.484982
-0.63271
-0.937977
-1.23019
-1.30155
-0.936663
-0.663445
-0.854587
-2.37785
-3.59992
-3.95099
-4.35773
-4.23276
-3.92472
-3.48941
-3.27892
-3.10047
-2.62421
-1.94936
-1.31456
-0.924381
-0.954973
-0.831948
-0.967663
-1.18624
-1.44223
-1.69613
-1.92762
-2.1313
-2.43083
-2.48635
-2.68844
-2.87837
-3.18477
-3.4206
-3.54769
-2.90665
-1.43528
-0.0836019
0.302274
0.14324
-0.258015
-0.73671
-1.1982
-1.40985
-1.12085
-0.888294
-0.951112
-1.7534
-3.34099
-4.31709
-4.341
-4.193
-4.19871
-4.00474
-3.70286
-3.13897
-2.46931
-1.89164
-1.29089
-0.846186
-0.885282
-0.924852
-1.00499
-1.17387
-1.37201
-1.54491
-1.71719
-1.8788
-1.93966
-2.01673
-2.24993
-2.35582
-2.30721
-2.53449
-2.05532
-0.552018
0.75923
1.13497
1.01158
0.625745
0.102755
-0.46633
-1.07734
-1.49071
-1.3453
-1.20629
-1.26705
-1.58279
-2.75865
-3.82398
-4.14343
-4.47387
-4.23661
-3.89038
-3.53554
-3.0603
-2.72881
-1.84124
-1.16572
-0.803686
-0.744178
-1.00839
-1.05133
-1.17482
-1.28639
-1.39303
-1.47947
-1.55723
-1.47543
-1.41045
-1.39423
-1.27865
-1.15771
-0.709206
0.613333
1.58721
1.97096
1.849
1.52287
1.03057
0.451995
-0.153992
-0.902718
-1.55776
-1.57145
-1.54081
-1.60792
-1.89134
-2.3652
-3.89718
-4.45338
-4.32597
-4.02957
-3.65676
-3.23654
-2.79366
-2.38081
-1.99912
-1.14589
-0.637969
-0.591036
-1.03876
-1.07323
-1.1816
-1.24949
-1.28782
-1.24026
-1.14155
-0.915236
-0.655402
-0.455547
0.153818
1.27913
1.96113
2.49807
2.64995
2.66483
2.34587
1.90495
1.36541
0.766858
0.142202
-0.743643
-1.63501
-1.7859
-1.7849
-1.9212
-1.86844
-2.23176
-2.82361
-3.85027
-3.90342
-3.54215
-3.10817
-2.65557
-2.21534
-1.91333
-1.44292
-1.16549
-0.538259
-0.398421
-0.921844
-0.949781
-1.06431
-1.11155
-1.13069
-0.9671
-0.707942
-0.167982
0.550165
1.35378
2.28094
3.03619
3.25945
3.31098
3.11108
3.02895
2.65258
2.14035
1.58921
0.974622
0.315121
-0.674801
-1.75029
-1.99012
-1.97419
-1.87927
-2.0516
-2.25329
-2.56002
-2.99254
-3.15849
-2.79994
-2.33158
-1.84452
-1.36419
-1.07199
-0.791435
-0.678953
-0.215551
-0.170528
-0.850474
-0.875603
-0.940586
-0.93138
-0.941878
-0.656107
-0.146706
0.985433
2.03402
2.77158
3.30302
3.52908
3.43751
3.25052
3.05167
2.80845
2.54763
2.1092
1.55656
0.965071
0.297025
-0.666301
-1.79934
-2.1853
-2.22959
-2.15916
-2.13756
-2.32487
-2.54423
-2.63807
-2.4045
-1.94167
-1.39824
-0.883551
-0.414352
-0.131995
0.0554245
-0.00224259
-0.126307
0.0803724
-0.700683
-0.736884
-0.749348
-0.693344
-0.656098
-0.290231
0.476604
1.49026
2.27597
2.6683
2.75775
2.70865
2.53058
2.34623
2.18243
1.96248
1.79668
1.51965
1.11129
0.611463
0.0272112
-0.790846
-1.8198
-2.32249
-2.37752
-2.23011
-2.31613
-2.4767
-2.65495
-2.78699
-2.34899
-1.5876
-0.861803
-0.307462
0.130912
0.543693
0.776773
0.617344
0.269456
0.266589
-1.57283
-1.40588
-1.28206
-1.14117
-0.998123
-0.72393
-0.250938
0.0219568
0.352493
0.578947
0.700502
0.778949
0.791796
0.754045
0.668782
0.592816
0.429234
0.433652
0.17972
-0.142888
-0.558315
-1.135
-1.91242
-2.43278
-2.46092
-2.33162
-2.41324
-2.57327
-2.75929
-2.91231
-2.91968
-2.0035
-0.645613
0.202723
0.795543
1.24415
1.509
1.09616
0.80512
0.529782
-2.58101
-2.43323
-2.42781
-2.37807
-2.3334
-2.29672
-2.22488
-2.56366
-2.52819
-2.24508
-1.91443
-1.59134
-1.33054
-1.10803
-0.996854
-0.918783
-0.982961
-0.977121
-0.96416
-1.18629
-1.42566
-1.76861
-2.23209
-2.64628
-2.49675
-2.40293
-2.43647
-2.58083
-2.79021
-3.009
-3.18726
-3.09225
-1.76638
-0.0676559
1.01369
1.52306
1.81592
1.38835
0.897268
0.558062
-2.58034
-2.60284
-2.72932
-2.80733
-2.91482
-2.97939
-3.18727
-3.86136
-4.36319
-4.34633
-4.07265
-3.65438
-3.22504
-2.81833
-2.52422
-2.29691
-2.19872
-2.18512
-2.21759
-2.18719
-2.35837
-2.52627
-2.75749
-3.0003
-2.72609
-2.50402
-2.4347
-2.52771
-2.73826
-3.00626
-3.29251
-3.51252
-3.12819
-1.8846
-0.812705
-0.0298224
0.491356
0.660777
0.488718
0.39334
-2.74831
-2.83881
-2.99915
-3.12084
-3.34004
-3.42735
-3.71479
-4.37271
-5.16099
-5.51743
-5.4426
-5.09415
-4.64376
-4.20202
-3.86647
-3.61502
-3.45236
-3.32953
-3.2269
-3.1724
-3.07102
-3.15968
-3.24518
-3.13912
-2.9126
-2.60771
-2.42852
-2.45322
-2.66013
-2.96838
-3.31136
-3.61909
-3.57766
-3.12404
-2.69881
-2.35271
-2.06932
-1.82774
-1.97578
-2.32883
-2.76674
-3.00381
-3.20513
-3.36613
-3.60892
-3.79835
-4.11856
-4.67677
-5.44899
-6.02387
-6.18666
-5.99548
-5.62672
-5.23326
-4.9218
-4.60219
-4.18982
-3.93262
-3.81196
-3.67378
-3.59106
-3.45305
-3.53466
-3.31899
-3.10226
-2.80158
-2.53996
-2.4423
-2.59567
-2.94268
-3.35679
-3.72785
-3.89962
-3.84769
-3.84076
-3.86645
-3.92356
-3.80273
-3.58486
-3.3449
-2.93395
-3.16623
-3.4032
-3.58978
-3.8484
-4.09236
-4.42336
-4.90869
-5.56116
-6.16992
-6.47727
-6.45477
-6.19063
-5.80401
-5.35966
-4.73624
-4.1223
-3.82472
-3.74852
-3.69538
-3.63742
-3.54791
-3.50701
-3.41426
-3.34756
-3.11546
-2.87893
-2.71893
-2.74236
-2.98535
-3.38757
-3.78641
-4.09662
-4.32403
-4.65972
-4.95042
-5.31558
-5.26433
-4.91981
-4.17818
-3.14551
-3.27812
-3.58803
-3.79931
-4.06848
-4.36869
-4.63299
-5.07705
-5.60749
-6.12229
-6.451
-6.52788
-6.35522
-5.94535
-5.34752
-4.67453
-3.99068
-3.63892
-3.56837
-3.53285
-3.52184
-3.52979
-3.44135
-3.5613
-3.55407
-3.51833
-3.49607
-3.53039
-3.66582
-3.88614
-4.1372
-4.38595
-4.68081
-4.95595
-5.4111
-5.77031
-6.33947
-6.44607
-6.11418
-4.97463
-3.26624
-3.23043
-3.69614
-3.96316
-4.24619
-4.49981
-4.77806
-5.18866
-5.61608
-6.03024
-6.29615
-6.36939
-6.24381
-5.90817
-5.34345
-4.72185
-3.96645
-3.47512
-3.38549
-3.37525
-3.40855
-3.48935
-3.50172
-3.68914
-3.97567
-4.09784
-4.2057
-4.60797
-4.98582
-5.29348
-5.52754
-5.6938
-5.88746
-6.00783
-6.36394
-6.54373
-7.09221
-7.11077
-7.10098
-6.23198
-3.44575
-3.22584
-3.70934
-4.02546
-4.35714
-4.64478
-4.93163
-5.26064
-5.59402
-5.91356
-6.12344
-6.17811
-6.08417
-5.85696
-5.44406
-4.89734
-4.13789
-3.40522
-3.22536
-3.20458
-3.27179
-3.41633
-3.53237
-3.7538
-4.15923
-4.63588
-4.9947
-5.11277
-5.38101
-5.5161
-5.5468
-5.52075
-5.55255
-5.4883
-5.68619
-5.6103
-6.08728
-5.94756
-6.33906
-6.08257
-3.60062
-3.33334
-3.70612
-4.077
-4.40116
-4.706
-5.00873
-5.28301
-5.54768
-5.78768
-5.94401
-5.98848
-5.92609
-5.80137
-5.5824
-5.1298
-4.4043
-3.46464
-3.18973
-3.11918
-3.21051
-3.34207
-3.43569
-3.70509
-4.2854
-4.93918
-5.341
-5.43434
-5.44012
-5.41441
-5.45939
-5.38762
-5.3828
-5.16609
-5.24627
-4.81493
-5.02373
-4.42537
-4.74433
-4.32031
-3.71976
-3.47718
-3.70655
-4.16874
-4.47569
-4.73038
-5.0472
-5.29578
-5.51574
-5.69814
-5.83063
-5.8895
-5.88249
-5.8153
-5.68623
-5.37947
-4.72762
-3.63101
-3.13332
-3.10151
-3.11915
-3.19465
-3.28883
-3.54133
-4.35375
-5.21719
-5.36237
-5.42073
-5.36479
-5.40263
-5.35163
-5.24774
-5.24733
-4.95535
-4.99803
-4.37148
-4.55483
-3.64412
-3.88841
-3.52672
-3.81661
-3.61621
-3.71341
-4.22028
-4.52627
-4.74857
-4.96025
-5.23093
-5.45201
-5.62095
-5.75095
-5.82921
-5.86036
-5.85503
-5.7962
-5.56175
-5.01527
-3.84892
-3.18591
-3.02634
-3.05459
-3.09117
-3.14011
-3.32607
-4.35156
-5.2879
-5.30054
-5.32607
-5.28751
-5.26392
-5.29607
-5.21992
-5.22857
-4.81708
-4.92878
-4.12883
-4.42211
-3.30018
-3.55833
-2.996
-3.89643
-3.76451
-3.76626
-4.23377
-4.57654
-4.80183
-4.99847
-5.23075
-5.38927
-5.57025
-5.70845
-5.80174
-5.85812
-5.88833
-5.85052
-5.73173
-5.35538
-4.07891
-3.03445
-2.92153
-3.01973
-3.01465
-3.02332
-3.12181
-4.2267
-5.31594
-5.31797
-5.24025
-5.22793
-5.13809
-5.2454
-4.96975
-5.23189
-4.79506
-4.91564
-4.05025
-4.46859
-3.23668
-3.61118
-2.80093
-3.9525
-3.89432
-3.81754
-4.12246
-4.51847
-4.73838
-4.94423
-5.13203
-5.3335
-5.4362
-5.58935
-5.70301
-5.78857
-5.84373
-5.84468
-5.79272
-5.61033
-4.38385
-2.88175
-2.79557
-2.89619
-2.93567
-2.95373
-2.98261
-4.051
-5.40155
-5.32266
-5.23506
-5.16215
-5.14066
-5.09964
-5.01009
-4.9423
-4.6719
-5.06542
-3.99043
-4.68315
-3.24061
-3.83111
-2.72129
-3.98994
-4.01278
-3.96657
-4.09681
-4.53122
-4.79795
-4.99126
-5.15904
-5.34102
-5.48223
-5.58152
-5.64342
-5.70434
-5.82539
-5.79391
-5.66543
-5.54649
-4.51323
-2.76453
-2.7975
-2.78372
-2.86233
-2.9276
-2.92957
-3.88398
-5.50098
-5.33433
-5.20949
-5.12961
-5.07258
-5.10344
-4.83212
-5.04098
-4.43756
-4.86472
-4.17994
-4.91804
-3.31226
-4.14673
-2.66782
-4.00657
-4.01337
-4.06823
-3.90574
-4.29162
-4.59025
-4.80725
-4.9667
-5.13022
-5.32939
-5.46375
-5.58064
-5.68649
-5.60739
-5.68459
-5.61202
-5.4723
-4.64783
-2.60843
-2.58594
-2.58457
-2.73346
-2.87511
-2.931
-3.78432
-5.54745
-5.30298
-5.1795
-5.05529
-4.93246
-5.0662
-4.75492
-4.92755
-4.39681
-5.03764
-3.60272
-5.28189
-3.00695
-4.26055
-2.43335
-4.24279
-4.23046
-4.2891
-4.29497
-4.32514
-4.74141
-4.91132
-5.03874
-5.18933
-5.3431
-5.50595
-5.6413
-5.69131
-5.77777
-5.80135
-5.66482
-5.46803
-4.74023
-2.53002
-2.33721
-2.38684
-2.59784
-2.81625
-2.98049
-3.81408
-5.62703
-5.35959
-5.16377
-4.98716
-4.81704
-4.97882
-4.67727
-4.98118
-4.13698
-5.11187
-3.49398
-5.14146
-2.99358
-4.16524
-1.78688
-3.87419
-3.88946
-4.02671
-4.03972
-4.09539
-4.35649
-4.55205
-4.66525
-4.8323
-5.01832
-5.20225
-5.3424
-5.50745
-5.56611
-5.68886
-5.61847
-5.44062
-4.60616
-2.1816
-1.8813
-1.96143
-2.24703
-2.59629
-2.90825
-3.77955
-5.58234
-5.406
-5.14522
-4.94566
-4.66885
-4.79665
-4.54765
-4.99365
-3.9995
-5.11834
-2.96808
-4.78523
-1.87102
-3.30538
-0.101952
-4.19228
-4.40059
-4.20673
-4.52228
-4.51922
-4.72334
-4.78822
-4.85108
-5.00458
-5.16271
-5.31869
-5.52784
-5.68313
-5.83616
-6.0244
-5.90512
-5.90495
-4.74144
-1.92288
-1.59574
-1.57918
-1.97901
-2.43603
-2.89407
-3.94896
-5.72399
-5.5973
-5.20671
-4.95703
-4.59256
-4.78216
-4.3953
-5.16139
-3.97327
-5.44054
-2.9015
-4.63562
-0.703472
-2.09588
2.09223
-4.90894
-4.31329
-4.52917
-4.05051
-4.28902
-4.20788
-4.32704
-4.37826
-4.58847
-4.75145
-5.03664
-5.30426
-5.60531
-5.82929
-6.05823
-6.20068
-5.98957
-4.65573
-1.83107
-1.26315
-1.33461
-1.66386
-2.1364
-2.69996
-3.98079
-5.71394
-5.678
-5.17735
-4.87575
-4.42077
-4.62538
-4.14706
-5.04458
-3.81925
-5.39306
-2.28375
-3.34925
2.76002
3.48163
11.975
-4.14941
-5.10488
-4.82828
-5.0125
-4.60206
-4.55153
-4.55158
-4.54194
-4.69525
-4.83112
-5.09689
-5.4636
-5.84383
-6.16976
-6.62638
-6.75788
-6.32997
-4.56163
-1.6517
-0.850101
-1.00945
-1.29869
-1.95746
-2.71399
-4.21498
-5.85584
-5.8319
-5.25332
-4.89568
-4.28774
-4.58062
-4.07541
-5.28646
-4.04378
-5.98354
-2.51483
-3.29521
5.50297
12.4359
26.5398
-7.05092
-4.2135
-4.8309
-4.37757
-4.38743
-4.1784
-4.24741
-4.26321
-4.44279
-4.63047
-4.93344
-5.31189
-5.84865
-6.46366
-6.77927
-7.00796
-6.34868
-4.21458
-1.29184
-0.314581
-0.455517
-0.83104
-1.67944
-2.57606
-4.26873
-5.92117
-6.01855
-5.32919
-4.90129
-4.16205
-4.48729
-3.91104
-5.24727
-4.02927
-5.97216
-1.98052
-1.29689
12.2138
27.2062
46.7719
-0.22173
-0.249836
-0.280516
-0.382351
-0.514205
-0.57111
-0.662705
-0.726451
-0.746347
-0.827563
-0.90309
-0.969293
-0.92406
-0.879336
-0.747497
-0.793293
-0.804277
-0.717211
-0.628887
-0.484014
-0.5761
-0.626719
-2.24821
-2.47075
-2.60154
-2.45987
-2.22438
-2.1101
-2.03248
-1.95424
-1.90316
-1.85294
-1.89514
-1.99022
-2.09146
-2.08989
-2.11065
-2.05617
-2.05175
-2.04591
-0.276277