/*--------------------------------*- C++ -*----------------------------------*\
| =========                 |                                                 |
| \\      /  F ield         | OpenFOAM: The Open Source CFD Toolbox           |
|  \\    /   O peration     | Version:  v1806                                 |
|   \\  /    A nd           | Web:      www.OpenFOAM.com                      |
|    \\/     M anipulation  |                                                 |
\*---------------------------------------------------------------------------*/
FoamFile
{
    version     2.0;
    format      ascii;
    class       surfaceScalarField;
    location    "0.0165";
    object      phi;
}
// * * * * * * * * * * * * * * * * * * * * * * * * * * * * * * * * * * * * * //

dimensions      [0 3 -1 0 0 0 0];
oriented        oriented;


internalField   nonuniform List<scalar> 
187200
(
7.71117e-06
3.61273e-07
-8.07308e-06
3.2488e-05
-1.01834e-05
-1.45933e-05
5.26676e-05
-7.46359e-06
-1.27159e-05
7.38008e-05
-8.62838e-06
-1.25047e-05
9.27082e-05
-6.61307e-06
-1.22943e-05
0.000110054
-4.35954e-06
-1.2986e-05
0.000125757
-1.66364e-06
-1.404e-05
0.000138335
2.90975e-06
-1.54881e-05
0.000149321
5.53348e-06
-1.65186e-05
0.000150313
1.31079e-05
-1.41008e-05
0.000153604
1.29117e-05
-1.62023e-05
0.000150259
1.97384e-05
-1.63936e-05
0.000135834
2.61996e-05
-1.17743e-05
0.000103426
3.64735e-05
-4.06603e-06
5.52467e-05
3.69299e-05
1.12494e-05
5.25275e-06
2.63221e-05
2.36718e-05
-6.03876e-05
3.5205e-05
3.04351e-05
-0.000135201
6.3104e-05
1.17094e-05
-0.000224018
9.64324e-05
-7.6156e-06
-0.000363564
0.000141685
-2.13809e-06
-0.000506819
0.000174543
-3.12883e-05
-0.000660698
0.000231645
-7.77649e-05
-0.000745559
0.000258525
-0.000173664
-0.000773284
0.000308228
-0.000280503
-0.000748733
0.00034197
-0.000366521
-0.000677092
0.000372097
-0.000443739
-0.000571768
0.000394848
-0.000500171
-0.000434841
0.00040105
-0.000537977
-0.000276582
0.000390537
-0.000548795
-0.000114124
0.000364876
-0.000527333
3.77273e-06
0.000333531
-0.000451428
8.06866e-05
0.000290039
-0.000366952
0.000106132
0.000228555
-0.000254001
9.2794e-05
0.000170315
-0.000156976
6.26055e-05
0.000120453
-9.02644e-05
3.69263e-05
8.12228e-05
-5.55437e-05
1.66679e-05
5.58087e-05
-3.55499e-05
4.63316e-06
4.13025e-05
-2.92675e-05
-2.24334e-06
2.9642e-05
-2.27655e-05
1.56111e-05
-1.78544e-05
1.4289e-05
-2.24477e-06
-1.16828e-05
4.95942e-05
-2.33168e-05
-2.21715e-05
8.47551e-05
-1.83179e-05
-2.43064e-05
0.000114415
-1.22553e-05
-2.60331e-05
0.000137263
-1.43342e-06
-2.80278e-05
0.000150572
1.31206e-05
-3.0789e-05
0.000157989
2.74355e-05
-3.65158e-05
0.000156102
4.73077e-05
-4.25115e-05
0.000148344
6.60799e-05
-5.27885e-05
0.000133232
8.86135e-05
-6.03939e-05
9.70269e-05
0.000123896
-7.47792e-05
3.67944e-05
0.000169532
-8.95612e-05
-4.91562e-05
0.000206551
-9.44007e-05
-0.000160211
0.00025413
-0.000106601
-0.000309426
0.00031633
-0.000130185
-0.00050302
0.000390141
-0.000170226
-0.000711299
0.000467801
-0.000224318
-0.000910428
0.000549599
-0.000287366
-0.00108891
0.000636695
-0.000361777
-0.00124557
0.000738481
-0.000440145
-0.0013501
0.000815898
-0.000536824
-0.00143049
0.000935046
-0.000623011
-0.00144842
0.00100707
-0.000730609
-0.00140806
0.00108769
-0.000819819
-0.00130953
0.0011371
-0.000893665
-0.00115484
0.00116507
-0.000947669
-0.000958186
0.00117018
-0.000971984
-0.000732546
0.00114211
-0.000966705
-0.000509709
0.00108895
-0.000921255
-0.000288213
0.000993432
-0.000850052
-9.7575e-05
0.00087052
-0.000727627
5.9175e-05
0.00073147
-0.000598181
0.000134769
0.000592516
-0.000439553
0.000157819
0.000460015
-0.000312749
0.000140844
0.000343802
-0.000206374
0.00010844
0.000255282
-0.000141654
7.44338e-05
0.000190998
-0.000101182
4.53227e-05
0.000148497
-7.80835e-05
1.84103e-05
0.00011293
-5.63762e-05
6.75713e-05
-3.35498e-05
1.99176e-05
-7.56786e-06
-1.45944e-05
5.88828e-05
-3.05786e-05
-3.17031e-05
9.88088e-05
-1.78463e-05
-4.03975e-05
0.000125202
4.85914e-06
-4.35075e-05
0.000144052
2.85438e-05
-4.8827e-05
0.000148312
6.59361e-05
-5.70753e-05
0.000143494
0.000100301
-6.80481e-05
0.000127066
0.000152083
-8.83471e-05
9.80182e-05
0.000209503
-0.000114375
3.80859e-05
0.000283615
-0.000135069
-5.22482e-05
0.000361722
-0.000147492
-0.000166947
0.000447507
-0.000163277
-0.000333259
0.00055208
-0.000179216
-0.000523412
0.000658308
-0.000214025
-0.000726703
0.000769084
-0.000249463
-0.000920674
0.000875931
-0.000291819
-0.00110417
0.000990443
-0.000339149
-0.0012725
0.00111061
-0.000392679
-0.00141702
0.00123006
-0.000448845
-0.00152915
0.00135407
-0.000503457
-0.0016105
0.00146266
-0.000565411
-0.00164674
0.00157612
-0.000604839
-0.00163926
0.00165109
-0.000651498
-0.00157634
0.00171044
-0.000685675
-0.00146768
0.00173689
-0.000708451
-0.00131773
0.00173067
-0.000715546
-0.00113878
0.00169097
-0.000699739
-0.000940555
0.00161207
-0.000668184
-0.000732626
0.00150355
-0.000622522
-0.000527761
0.00135379
-0.000565227
-0.000353242
0.0011947
-0.000498702
-0.00020435
0.00100436
-0.000421782
-8.7504e-05
0.000815981
-0.000340311
-6.72005e-06
0.000648168
-0.000268937
3.06477e-05
0.000503683
-0.000197249
4.51744e-05
0.000395398
-0.000154643
4.38286e-05
0.000314964
-0.00012262
3.44142e-05
0.000257453
-9.95411e-05
1.62752e-05
0.000200492
-6.94224e-05
0.000119134
-3.52876e-05
2.06793e-05
-5.10118e-06
-2.31459e-05
6.05574e-05
-2.1099e-05
-4.93576e-05
0.00010136
4.82363e-06
-6.3472e-05
0.000125581
4.7123e-05
-6.64848e-05
0.000136456
9.58839e-05
-7.82152e-05
0.000127475
0.000164882
-8.99655e-05
0.000105175
0.00023747
-0.000114869
7.07556e-05
0.000331236
-0.000144734
1.1584e-05
0.00043752
-0.000168846
-7.48751e-05
0.000553265
-0.000183191
-0.000198659
0.000680178
-0.000194673
-0.000359073
0.000810758
-0.000202837
-0.000529292
0.00094135
-0.000219051
-0.00069834
0.00106799
-0.000240637
-0.000865786
0.00119652
-0.000259986
-0.00102886
0.00131911
-0.0002801
-0.00117872
0.00143922
-0.000298922
-0.00130694
0.00155445
-0.000315619
-0.00141316
0.00166388
-0.000327603
-0.00149454
0.00176392
-0.000328484
-0.00154735
0.0018443
-0.000328827
-0.00157821
0.00191816
-0.000311179
-0.00157659
0.00195427
-0.000304801
-0.00152834
0.00195786
-0.000295667
-0.0014468
0.00193735
-0.000282006
-0.00133639
0.00188568
-0.000265417
-0.0012077
0.00180474
-0.000242463
-0.00106509
0.00169217
-0.000222698
-0.000912928
0.00155285
-0.000201469
-0.000756627
0.00138869
-0.000191193
-0.000590264
0.00121799
-0.000189652
-0.000433674
0.00104421
-0.000196439
-0.000300944
0.000875882
-0.000192632
-0.000188128
0.000721699
-0.000186348
-0.000105203
0.000589221
-0.000168462
-4.49538e-05
0.000486042
-0.000150894
-3.28854e-06
0.000406164
-0.000132865
1.73671e-05
0.000346737
-0.000109939
1.36847e-05
0.000279419
-7.5245e-05
0.000167352
-3.45332e-05
2.18823e-05
1.13175e-05
-3.8301e-05
6.69388e-05
1.46659e-05
-8.08213e-05
0.00010482
6.33617e-05
-9.64197e-05
0.000128949
0.000125116
-0.000102121
0.00012611
0.000207316
-0.000108594
0.000109043
0.000307671
-0.000125722
8.06275e-05
0.000423801
-0.000157915
3.77285e-05
0.000558938
-0.000184803
-2.91293e-05
0.000699281
-0.000194903
-0.000121548
0.000846942
-0.000201258
-0.000241432
0.000999246
-0.000199184
-0.000386128
0.00114732
-0.000191865
-0.000536721
0.00128295
-0.000191007
-0.000678662
0.00139928
-0.000189349
-0.000810666
0.00150952
-0.000181004
-0.000935862
0.00161103
-0.00016673
-0.00104969
0.00170192
-0.000148862
-0.00114396
0.00177546
-0.000126735
-0.00122627
0.00183115
-8.49555e-05
-0.00129246
0.00187186
-4.17453e-05
-0.00133891
0.00189575
-5.00236e-06
-0.00138774
0.00192895
3.80447e-05
-0.00140587
0.00190633
6.60661e-05
-0.00139208
0.00185593
8.81376e-05
-0.00135419
0.00180865
9.08164e-05
-0.00129911
0.00174352
8.70786e-05
-0.00123106
0.00165779
7.89028e-05
-0.00115714
0.00155239
6.58659e-05
-0.00106964
0.00142645
3.88922e-05
-0.000958828
0.00128416
-6.28281e-06
-0.000826404
0.00113615
-5.05806e-05
-0.000679352
0.00098687
-8.97139e-05
-0.000523011
0.000850877
-0.000131336
-0.000374815
0.00072725
-0.000153746
-0.000244992
0.000624232
-0.000164833
-0.000139044
0.00054176
-0.000161667
-5.98577e-05
0.000474624
-0.000147646
-8.00077e-06
0.000417574
-0.000122695
7.93788e-06
0.000342895
-7.94148e-05
0.000208049
-3.27594e-05
2.49678e-05
5.04281e-05
-6.40784e-05
7.06309e-05
8.72326e-05
-0.00011823
0.000123858
0.000151567
-0.000141432
0.000143797
0.000238872
-0.000133695
0.000133674
0.000353776
-0.000136337
0.00011288
0.000488415
-0.00015995
8.70849e-05
0.000639396
-0.0001898
4.91931e-05
0.000794133
-0.000197303
-1.37459e-05
0.000954993
-0.000192774
-9.49092e-05
0.00110944
-0.000181337
-0.000188993
0.0012575
-0.000164168
-0.00028518
0.00138717
-0.000143669
-0.000387713
0.00150568
-0.000120196
-0.00050325
0.00160732
-9.24975e-05
-0.000624151
0.00168357
-5.315e-05
-0.000736292
0.00172456
-1.38231e-06
-0.00082523
0.00174735
4.34985e-05
-0.000906162
0.00176912
8.72635e-05
-0.000980748
0.00177268
0.000133051
-0.00105527
0.00176311
0.000183268
-0.00111361
0.00174109
0.00021299
-0.00117236
0.00173792
0.000249783
-0.00120602
0.00167618
0.000263814
-0.0012362
0.00160936
0.000276743
-0.00125107
0.00154553
0.000277994
-0.00125487
0.00148163
0.000265684
-0.00124703
0.00140965
0.000240303
-0.00123111
0.00133033
0.000206124
-0.0011999
0.00123681
0.000158433
-0.00113176
0.00113835
7.76699e-05
-0.0010277
0.00102997
2.11261e-06
-0.000890569
0.000917474
-6.77324e-05
-0.000730864
0.000811853
-0.000120681
-0.000555706
0.000718608
-0.000166516
-0.000386387
0.000639469
-0.000184556
-0.000235917
0.000578402
-0.000187112
-0.000115285
0.000524423
-0.000170431
-3.22128e-05
0.000472769
-0.000138268
3.50846e-06
0.000395033
-8.78585e-05
0.000243511
-3.19545e-05
3.37301e-05
0.000113567
-9.68684e-05
9.72978e-05
0.000189625
-0.00016596
0.000163245
0.000271306
-0.000185687
0.000176971
0.000390237
-0.00016509
0.000165395
0.000528116
-0.000162765
0.000154633
0.000682266
-0.000183089
0.000138686
0.000849341
-0.000193998
0.000106809
0.00101076
-0.000184747
5.61159e-05
0.00116785
-0.000162159
-8.52576e-06
0.00130995
-0.000135866
-8.12735e-05
0.00143483
-0.000104583
-0.000160452
0.00153863
-7.22754e-05
-0.000238915
0.00161923
-3.50917e-05
-0.000314755
0.0016681
1.50615e-05
-0.000391589
0.00169346
6.69526e-05
-0.000482335
0.00169554
0.000119768
-0.000581194
0.00167479
0.000171423
-0.000672579
0.00163878
0.000221733
-0.000755825
0.00158378
0.000272146
-0.000838782
0.00153451
0.00031156
-0.000917533
0.00148131
0.000338539
-0.000984288
0.00144708
0.000357588
-0.00104278
0.00138079
0.000353882
-0.00111195
0.00132986
0.000348677
-0.00117275
0.00127058
0.000335743
-0.00122525
0.00122367
0.000310452
-0.00126631
0.00118145
0.000269262
-0.00129555
0.00113456
0.000225013
-0.00130577
0.0010788
0.000168238
-0.00127599
0.00101675
9.18199e-05
-0.00119649
0.000943391
7.08381e-06
-0.00107628
0.000860095
-6.28354e-05
-0.000913256
0.000778555
-0.000129724
-0.000723235
0.000707226
-0.000178639
-0.000518156
0.00065143
-0.000217041
-0.000329081
0.000605859
-0.000216532
-0.000170866
0.000567273
-0.000201066
-5.79725e-05
0.000520705
-0.000160829
-1.92977e-06
0.000440111
-0.00010112
0.000274822
-3.32408e-05
3.35839e-05
0.000205994
-0.000126011
0.000131987
0.000307344
-0.000216122
0.000205472
0.000420217
-0.000222395
0.000228356
0.00055902
-0.000191668
0.000225418
0.00071103
-0.000179976
0.000220244
0.000869954
-0.000182514
0.000215545
0.00103325
-0.000179213
0.000196968
0.00118584
-0.000156506
0.000158142
0.00132729
-0.000120622
0.000107904
0.00144247
-8.22872e-05
5.02251e-05
0.00153774
-4.52287e-05
-1.59279e-05
0.0016038
9.75676e-07
-8.30769e-05
0.00163939
4.69919e-05
-0.000155264
0.00164319
9.70941e-05
-0.000231596
0.0016184
0.000151391
-0.000309767
0.00156821
0.000205497
-0.000401353
0.00150576
0.000260615
-0.000493055
0.00142539
0.000305091
-0.000596147
0.00135163
0.000335251
-0.000695947
0.00128613
0.000348179
-0.000785372
0.00121766
0.000353075
-0.000856731
0.00116987
0.000348569
-0.000934499
0.00112131
0.000337245
-0.00102633
0.00109479
0.000326909
-0.0011262
0.00106243
0.000308023
-0.00121488
0.00102662
0.000285724
-0.00128814
0.00100954
0.00024518
-0.00134497
0.000984749
0.000206643
-0.0013815
0.000954224
0.000161101
-0.00138637
0.000911194
0.000110425
-0.00133409
0.000856229
3.48798e-05
-0.00123099
0.00079216
-3.51708e-05
-0.0010694
0.00072849
-0.000111522
-0.000871178
0.000677278
-0.000168272
-0.00064517
0.000640937
-0.000215515
-0.000417471
0.000622073
-0.000243913
-0.000223365
0.000597244
-0.000224077
-8.24371e-05
0.000562536
-0.00018276
-7.22907e-06
0.000481581
-0.000116677
0.000304384
-3.6791e-05
5.37296e-05
0.000306256
-0.000153992
0.000173528
0.000444803
-0.000257259
0.000263956
0.000586356
-0.000256567
0.000300594
0.00073019
-0.000207809
0.000307597
0.000881484
-0.000177457
0.000303514
0.00103727
-0.000163237
0.000299833
0.00118638
-0.000149445
0.000292952
0.00131605
-0.000123333
0.000274668
0.00143078
-8.5202e-05
0.000232427
0.00152088
-3.61655e-05
0.000178003
0.00157523
1.69333e-05
0.000116259
0.00159627
6.92787e-05
4.89335e-05
0.00159208
0.000114634
-2.35505e-05
0.00155176
0.000163918
-0.000101537
0.00148571
0.000210671
-0.000188608
0.00139996
0.000255319
-0.000288907
0.00130945
0.000296609
-0.000400253
0.00121389
0.000322844
-0.000513678
0.0011383
0.000326755
-0.000607362
0.00106199
0.000317821
-0.000697942
0.00100254
0.000305695
-0.000786346
0.000965581
0.000292697
-0.000881387
0.00093688
0.000279473
-0.000980448
0.000923117
0.00027073
-0.00109645
0.000919953
0.000258472
-0.00120898
0.000894595
0.000244559
-0.00130298
0.000881356
0.000222183
-0.00137837
0.000870779
0.00018936
-0.00143847
0.000846668
0.000167653
-0.0014701
0.000808203
0.00013463
-0.00144672
0.000759155
7.36846e-05
-0.00135717
0.000705305
-2.68914e-06
-0.00119873
0.000651661
-8.1615e-05
-0.000990672
0.000615367
-0.000146145
-0.000748764
0.000602465
-0.000203436
-0.000500495
0.000608264
-0.000234462
-0.000276812
0.000613582
-0.000240022
-0.00010744
0.000593123
-0.000199959
-1.39464e-05
0.000519078
-0.000130991
0.000332014
-4.15763e-05
6.84129e-05
0.000407231
-0.000169388
0.000209021
0.000594393
-0.000290197
0.000328188
0.000750815
-0.000283627
0.000385029
0.000890592
-0.000217242
0.000401555
0.00103158
-0.00016662
0.00039963
0.00117114
-0.000131938
0.000390376
0.00129958
-0.000103951
0.000380493
0.00140937
-8.34325e-05
0.000364937
0.00148776
-4.14246e-05
0.000341063
0.00153772
7.03018e-06
0.0002924
0.00156395
5.99363e-05
0.00022338
0.00155362
0.000111668
0.000152984
0.00150548
0.000156995
7.46815e-05
0.00142815
0.000201904
-1.42361e-05
0.00133449
0.000240145
-0.00012274
0.00123344
0.000275024
-0.000236904
0.00112834
0.000295275
-0.000354025
0.00103542
0.000295591
-0.000452703
0.000959925
0.000277047
-0.00054776
0.000900217
0.000256833
-0.00064778
0.00085919
0.000243372
-0.000748718
0.000834538
0.000231981
-0.00085358
0.00081735
0.000224392
-0.000957954
0.000804531
0.00022296
-0.00106814
0.000806658
0.000223484
-0.00118786
0.000796434
0.000217877
-0.00129259
0.000774928
0.000211164
-0.00138819
0.000762887
0.000203483
-0.00147169
0.000738807
0.000191369
-0.00152186
0.000698995
0.00015937
-0.0015246
0.000654819
0.000107083
-0.00145879
0.000614114
2.53768e-05
-0.00131668
0.000573741
-6.41922e-05
-0.00110242
0.000540675
-0.000139562
-0.00084724
0.000532275
-0.000184994
-0.000575626
0.000556243
-0.000219593
-0.000322081
0.000600791
-0.000240753
-0.000131173
0.000606856
-0.000204642
-2.04111e-05
0.000549652
-0.000141337
0.000357098
-4.54948e-05
8.27356e-05
0.000497926
-0.000173431
0.000249236
0.000738202
-0.000310309
0.000395713
0.000906739
-0.000302401
0.00047292
0.0010355
-0.000222111
0.000500288
0.00115696
-0.000152751
0.000500467
0.00127191
-0.000100956
0.000487818
0.00137665
-6.44181e-05
0.000469411
0.00145596
-2.81807e-05
0.000436423
0.00151009
1.06607e-05
0.000398659
0.0015337
4.17863e-05
0.000356675
0.00151542
9.05162e-05
0.000301207
0.00146952
0.000139569
0.0002285
0.00140048
0.000177711
0.000137858
0.00130152
0.000217274
3.2392e-05
0.00119256
0.000247392
-8.596e-05
0.00108538
0.000266411
-0.000207958
0.000982665
0.000267675
-0.000315852
0.000899154
0.00024416
-0.000414411
0.00083971
0.000218775
-0.000512796
0.000795591
0.000203011
-0.000611619
0.000764119
0.000193894
-0.000712482
0.000746047
0.000189355
-0.000813424
0.000728696
0.000189596
-0.000918003
0.000711964
0.000197145
-0.00102305
0.000703741
0.000207969
-0.00114036
0.000696267
0.000217472
-0.00126203
0.0006708
0.000225796
-0.00136909
0.000642293
0.000227652
-0.00147314
0.000624204
0.000218659
-0.00154826
0.000594325
0.000179793
-0.00158086
0.00056149
0.000125927
-0.00153882
0.000528213
4.38567e-05
-0.00141649
0.000496194
-4.47811e-05
-0.00120478
0.000468012
-0.000139049
-0.000933678
0.000454021
-0.000192848
-0.000639894
0.00048433
-0.000221872
-0.000372017
0.000548677
-0.000215763
-0.000154515
0.000604712
-0.000215358
-2.68511e-05
0.000568998
-0.00014701
0.000381323
-5.10765e-05
9.47057e-05
0.000571895
-0.000168675
0.000286834
0.000866914
-0.00032084
0.000459038
0.00104456
-0.00031002
0.000554632
0.00116099
-0.000221089
0.000592914
0.00125914
-0.000140459
0.000595914
0.00134326
-7.43428e-05
0.000582917
0.00141814
-2.84933e-05
0.000555676
0.00147061
1.25882e-05
0.000509293
0.00149688
5.95905e-05
0.000457005
0.00149104
9.49457e-05
0.00039557
0.00145199
0.000124868
0.000329156
0.00138382
0.000152111
0.000260199
0.00128605
0.000183383
0.000168257
0.00117881
0.000214659
4.95332e-05
0.00107473
0.000236557
-7.23863e-05
0.000964808
0.000242496
-0.000183596
0.000872018
0.000221857
-0.000288964
0.000809035
0.000195487
-0.000385302
0.00075874
0.000177309
-0.000478321
0.000721798
0.000166811
-0.000570467
0.000692052
0.000164215
-0.000663183
0.000672514
0.000166248
-0.000754869
0.00064747
0.000172913
-0.000854362
0.000624871
0.000186586
-0.00095936
0.000603113
0.000205626
-0.00106468
0.000586982
0.000214609
-0.00119369
0.000566177
0.000233633
-0.00131705
0.000525172
0.00024048
-0.00143409
0.000508724
0.000232512
-0.00153193
0.000490111
0.000202051
-0.00159734
0.00047399
0.000152919
-0.00158807
0.000451058
6.78842e-05
-0.0014979
0.000412249
-6.22671e-06
-0.0013098
0.000376207
-9.62973e-05
-0.0010322
0.000373775
-0.000197357
-0.000712021
0.000402988
-0.000238832
-0.000407629
0.000471529
-0.000227244
-0.000175593
0.000565742
-0.000193067
-3.58809e-05
0.00057584
-0.000146553
0.0004003
-5.48594e-05
0.00010295
0.000626355
-0.000157411
0.000316654
0.000973372
-0.000320162
0.000514095
0.00116095
-0.000313833
0.000628911
0.00126377
-0.000217592
0.000675544
0.00133647
-0.000123964
0.000679131
0.00139337
-5.37001e-05
0.000665564
0.00143593
-4.22688e-06
0.00062824
0.00145817
4.97679e-05
0.00057625
0.00146028
8.85878e-05
0.000512324
0.00143387
0.000121097
0.00043683
0.0013786
0.000148878
0.000353085
0.00129678
0.000170787
0.000261048
0.00119373
0.000184359
0.000157362
0.00107773
0.00020476
4.8611e-05
0.00096715
0.000216327
-5.90866e-05
0.000867023
0.000205483
-0.000169585
0.000799605
0.000182911
-0.000262857
0.000740287
0.00016202
-0.000351413
0.000696511
0.000150785
-0.000434969
0.000659245
0.000146109
-0.000516789
0.000625817
0.000148055
-0.000595916
0.000598259
0.000153382
-0.000676149
0.000563745
0.000163958
-0.000766621
0.000534391
0.000180951
-0.000863971
0.000503369
0.000197093
-0.000967769
0.000474881
0.0002159
-0.00108917
0.000453548
0.000234026
-0.00123124
0.000420522
0.000246721
-0.00134944
0.00038593
0.000240995
-0.00146753
0.000390403
0.000217795
-0.00156533
0.000385171
0.000186618
-0.00159755
0.000343822
0.000139456
-0.00155309
0.00029707
7.07267e-05
-0.0014077
0.000255002
-2.41878e-05
-0.00114512
0.000239525
-0.000128337
-0.000805029
0.000284182
-0.000221279
-0.000462714
0.000383305
-0.000254091
-0.000200329
0.00049297
-0.000189613
-4.30577e-05
0.000563855
-0.000145286
0.000418974
-6.17322e-05
0.00010785
0.000661853
-0.000143347
0.000340046
0.00105429
-0.000313115
0.000557993
0.00125275
-0.000309749
0.000688471
0.00134402
-0.000210726
0.00074446
0.0013939
-0.000113426
0.00075075
0.00142317
-3.6092e-05
0.00073284
0.00143588
1.79596e-05
0.000687789
0.00143332
6.98985e-05
0.000629686
0.00141303
0.000105353
0.000556764
0.00136841
0.000138386
0.00047
0.00129883
0.000166541
0.000379699
0.00120526
0.000181823
0.000289102
0.00109595
0.000188383
0.000180703
0.000987176
0.000198956
6.17655e-05
0.000890645
0.000195442
-5.18159e-05
0.000802676
0.000177929
-0.00014698
0.000739377
0.000155393
-0.000231874
0.000683493
0.000141688
-0.000309396
0.000638533
0.0001355
-0.000382385
0.000597345
0.000134889
-0.000453024
0.000557685
0.000138772
-0.000516622
0.000518686
0.000143171
-0.000585258
0.000477571
0.00015481
-0.000665187
0.000442435
0.000171885
-0.000752365
0.000404503
0.000186044
-0.000851984
0.00037209
0.00020241
-0.000956569
0.000336705
0.000221428
-0.00109879
0.000316624
0.000246119
-0.00123305
0.000277226
0.000242964
-0.00137172
0.000287456
0.000241614
-0.00148956
0.000273455
0.00022956
-0.00156697
0.000221326
0.000199901
-0.00156836
0.000155024
0.000143444
-0.00146754
9.4591e-05
5.95893e-05
-0.00124482
6.47752e-05
-4.79702e-05
-0.000909263
0.000106374
-0.000157752
-0.000526535
0.000238837
-0.00023826
-0.000223695
0.000412819
-0.000222688
-5.05059e-05
0.000529913
-0.000139246
0.000433805
-6.53374e-05
0.000108976
0.000676779
-0.000123902
0.000354686
0.00110606
-0.000297479
0.0005917
0.0013172
-0.00030146
0.000739051
0.00140079
-0.000204121
0.000802005
0.00143138
-0.000100431
0.000806529
0.00143698
-1.833e-05
0.000782711
0.00142239
3.73116e-05
0.000735165
0.00140122
7.96431e-05
0.000671653
0.00136018
0.000116358
0.000595744
0.00129643
0.000147886
0.000511289
0.00121381
0.00016947
0.000419194
0.00111726
0.000180094
0.000318567
0.00101344
0.000183131
0.00019834
0.000916475
0.000190928
8.27633e-05
0.000822699
0.000183524
-2.58702e-05
0.000749316
0.000161994
-0.000111042
0.000684146
0.000140404
-0.000191046
0.000631593
0.000131905
-0.000260166
0.00058126
0.000126392
-0.000323823
0.000534312
0.00012669
-0.000383847
0.000488193
0.000129516
-0.000435671
0.000439762
0.000130749
-0.000495353
0.000396294
0.000140957
-0.000564991
0.00035656
0.000155512
-0.000639692
0.00031625
0.000162954
-0.000726228
0.0002777
0.000180925
-0.000832828
0.000234473
0.000208832
-0.000945118
0.00019117
0.000237744
-0.00109055
0.000160372
0.000262288
-0.00122687
0.000153378
0.000270399
-0.00136714
0.000141433
0.000272294
-0.00148071
8.70701e-05
0.000247826
-0.00153333
1.0757e-05
0.000196878
-0.00148535
-7.08203e-05
0.000117433
-0.00131477
-0.00012557
1.97665e-05
-0.0010134
-0.000104848
-9.01452e-05
-0.000613785
3.23122e-05
-0.000193092
-0.000257365
0.000293438
-0.00023704
-5.87969e-05
0.000465972
-0.000134627
0.00044042
-6.54108e-05
0.000110708
0.000658427
-9.23569e-05
0.000365392
0.00112356
-0.000272184
0.000615222
0.00135005
-0.000282681
0.000776545
0.00142917
-0.000189705
0.000848358
0.00144448
-8.49103e-05
0.000850191
0.00142925
5.89772e-06
0.000822098
0.00139318
5.73096e-05
0.000772075
0.00135452
9.67262e-05
0.000713119
0.00129521
0.000123927
0.000639497
0.00122207
0.000147987
0.000548575
0.00113991
0.000164819
0.000443596
0.00104856
0.000173682
0.00033669
0.000947893
0.000172456
0.000227026
0.000852567
0.000173572
0.000115552
0.000762098
0.000172075
1.27247e-05
0.000694737
0.000157407
-7.0431e-05
0.000631036
0.000136266
-0.000145368
0.000580243
0.000126287
-0.000208678
0.000523929
0.00012064
-0.00026419
0.000471273
0.00011855
-0.000315768
0.000420782
0.000118989
-0.000361062
0.00036684
0.000118216
-0.000412383
0.000322401
0.000125214
-0.000471808
0.000280379
0.000135606
-0.000534255
0.000238776
0.00013992
-0.000607095
0.000193644
0.000156896
-0.000698221
0.000139007
0.00018659
-0.000802845
8.18943e-05
0.0002139
-0.000937419
4.94644e-05
0.000245481
-0.00108273
1.97674e-05
0.000278922
-0.00121881
-1.16462e-05
0.000289157
-0.00135721
-4.94334e-05
0.000274906
-0.00145164
-0.000131522
0.000236711
-0.00146151
-0.00023286
0.000171903
-0.0013456
-0.000324261
8.27862e-05
-0.00108376
-0.000342935
-2.37559e-05
-0.00069957
-0.000222307
-0.000129569
-0.000303294
9.279e-05
-0.000195628
-6.5754e-05
0.000385996
-0.000157565
0.000436475
-6.18084e-05
0.000105549
0.000607241
-5.43626e-05
0.000361929
0.00111177
-0.000244586
0.000624635
0.00135351
-0.000266173
0.000803431
0.0014316
-0.00018123
0.000880977
0.00143311
-6.61833e-05
0.000885181
0.00140082
2.42237e-05
0.000857544
0.00134415
7.66597e-05
0.000811377
0.00129112
0.000109564
0.000748378
0.00122623
0.000131985
0.000665241
0.00115292
0.000152289
0.000569006
0.00107421
0.000161933
0.000463575
0.000982972
0.000171017
0.000359192
0.000888757
0.000163519
0.000261029
0.000795672
0.000155058
0.000160887
0.000707432
0.000154808
6.11035e-05
0.000640878
0.000153643
-2.51369e-05
0.00057817
0.000139106
-9.21568e-05
0.000523111
0.000124152
-0.000154583
0.000468981
0.000117374
-0.000206511
0.000412009
0.000111192
-0.000253102
0.000358139
0.000109234
-0.000295297
0.000302764
0.000106272
-0.00034042
0.000257838
0.000109686
-0.000392451
0.000216517
0.000115893
-0.000448252
0.000173816
0.000120761
-0.000513253
0.000121842
0.000136803
-0.000588007
5.61894e-05
0.000157572
-0.000682128
-1.36416e-06
0.000177379
-0.000780617
-5.88809e-05
0.000206835
-0.00091936
-9.14955e-05
0.000250005
-0.00107152
-0.000136504
0.00027702
-0.00121611
-0.000192284
0.000287435
-0.00133075
-0.000283537
0.000266655
-0.00138785
-0.000394912
0.000219155
-0.00133289
-0.000528691
0.000149471
-0.00113164
-0.000598635
5.44503e-05
-0.000777708
-0.000518666
-5.75742e-05
-0.000362034
-0.000184174
-0.00013871
-6.8992e-05
0.000254943
-0.000161989
0.000413835
-4.63525e-05
0.000108919
0.000511558
-1.32368e-05
0.000361465
0.0010647
-0.000205482
0.000632554
0.00132504
-0.000242612
0.000825597
0.00140714
-0.000168579
0.000913797
0.00139997
-5.50599e-05
0.000924933
0.00135454
3.51457e-05
0.000891557
0.00128939
8.81372e-05
0.000839567
0.00122547
0.000117641
0.000770614
0.00115911
0.00013607
0.000687325
0.00108575
0.000150456
0.000592187
0.00100596
0.000163388
0.000490792
0.000918108
0.000166259
0.000387154
0.000827864
0.00016453
0.000292552
0.000740743
0.000149532
0.000202752
0.00065973
0.000137503
0.000115579
0.000587734
0.000140318
2.8434e-05
0.000524231
0.000141084
-4.1689e-05
0.000465445
0.000127788
-0.000101299
0.000413701
0.00011489
-0.000152314
0.000356727
0.000106298
-0.000196979
0.000302659
0.000100146
-0.000239016
0.000249221
9.55783e-05
-0.000280089
0.000203234
9.56767e-05
-0.000326408
0.000162933
9.99031e-05
-0.00037864
0.000120046
0.000106002
-0.000429989
5.64156e-05
0.000116776
-0.00049946
-2.88752e-06
0.000128548
-0.000578713
-6.31058e-05
0.000140995
-0.000674049
-0.000128818
0.000165273
-0.000771144
-0.00019408
0.000199679
-0.000909544
-0.000242215
0.000244111
-0.00105045
-0.000322704
0.000271329
-0.00119454
-0.00042231
0.000282863
-0.00128251
-0.000563797
0.000256853
-0.00128456
-0.000726419
0.000199781
-0.00114746
-0.000847569
0.000111828
-0.000848577
-0.000829393
1.18455e-05
-0.000418106
-0.000526037
-8.86081e-05
-8.13433e-05
3.78336e-05
-0.000119654
0.000363321
-3.08295e-05
0.000120306
0.000379174
1.20781e-05
0.00034827
0.00100313
-0.000166395
0.000621728
0.00127242
-0.000220839
0.000824839
0.00135954
-0.000155517
0.000925595
0.00134215
-4.29316e-05
0.000950224
0.00128285
4.70544e-05
0.000919851
0.00121858
0.000101186
0.000867272
0.00114868
0.000129372
0.000795506
0.00108675
0.000144127
0.000711078
0.00101597
0.000154202
0.000619049
0.000937071
0.000160922
0.000521403
0.000852776
0.000162979
0.000421051
0.0007667
0.000161516
0.000327309
0.000685316
0.000149168
0.000242655
0.000609462
0.000134922
0.000166437
0.000538789
0.000125163
8.68555e-05
0.000474002
0.00012981
1.13494e-05
0.000411437
0.000129514
-4.68573e-05
0.000356149
0.000115758
-9.99966e-05
0.000306859
0.000103007
-0.000146369
0.000255156
9.38748e-05
-0.000189099
0.000204366
8.75858e-05
-0.000228799
0.000157741
8.51932e-05
-0.000274044
0.000118147
9.00302e-05
-0.000318316
6.87335e-05
9.5583e-05
-0.000368721
4.12378e-06
0.000102697
-0.00042741
-5.23458e-05
0.000108148
-0.000492692
-0.000114749
0.000116924
-0.000574313
-0.000181264
0.000134067
-0.000677524
-0.000251713
0.000160844
-0.000787522
-0.000329028
0.000196812
-0.000918777
-0.00043128
0.000239832
-0.00104373
-0.000557834
0.000260476
-0.00115798
-0.000711754
0.000262204
-0.00120971
-0.00090191
0.000227224
-0.00113566
-0.0010797
0.000158083
-0.000899406
-0.00113293
6.72768e-05
-0.000488839
-0.000917299
-1.93056e-05
-9.54602e-05
-0.000280006
-7.55404e-05
0.000250135
1.77246e-05
9.17868e-05
0.00028694
4.46906e-07
0.000324011
0.00091838
-0.000147472
0.000601772
0.00120021
-0.00020556
0.000815103
0.00129759
-0.000151382
0.000922094
0.0012809
-4.57446e-05
0.000947432
0.00121411
4.34016e-05
0.000918039
0.00114142
0.000106546
0.000868543
0.00106491
0.000133266
0.000805672
0.00100039
0.000149233
0.000728878
0.000935531
0.000157238
0.000642994
0.000863242
0.000159714
0.000551078
0.000786109
0.000158582
0.000457163
0.000706482
0.000154133
0.000367032
0.000630138
0.00014531
0.000282565
0.000557983
0.000135944
0.000208194
0.000490547
0.000122612
0.000142479
0.000424881
0.000114837
7.14528e-05
0.000364162
0.000118301
4.322e-06
0.000308979
0.0001143
-5.0536e-05
0.000260411
0.000101307
-9.87479e-05
0.000213113
9.02553e-05
-0.000142144
0.000164916
8.2845e-05
-0.000183309
0.000119827
7.90781e-05
-0.000226481
7.92211e-05
8.20975e-05
-0.000268279
2.34707e-05
8.70609e-05
-0.00031868
-3.45011e-05
8.9026e-05
-0.000369599
-9.39176e-05
9.24901e-05
-0.000427306
-0.000157786
0.000100745
-0.000497823
-0.000224035
0.000113288
-0.000583131
-0.000298627
0.000132222
-0.000685231
-0.000389513
0.000162585
-0.000814031
-0.000503398
0.000200917
-0.000945301
-0.000662539
0.000235975
-0.00105593
-0.000849669
0.000248541
-0.00112358
-0.00106819
0.000233932
-0.00109419
-0.00129669
0.000187597
-0.000906926
-0.00142221
0.000102021
-0.000565016
-0.00127874
1.95309e-05
-0.000129855
-0.000678135
-3.70307e-05
8.09269e-05
3.93527e-05
7.37546e-05
0.000210302
2.88311e-06
0.000311766
0.000810366
-0.000129997
0.000580196
0.00111461
-0.000182822
0.000801729
0.00122436
-0.000148299
0.000920561
0.00121146
-4.93893e-05
0.00095557
0.00114161
3.74886e-05
0.000935058
0.00105879
0.000103148
0.00088918
0.000979241