/*--------------------------------*- C++ -*----------------------------------*\
| =========                 |                                                 |
| \\      /  F ield         | OpenFOAM: The Open Source CFD Toolbox           |
|  \\    /   O peration     | Version:  v1806                                 |
|   \\  /    A nd           | Web:      www.OpenFOAM.com                      |
|    \\/     M anipulation  |                                                 |
\*---------------------------------------------------------------------------*/
FoamFile
{
    version     2.0;
    format      ascii;
    class       volVectorField;
    location    "0.0165";
    object      U_0;
}
// * * * * * * * * * * * * * * * * * * * * * * * * * * * * * * * * * * * * * //

dimensions      [0 1 -1 0 0 0 0];


internalField   nonuniform List<vector> 
64000
(
(-0.00203138 -0.00557399 0.000820616)
(0.0112965 -0.00725676 0.000592211)
(0.0268941 -0.00584849 0.00271465)
(0.0323152 -0.00569249 0.00332949)
(0.0253881 -0.00355767 0.00441663)
(0.0189617 -0.00352737 0.00509915)
(0.0168851 -0.00479225 0.0050846)
(0.0137746 -0.00639076 0.00500015)
(0.00992207 -0.0078574 0.00524725)
(0.00543342 -0.00807275 0.00495837)
(-0.00584758 -0.00715616 0.00487831)
(-0.0251409 -0.00413811 0.0054482)
(-0.0476415 -0.00367644 0.00466223)
(-0.0769137 -0.0020014 0.00488439)
(-0.109229 0.000273477 0.00629129)
(-0.147114 0.00552774 0.00459202)
(-0.190091 0.00761487 0.00500405)
(-0.230928 0.00103931 0.00834834)
(-0.273223 -0.00772614 0.00588236)
(-0.283673 -0.0142699 -0.00358108)
(-0.319095 -0.0381279 -0.0397145)
(-0.239567 -0.0209853 -0.0306242)
(-0.105273 -0.0243057 -0.0366745)
(-0.0931384 -0.0117009 -0.040544)
(-0.0830514 -0.00277646 -0.0518921)
(-0.0728358 0.00523789 -0.0646015)
(-0.0570525 0.0149295 -0.0717139)
(-0.0336469 0.0254868 -0.0673713)
(0.000614676 0.0390792 -0.0519635)
(0.0452793 0.0522777 -0.0337078)
(0.0881836 0.040575 -0.0324324)
(0.122588 0.0353586 -0.021899)
(0.13659 0.0232852 -0.0103865)
(0.131581 0.0105368 -0.00167543)
(0.112804 0.00244951 0.00339871)
(0.0875436 -0.00394506 0.00528051)
(0.0625863 -0.00638733 0.00750178)
(0.0414453 -0.00549644 0.00806063)
(0.0225293 -0.00390136 0.00800571)
(0.00601366 -0.00279104 0.00679877)
(-0.00105215 -0.0122439 0.00182205)
(0.0143549 -0.0202303 0.000248433)
(0.0377163 -0.0178946 0.000719614)
(0.0498059 -0.0143831 0.00115234)
(0.0463497 -0.00551504 0.00158752)
(0.0379696 -0.000540052 0.000870212)
(0.033586 0.00201922 -0.000385911)
(0.0271722 0.00632742 -0.0010232)
(0.018694 0.0125293 -0.00493844)
(0.00696873 0.0251898 -0.00225772)
(-0.0151632 0.0311428 -0.00514013)
(-0.0542461 0.0403423 0.0015328)
(-0.103101 0.051142 -0.00108363)
(-0.161228 0.0657327 -0.00470922)
(-0.225669 0.0738686 -0.00989147)
(-0.303247 0.0792079 -0.0257713)
(-0.399027 0.0865367 -0.0413424)
(-0.490309 0.0932764 -0.0538086)
(-0.568002 0.100629 -0.0694795)
(-0.62226 0.112291 -0.0901116)
(-0.653833 0.104294 -0.117181)
(-0.560566 0.143416 -0.127467)
(-0.424498 0.156301 -0.149246)
(-0.384597 0.191719 -0.16128)
(-0.3541 0.218651 -0.169975)
(-0.309838 0.239135 -0.178547)
(-0.252146 0.256492 -0.181053)
(-0.181382 0.26885 -0.171811)
(-0.0994586 0.280477 -0.149345)
(-0.0359801 0.282759 -0.122621)
(0.0296225 0.271777 -0.0783863)
(0.0984305 0.241519 -0.0509591)
(0.130309 0.195239 -0.0401404)
(0.143483 0.149051 -0.0284067)
(0.134578 0.10424 -0.0146669)
(0.111044 0.0674665 -0.00638635)
(0.0861715 0.0424364 -0.00204784)
(0.0618495 0.0279871 -0.000260452)
(0.037372 0.0190248 0.00138761)
(0.0119482 0.00978735 0.00347416)
(0.000165814 -0.0231256 0.00319021)
(0.0178539 -0.0319284 -0.000261321)
(0.0446819 -0.0263146 -0.000178534)
(0.0605774 -0.016715 0.000360339)
(0.0568818 0.000584262 -0.00138244)
(0.0425307 0.0188302 -0.00266012)
(0.0338203 0.0334592 -0.00421833)
(0.0229979 0.0519863 -0.00751765)
(0.0097646 0.0728368 -0.00229658)
(-0.0200929 0.0906664 -0.00441859)
(-0.068174 0.105655 -0.00882842)
(-0.124246 0.128506 -0.0123752)
(-0.190315 0.151348 -0.0183196)
(-0.276659 0.173857 -0.0288566)
(-0.375107 0.196154 -0.036903)
(-0.469765 0.212564 -0.0472661)
(-0.562668 0.234554 -0.0579424)
(-0.646738 0.265082 -0.0696005)
(-0.716538 0.29846 -0.083708)
(-0.762374 0.33432 -0.10107)
(-0.776171 0.364281 -0.118651)
(-0.665266 0.40089 -0.120818)
(-0.509704 0.42965 -0.131154)
(-0.449598 0.467668 -0.132985)
(-0.412663 0.49729 -0.130165)
(-0.365596 0.516422 -0.128808)
(-0.309165 0.52511 -0.124856)
(-0.242117 0.520843 -0.113964)
(-0.169467 0.506741 -0.0949843)
(-0.100012 0.478173 -0.0726928)
(-0.0439455 0.457426 -0.0499765)
(-0.00216183 0.411649 -0.0276202)
(0.0332822 0.357103 -0.0112044)
(0.0574728 0.294567 -0.00602359)
(0.0632827 0.228036 -0.0090386)
(0.0614535 0.169917 -0.00750166)
(0.0555693 0.122324 -0.00675805)
(0.046147 0.0878811 -0.00415194)
(0.0327519 0.0602306 -0.000742251)
(0.0119952 0.0304976 0.0029392)
(1.64078e-05 -0.0314425 0.00195073)
(0.0205055 -0.0385122 -0.00124684)
(0.0498201 -0.0266325 -0.00169619)
(0.0670476 -0.00723369 0.000425547)
(0.0656951 0.0157466 -0.00380463)
(0.0453623 0.0459798 -0.00450926)
(0.0272248 0.0712929 -0.00648104)
(0.00707352 0.102962 -0.000643381)
(-0.0282439 0.128897 -0.00616141)
(-0.0773514 0.150925 -0.00971515)
(-0.129505 0.17927 -0.0147369)
(-0.19639 0.213935 -0.0228116)
(-0.278322 0.24742 -0.0265475)
(-0.363395 0.277048 -0.0318033)
(-0.451443 0.313695 -0.038786)
(-0.536703 0.349984 -0.0449927)
(-0.615467 0.387671 -0.0488518)
(-0.683003 0.425951 -0.0516861)
(-0.735598 0.463638 -0.0550588)
(-0.768095 0.50305 -0.0602237)
(-0.769835 0.536329 -0.0631331)
(-0.648105 0.563466 -0.0513146)
(-0.482652 0.583975 -0.0496964)
(-0.416775 0.601964 -0.0422502)
(-0.3848 0.612451 -0.0314313)
(-0.348551 0.612202 -0.0255949)
(-0.308081 0.600233 -0.0218288)
(-0.259962 0.575465 -0.0161652)
(-0.206839 0.543728 -0.00646074)
(-0.156167 0.501784 0.000906374)
(-0.111877 0.455298 0.00502425)
(-0.0744942 0.40725 0.00639283)
(-0.0487361 0.359196 0.00532808)
(-0.0300835 0.308649 0.00263437)
(-0.0149239 0.257536 -0.0014927)
(-0.00271291 0.20987 -0.00363388)
(0.0088329 0.164651 -0.00527453)
(0.0169493 0.126157 -0.00628596)
(0.0194253 0.0886128 -0.00255324)
(0.00956683 0.0425838 0.003162)
(0.000769491 -0.037967 0.0012488)
(0.0252279 -0.0384584 -0.00342189)
(0.0593965 -0.0198108 -0.000936878)
(0.0739411 0.00966963 -0.00308419)
(0.0691249 0.0409785 -0.00398738)
(0.0424637 0.0755652 -0.00420899)
(0.0162721 0.109823 0.00150172)
(-0.016896 0.149707 -0.00292047)
(-0.0648366 0.185069 -0.00634998)
(-0.116383 0.224845 -0.0115092)
(-0.171375 0.266484 -0.015587)
(-0.233939 0.303215 -0.0204725)
(-0.306814 0.34424 -0.0219391)
(-0.38141 0.387295 -0.0243392)
(-0.455256 0.427504 -0.0257291)
(-0.52369 0.466723 -0.0237991)
(-0.584659 0.507154 -0.0182762)
(-0.636446 0.547685 -0.0102846)
(-0.673186 0.588326 -0.00176273)
(-0.69365 0.626398 -0.000893766)
(-0.692648 0.655198 0.000805558)
(-0.571964 0.675896 0.0184283)
(-0.409125 0.681293 0.0216484)
(-0.347766 0.666529 0.0296649)
(-0.326836 0.649232 0.0377941)
(-0.309573 0.622635 0.0421863)
(-0.292454 0.587779 0.0439423)
(-0.266294 0.545449 0.0436353)
(-0.236524 0.499749 0.0391087)
(-0.20864 0.452722 0.032438)
(-0.182346 0.40564 0.0230832)
(-0.15869 0.357299 0.0162962)
(-0.131573 0.310494 0.0104383)
(-0.10429 0.268586 0.00415448)
(-0.0807561 0.233463 -0.0013774)
(-0.058396 0.201156 -0.00542764)
(-0.0362021 0.169897 -0.0080307)
(-0.0152339 0.13818 -0.00823814)
(0.00345523 0.101432 -0.00262459)
(0.00635426 0.0447266 0.00354552)
(0.00259185 -0.0414475 0.000286955)
(0.030739 -0.0332302 -0.00379997)
(0.0677557 -0.00293564 -0.0047778)
(0.0822023 0.0329879 -0.00395396)
(0.0711409 0.0721111 -0.00770594)
(0.0371597 0.109526 -0.000470531)
(0.00607363 0.154177 0.00181239)
(-0.0304865 0.201812 -0.00259616)
(-0.0795065 0.251708 -0.00623712)
(-0.129014 0.301396 -0.00972417)
(-0.181816 0.349256 -0.0115217)
(-0.237232 0.389568 -0.0108301)
(-0.291921 0.428109 -0.00786671)
(-0.349898 0.463739 -0.0094306)
(-0.409213 0.500571 -0.00498062)
(-0.459664 0.538774 -0.0017767)
(-0.502648 0.580966 0.00579959)
(-0.537264 0.619047 0.0141561)
(-0.563845 0.653259 0.018007)
(-0.584313 0.678464 0.019864)
(-0.583258 0.701727 0.0281137)
(-0.471328 0.737715 0.0499209)
(-0.336122 0.715217 0.0510808)
(-0.294811 0.654902 0.0564628)
(-0.286927 0.601355 0.0637219)
(-0.289336 0.552228 0.0662674)
(-0.292028 0.503473 0.064532)
(-0.286971 0.455115 0.0610029)
(-0.272872 0.404706 0.0560956)
(-0.25698 0.360282 0.0471369)
(-0.243167 0.321995 0.03269)
(-0.227252 0.287284 0.0174701)
(-0.20618 0.256518 0.00765286)
(-0.174701 0.225548 0.00174284)
(-0.137693 0.198509 -0.00413476)
(-0.102398 0.178194 -0.00799602)
(-0.0673263 0.158217 -0.0103083)
(-0.0348131 0.13722 -0.00968608)
(-0.00487341 0.104517 -0.00416895)
(0.00487225 0.0412655 0.00373977)
(0.00334945 -0.037956 -0.00147852)
(0.0399928 -0.0127159 -0.00596648)
(0.0815315 0.0224415 -0.0112905)
(0.0899669 0.0639315 -0.00887199)
(0.072382 0.10465 -0.00729843)
(0.037182 0.150951 -0.000753453)
(0.00946742 0.204048 0.00208368)
(-0.0248446 0.257925 -0.00215325)
(-0.069547 0.315732 -0.00382146)
(-0.113356 0.368549 -0.00535184)
(-0.159476 0.41722 -0.00498542)
(-0.205996 0.457208 -0.00234379)
(-0.252912 0.492294 0.00218868)
(-0.295233 0.519728 0.00484074)
(-0.331865 0.547426 0.0079371)
(-0.361425 0.572635 0.0143769)
(-0.391306 0.597566 0.0195402)
(-0.423849 0.625581 0.025854)
(-0.451836 0.64133 0.0285644)
(-0.466794 0.658437 0.0302396)
(-0.444418 0.689588 0.0406066)
(-0.368662 0.729177 0.0546693)
(-0.309663 0.681769 0.0534494)
(-0.294562 0.601217 0.0535511)
(-0.286201 0.522211 0.0539418)
(-0.293686 0.463683 0.0542256)
(-0.308435 0.416396 0.0526144)
(-0.317708 0.374362 0.0502007)
(-0.316659 0.331905 0.0441679)
(-0.306804 0.293635 0.0332895)
(-0.296778 0.261582 0.0209905)
(-0.284874 0.234003 0.0112803)
(-0.26549 0.215312 0.000424117)
(-0.235581 0.200404 -0.00431353)
(-0.190884 0.186261 -0.00820546)
(-0.141117 0.172357 -0.0126625)
(-0.0927747 0.160058 -0.0149825)
(-0.0487557 0.144343 -0.0131513)
(-0.0104987 0.112494 -0.00623584)
(0.00447923 0.0425405 0.00309211)
(0.00874793 -0.0304667 -0.000439177)
(0.046168 0.0144738 -0.0171924)
(0.0874961 0.0536654 -0.0183846)
(0.0971398 0.0959104 -0.0141892)
(0.0806482 0.141156 -0.00948401)
(0.0509474 0.195713 -0.00147131)
(0.0246665 0.256546 0.00227598)
(-0.0022089 0.308973 0.00163687)
(-0.0393528 0.365179 0.000561507)
(-0.0778977 0.416344 0.00112621)
(-0.117527 0.457468 0.00215539)
(-0.156037 0.491874 0.00686452)
(-0.190538 0.519936 0.0108337)
(-0.222805 0.540122 0.0149964)
(-0.252522 0.551648 0.0202168)
(-0.276792 0.555301 0.0251401)
(-0.292685 0.555692 0.0271427)
(-0.318419 0.563238 0.0217939)
(-0.344768 0.565695 0.0212189)
(-0.346055 0.588049 0.0268172)
(-0.326716 0.622336 0.0373317)
(-0.305557 0.634649 0.0433654)
(-0.308315 0.590798 0.0416724)
(-0.322753 0.525279 0.0380434)
(-0.321239 0.446511 0.0334585)
(-0.321259 0.382993 0.0323005)
(-0.335742 0.341476 0.0329983)
(-0.351834 0.306764 0.0339181)
(-0.357285 0.272826 0.0317901)
(-0.351944 0.239044 0.0210284)
(-0.346489 0.208541 0.0115223)
(-0.333259 0.184167 0.00357224)
(-0.311391 0.170549 -0.00441399)
(-0.279951 0.166694 -0.00813828)
(-0.235033 0.169185 -0.0123421)
(-0.178099 0.169153 -0.0152634)
(-0.114529 0.163598 -0.0186501)
(-0.060008 0.151727 -0.0167457)
(-0.014431 0.120922 -0.00915472)
(0.00383919 0.0448241 0.00243761)
(0.0113843 -0.0146844 -0.00226015)
(0.053668 0.0432796 -0.0241883)
(0.0957183 0.0908184 -0.0252545)
(0.108031 0.134214 -0.0211008)
(0.0988267 0.183537 -0.0129409)
(0.0781307 0.240475 -0.00722269)
(0.0536705 0.300651 0.00354913)
(0.0277952 0.353774 0.00670173)
(0.00179209 0.399269 0.0082433)
(-0.0322324 0.437785 0.00939069)
(-0.0665119 0.472472 0.0130744)
(-0.0955035 0.499471 0.0172293)
(-0.125816 0.51559 0.0196934)
(-0.154693 0.519448 0.0223197)
(-0.181164 0.513725 0.0237538)
(-0.201094 0.501734 0.0238156)
(-0.213818 0.4934 0.0190278)
(-0.238546 0.476582 0.0098594)
(-0.253492 0.484727 0.015456)
(-0.245763 0.511647 0.0239276)
(-0.248749 0.531008 0.0294805)
(-0.271304 0.529408 0.0311999)
(-0.313661 0.504831 0.0282998)
(-0.358402 0.461259 0.0236262)
(-0.371492 0.399056 0.0186587)
(-0.362246 0.330961 0.0161933)
(-0.365385 0.289238 0.0183308)
(-0.3816 0.258738 0.0208434)
(-0.392846 0.230021 0.0212777)
(-0.392923 0.197717 0.0139993)
(-0.388081 0.167731 0.00248484)
(-0.374948 0.148386 -0.00323619)
(-0.349702 0.134831 -0.00808332)
(-0.313557 0.13443 -0.0137323)
(-0.264007 0.141475 -0.014643)
(-0.205527 0.157476 -0.0175364)
(-0.136524 0.16272 -0.0197352)
(-0.0702569 0.158607 -0.0196844)
(-0.0178483 0.129236 -0.0117349)
(0.00344988 0.0490636 0.00185035)
(0.00865067 0.00520779 -0.0075132)
(0.0529011 0.0814175 -0.0314469)
(0.10368 0.134003 -0.0320992)
(0.123701 0.180184 -0.0249584)
(0.123933 0.228345 -0.0175906)
(0.110196 0.282246 -0.00838845)
(0.0912893 0.335234 -0.00214417)
(0.0672872 0.383848 0.0071633)
(0.0381617 0.420256 0.0177584)
(0.0150841 0.447532 0.021687)
(-0.00782706 0.470097 0.0247659)
(-0.0363997 0.481231 0.0261013)
(-0.0662309 0.487415 0.0255921)
(-0.0958612 0.477899 0.02447)
(-0.12297 0.459299 0.0209938)
(-0.139381 0.43966 0.0153741)
(-0.158111 0.42243 0.00433368)
(-0.173126 0.410682 0.00571732)
(-0.168498 0.431432 0.0140891)
(-0.176259 0.446862 0.0183472)
(-0.206023 0.451151 0.021939)
(-0.250466 0.450093 0.0221219)
(-0.315568 0.439321 0.0186685)
(-0.384451 0.413856 0.014967)
(-0.420048 0.375097 0.0124198)
(-0.408442 0.310323 0.0102918)
(-0.3918 0.253562 0.0105665)
(-0.400792 0.220716 0.0121664)
(-0.415373 0.193793 0.0115576)
(-0.4217 0.167119 0.00784638)
(-0.417645 0.136574 0.013696)
(-0.406156 0.112356 0.0160358)
(-0.385325 0.0987965 0.012219)
(-0.350013 0.0980998 0.00511657)
(-0.295318 0.109407 -0.0132635)
(-0.228496 0.129907 -0.0180768)
(-0.152022 0.155777 -0.0201441)
(-0.0784215 0.158251 -0.0192107)
(-0.0206873 0.135531 -0.0132103)
(0.00348933 0.052346 0.00158596)
(0.006157 0.02023 -0.0109555)
(0.05372 0.121745 -0.0373461)
(0.114528 0.182333 -0.0377961)
(0.143225 0.227945 -0.0266081)
(0.151763 0.272653 -0.0197085)
(0.145645 0.317735 -0.0101109)
(0.130184 0.362397 -0.00152243)
(0.107083 0.399631 0.00587337)
(0.0828779 0.428936 0.0123204)
(0.0600657 0.452642 0.0282797)
(0.0358052 0.461532 0.0354121)
(0.0165462 0.460769 0.037735)
(-0.011203 0.44919 0.0298733)
(-0.0473773 0.429179 0.0233261)
(-0.0742454 0.407536 0.0142356)
(-0.0920028 0.389784 0.00388081)
(-0.104288 0.374959 -0.00126139)
(-0.105338 0.38399 0.00624386)
(-0.11161 0.392782 0.0100162)
(-0.139985 0.391327 0.0145833)
(-0.178152 0.391014 0.0181259)
(-0.231296 0.392144 0.0175977)
(-0.308802 0.385952 0.0140421)
(-0.387338 0.369041 0.0122465)
(-0.441873 0.349217 0.010105)
(-0.450772 0.305037 0.00940378)
(-0.421988 0.232061 0.00901331)
(-0.410299 0.186526 0.00721967)
(-0.42083 0.159327 0.0048036)
(-0.434992 0.131293 0.0203278)
(-0.444287 0.100117 0.0279475)
(-0.436934 0.0718364 0.0286606)
(-0.414987 0.0537974 0.0189927)
(-0.379978 0.0543517 0.0106121)
(-0.325751 0.0683083 0.00192779)
(-0.249023 0.0961057 -0.0170365)
(-0.165995 0.131303 -0.0208252)
(-0.0880207 0.154398 -0.0197033)
(-0.0214296 0.139079 -0.0139451)
(0.00300006 0.0557609 0.0011587)
(0.00435359 0.0379737 -0.0138521)
(0.0555827 0.165205 -0.0430334)
(0.125921 0.231881 -0.0424295)
(0.163805 0.27403 -0.02739)
(0.179702 0.312092 -0.0161083)
(0.178548 0.347591 -0.00899454)
(0.167158 0.381239 -0.00357766)
(0.147047 0.406847 0.00672731)
(0.126456 0.429761 0.013675)
(0.106313 0.44498 0.0219335)
(0.0827097 0.448644 0.0278642)
(0.0559025 0.441528 0.037029)
(0.0247941 0.418328 0.032885)
(-0.0040272 0.392433 0.021642)
(-0.0270034 0.376536 0.00682216)
(-0.043304 0.368566 -0.00144099)
(-0.0489255 0.36183 0.0014284)
(-0.0579456 0.363478 0.00464829)
(-0.0817777 0.354808 0.00889081)
(-0.114299 0.348645 0.013703)
(-0.152688 0.345513 0.0173589)
(-0.208799 0.345145 0.0163172)
(-0.29282 0.336575 0.0129815)
(-0.372771 0.32252 0.0129384)
(-0.431417 0.309592 0.0103397)
(-0.468794 0.289898 0.00722555)
(-0.450742 0.233886 0.00772152)
(-0.414314 0.161839 0.00703261)
(-0.416207 0.126392 0.0122716)
(-0.437386 0.0917087 0.0226248)
(-0.452283 0.0597106 0.0329761)
(-0.4548 0.0350845 0.0496405)
(-0.439393 0.0141462 0.0510617)
(-0.409353 0.00429646 0.0356482)
(-0.357784 0.0183051 0.023977)
(-0.278982 0.0508492 0.00482517)
(-0.18011 0.0954106 -0.0226125)
(-0.0898702 0.137515 -0.0206862)
(-0.02447 0.137175 -0.0142661)
(0.00318633 0.0572289 0.000515986)
(0.0032858 0.0551631 -0.0170652)
(0.057519 0.206268 -0.0490457)
(0.135454 0.278426 -0.0481463)
(0.182409 0.31624 -0.0289004)
(0.206193 0.343767 -0.0129061)
(0.209857 0.368294 -0.00310192)
(0.199362 0.392068 0.00156103)
(0.183433 0.410103 0.00466627)
(0.169128 0.42641 0.00810559)
(0.148436 0.43227 0.0176026)
(0.122829 0.426867 0.0209025)
(0.0951861 0.413389 0.0250623)
(0.0616941 0.396112 0.0273538)
(0.0375226 0.381829 0.0152236)
(0.0247684 0.377654 0.00341157)
(0.00497484 0.366217 -0.000843584)
(-0.0135104 0.355832 0.00337474)
(-0.0325374 0.338324 0.00570801)
(-0.0598803 0.324418 0.00966859)
(-0.0908741 0.31394 0.0140741)
(-0.125658 0.305717 0.0178436)
(-0.181933 0.300323 0.0162455)
(-0.267703 0.286977 0.0134261)
(-0.343817 0.274159 0.013843)
(-0.397108 0.263994 0.0106073)
(-0.442992 0.255848 0.00712734)
(-0.462343 0.233736 0.00757741)
(-0.428601 0.158477 0.00995004)
(-0.404931 0.096874 0.0151331)
(-0.425276 0.0546509 0.0283515)
(-0.442892 0.0207395 0.0427209)
(-0.454011 -0.0150514 0.0341248)
(-0.458168 -0.0469567 0.0230606)
(-0.437308 -0.0673365 0.0131827)
(-0.389482 -0.0574512 0.0036539)
(-0.311233 -0.0146225 0.00439114)
(-0.204278 0.0492198 -0.00168133)
(-0.0996082 0.10819 -0.0285424)
(-0.023723 0.130895 -0.0135836)
(0.00279852 0.0585696 -0.000517367)
(0.0023327 0.067974 -0.0193786)
(0.0589311 0.239549 -0.0533475)
(0.14317 0.316573 -0.0533514)
(0.196356 0.34975 -0.0325875)
(0.22633 0.3673 -0.0123418)
(0.236392 0.379978 0.00140626)
(0.232104 0.392573 0.00722512)
(0.220311 0.408102 0.0116619)
(0.20555 0.418392 0.0120804)
(0.182978 0.41775 0.0131354)
(0.158402 0.410386 0.013233)
(0.134682 0.402056 0.0172094)
(0.111401 0.396012 0.018014)
(0.0958475 0.390632 0.00824666)
(0.0684328 0.381056 -0.00137014)
(0.0333314 0.356534 0.000731013)
(0.0071602 0.340113 0.0032917)
(-0.0172076 0.315417 0.00763891)
(-0.0406142 0.297186 0.0106775)
(-0.0683166 0.2807 0.0145352)
(-0.097856 0.266323 0.0181393)
(-0.152555 0.253837 0.0159989)
(-0.236186 0.236845 0.0140617)
(-0.305026 0.224596 0.0144702)
(-0.351283 0.215111 0.011607)
(-0.393228 0.208803 0.00976214)
(-0.436043 0.198474 0.0116438)
(-0.43471 0.162003 0.0108914)
(-0.402665 0.0720975 0.0190699)
(-0.401485 0.0190398 0.0234692)
(-0.424443 -0.025075 0.0222404)
(-0.452764 -0.0748849 0.0182718)
(-0.465792 -0.119127 0.0108986)
(-0.453028 -0.14563 0.000108611)
(-0.406989 -0.148202 -0.00972862)
(-0.332275 -0.101123 -0.0161219)
(-0.22747 -0.0202549 -0.00828255)
(-0.110473 0.0677355 -0.0176165)
(-0.0256089 0.116797 -0.0170943)
(0.00248487 0.0601511 -0.0019095)
(0.00107807 0.0742183 -0.0170128)
(0.0581564 0.263156 -0.0524067)
(0.146647 0.344402 -0.0538938)
(0.206779 0.372988 -0.0331877)
(0.242944 0.38175 -0.0115568)
(0.257545 0.383545 0.00397202)
(0.261724 0.387522 0.0105988)
(0.256452 0.397417 0.0130276)
(0.241471 0.406685 0.0127526)
(0.220253 0.412068 0.0126102)
(0.202979 0.414611 0.0122129)
(0.188526 0.414242 0.0135949)
(0.163255 0.408741 0.0151927)
(0.13313 0.392336 0.00200878)
(0.0925323 0.363746 -0.00444141)
(0.0539355 0.337209 0.000114563)
(0.0240069 0.31491 0.0025073)
(-0.00350615 0.293045 0.00868998)
(-0.023601 0.267848 0.0113545)
(-0.0471668 0.245479 0.0144715)
(-0.0717809 0.224443 0.0172089)
(-0.123449 0.203395 0.0147787)
(-0.201551 0.18628 0.0140281)
(-0.262803 0.176045 0.0145232)
(-0.302536 0.167371 0.0117956)
(-0.34111 0.160699 0.0112952)
(-0.382062 0.151411 0.00510226)
(-0.419807 0.141126 0.00258801)
(-0.405832 0.0807146 0.00881228)
(-0.378159 -0.00346774 0.0079971)
(-0.398673 -0.0655806 0.0103217)
(-0.429947 -0.12212 0.00968053)
(-0.451331 -0.172533 0.00338873)
(-0.453464 -0.212679 -0.00796092)
(-0.417003 -0.228741 -0.0183139)
(-0.346159 -0.201076 -0.0331974)
(-0.248727 -0.113276 -0.0297766)
(-0.127317 0.00998779 -0.00327406)
(-0.0281327 0.0884509 -0.0250778)
(0.00333003 0.0602149 -0.00387225)
(0.000168988 0.0857463 -0.0132476)
(0.0559118 0.283621 -0.0498911)
(0.145804 0.367923 -0.052708)
(0.211189 0.392615 -0.0329728)
(0.253273 0.39241 -0.0105514)
(0.27584 0.385279 0.00498732)
(0.289737 0.381473 0.00959698)
(0.293217 0.391545 0.0111513)
(0.286784 0.407512 0.01045)
(0.272201 0.420822 0.0102234)
(0.255597 0.427253 0.0105342)
(0.233483 0.421126 0.0119516)
(0.197356 0.399989 0.0142179)
(0.154988 0.37413 0.00525186)
(0.108803 0.34052 -0.00512052)
(0.0699988 0.315395 -0.00196026)
(0.0409082 0.287355 0.00164595)
(0.0110003 0.266452 0.00704701)
(-0.0108204 0.236996 0.0117679)
(-0.0295466 0.208732 0.0138633)
(-0.052126 0.180849 0.0154424)
(-0.0972095 0.15395 0.0138598)
(-0.164473 0.139497 0.014145)
(-0.21906 0.131827 0.0149091)
(-0.255045 0.125201 0.0117511)
(-0.289512 0.117875 0.00898982)
(-0.326072 0.10972 -2.5062e-05)
(-0.364463 0.0962045 0.000130228)
(-0.394235 0.0767093 -0.000807029)
(-0.383537 -0.00316575 -0.00114512)
(-0.37384 -0.0803365 0.00120521)
(-0.397723 -0.148825 0.00412278)
(-0.423707 -0.211261 0.00105178)
(-0.43699 -0.264856 -0.00802282)
(-0.416538 -0.295864 -0.0207856)
(-0.355799 -0.287124 -0.0368558)
(-0.256646 -0.215653 -0.0483245)
(-0.142759 -0.0718901 -0.0323991)
(-0.0353504 0.050053 -0.0193462)
(0.00865889 0.0577176 -0.00678646)
(-0.00562484 0.0948373 -0.017891)
(0.0453897 0.300091 -0.0505764)
(0.138519 0.390256 -0.0541016)
(0.209707 0.414488 -0.0352483)
(0.259331 0.409286 -0.0120009)
(0.289838 0.396566 0.00100359)
(0.320202 0.388553 0.00679224)
(0.341789 0.40551 0.0078526)
(0.339923 0.422584 0.00791669)
(0.321464 0.431457 0.00899018)
(0.296528 0.429292 0.00942855)
(0.262479 0.411186 0.0100881)
(0.219444 0.381473 0.0107788)
(0.172851 0.349193 0.00989039)
(0.125436 0.317833 0.00110851)
(0.084744 0.293686 -0.00519231)
(0.054346 0.263516 -2.53886e-06)
(0.0249364 0.23754 0.0044827)
(0.000171467 0.20963 0.010785)
(-0.0179765 0.176462 0.0131248)
(-0.0375849 0.145948 0.0143114)
(-0.0725412 0.118477 0.0134452)
(-0.128135 0.105079 0.0142184)
(-0.177571 0.097946 0.015791)
(-0.211591 0.0917193 0.0134197)
(-0.244403 0.0844715 0.00721183)
(-0.281622 0.0730668 0.00264424)
(-0.317649 0.0605715 0.00545523)
(-0.354549 0.0429963 0.00398645)
(-0.366881 0.00255775 0.000421329)
(-0.360648 -0.0900602 -0.00711548)
(-0.370386 -0.156295 -0.00154929)
(-0.389088 -0.227456 -0.00113278)
(-0.40566 -0.29636 -0.00806025)
(-0.397758 -0.351798 -0.0219675)
(-0.357169 -0.367284 -0.0423486)
(-0.27248 -0.315113 -0.0576655)
(-0.159417 -0.167778 -0.0474579)
(-0.0385701 0.00120232 -0.00785062)
(0.0118296 0.0530936 -0.0107519)
(-0.00827373 0.153241 -0.0205045)
(0.0389747 0.364083 -0.0465264)
(0.131613 0.460131 -0.0512202)
(0.206312 0.483981 -0.0344732)
(0.263203 0.473331 -0.0118639)
(0.305666 0.452369 -0.00135137)
(0.35808 0.43785 0.00546791)
(0.391412 0.446512 0.00692404)
(0.384002 0.450985 0.007719)
(0.359864 0.445126 0.00878264)
(0.326112 0.428943 0.00916631)
(0.283292 0.40122 0.00858581)
(0.234634 0.367974 0.00831188)
(0.187156 0.332529 0.0081897)
(0.142878 0.300099 0.00674231)
(0.0995341 0.273996 -0.000353153)
(0.0656631 0.247672 -0.00377864)
(0.0380838 0.216796 0.00178293)
(0.0108538 0.18962 0.00730198)
(-0.0085645 0.156734 0.0120921)
(-0.0241031 0.125889 0.013064)
(-0.0510258 0.0983389 0.0126555)
(-0.0965341 0.0827981 0.0135015)
(-0.141476 0.0754793 0.0159551)
(-0.173459 0.0677792 0.0149751)
(-0.20682 0.0569369 0.00472476)
(-0.239404 0.0468141 0.00652256)
(-0.270924 0.0381705 0.00738499)
(-0.311432 0.0211822 0.0067951)
(-0.355168 -0.00301622 0.0052396)
(-0.348323 -0.0683364 0.00417954)
(-0.332686 -0.171555 -0.0106077)
(-0.357093 -0.257428 -0.0130389)
(-0.38036 -0.341352 -0.0176816)
(-0.382254 -0.419737 -0.0278041)
(-0.349072 -0.465717 -0.0461911)
(-0.267574 -0.435972 -0.0688146)
(-0.169648 -0.288492 -0.0720181)
(-0.047763 -0.0744878 -0.033815)
(0.0145807 0.0383235 -0.00858425)
(-0.0137427 0.277671 -0.0233094)
(0.026927 0.493529 -0.0433993)
(0.117687 0.595359 -0.0492286)
(0.193784 0.623706 -0.0344768)
(0.256715 0.613558 -0.0138823)
(0.309435 0.587525 -0.004038)
(0.378739 0.554402 0.0049321)
(0.4228 0.523217 0.00615211)
(0.411377 0.498569 0.00642159)
(0.379544 0.469888 0.007538)
(0.34071 0.435853 0.00800039)
(0.295644 0.398692 0.00750625)
(0.246765 0.360822 0.00683068)
(0.198503 0.325004 0.00588925)
(0.15558 0.291385 0.00592696)
(0.11654 0.260834 0.0054991)
(0.0790835 0.235419 -0.000525603)
(0.0484727 0.206624 -0.00197359)
(0.0220032 0.177423 0.00346514)
(0.000151121 0.147934 0.00911009)
(-0.0146458 0.115251 0.0114889)
(-0.0347944 0.0864205 0.0118721)
(-0.0699464 0.066866 0.0125356)
(-0.11006 0.0587161 0.0143879)
(-0.144413 0.0506821 0.0125847)
(-0.174254 0.0375689 0.00982588)
(-0.200996 0.0289714 0.0101047)
(-0.231787 0.0161142 0.0102785)
(-0.26722 0.000945775 0.0109259)
(-0.306076 -0.0158094 0.00898622)
(-0.352195 -0.0428115 0.00406938)
(-0.355529 -0.140229 0.00431931)
(-0.337397 -0.263662 -0.00657436)
(-0.352722 -0.37695 -0.0151297)
(-0.361078 -0.477913 -0.0251948)
(-0.338417 -0.552886 -0.0409393)
(-0.258865 -0.558734 -0.0646271)
(-0.162383 -0.437536 -0.075461)
(-0.0453273 -0.167518 -0.0531721)
(0.0176053 0.0209129 -0.00957488)
(-0.0131319 0.313369 -0.01703)
(0.0228526 0.545018 -0.0429293)
(0.109187 0.660203 -0.0512937)
(0.188346 0.702864 -0.0408824)
(0.255092 0.700473 -0.0243035)
(0.30444 0.676512 -0.0155886)
(0.362037 0.638092 -0.00473597)
(0.406132 0.578534 -0.00120715)
(0.404403 0.529127 0.000884773)
(0.376253 0.48407 0.00372426)
(0.340454 0.439044 0.00561484)
(0.299128 0.395087 0.00655013)
(0.254056 0.353575 0.00654084)
(0.209515 0.316326 0.00553453)
(0.166992 0.282818 0.00514197)
(0.128269 0.251369 0.00524394)
(0.0938487 0.221903 0.00600471)
(0.0612806 0.194614 0.000745165)
(0.0322515 0.166248 0.000434427)
(0.00782305 0.139141 0.00536909)
(-0.00879849 0.107601 0.00979245)
(-0.0239769 0.077791 0.0110397)
(-0.0492428 0.0543172 0.0119455)
(-0.0817513 0.0427318 0.0124997)
(-0.116128 0.0335493 0.0101196)
(-0.145418 0.0247131 0.0114275)
(-0.170459 0.0135514 0.0121898)
(-0.197595 0.00105254 0.0135545)
(-0.226083 -0.0114354 0.0144967)
(-0.259837 -0.028714 0.0124167)
(-0.306297 -0.0533504 0.00802282)
(-0.354739 -0.0908334 0.00396997)
(-0.366082 -0.190162 0.00317238)
(-0.356167 -0.312389 -0.00256907)
(-0.351483 -0.4402 -0.0116243)
(-0.331047 -0.557396 -0.0257357)
(-0.258668 -0.61848 -0.0484675)
(-0.143573 -0.551304 -0.0644164)
(-0.0239775 -0.289958 -0.0658519)
(0.0214873 -4.62979e-05 -6.98728e-05)
(0.0013297 0.292329 0.00140385)
(0.0388021 0.516615 -0.0309839)
(0.11155 0.638815 -0.0408595)
(0.188442 0.690296 -0.0349384)
(0.25467 0.69118 -0.0201683)
(0.305603 0.667139 -0.0127471)
(0.35202 0.63238 -0.00394115)
(0.387088 0.578885 -0.0016523)
(0.391371 0.522398 -0.00132009)
(0.367501 0.474091 0.000731007)
(0.334848 0.426421 0.00342328)
(0.298063 0.38004 0.00578379)
(0.25846 0.336824 0.0073697)
(0.21796 0.298659 0.00774486)
(0.178569 0.264109 0.00761277)
(0.140695 0.232399 0.00713001)
(0.104934 0.200011 0.0066714)
(0.07335 0.170066 0.00640206)
(0.0448632 0.144544 0.00497791)
(0.0173411 0.12176 0.00366975)
(-0.0025739 0.0968266 0.00816812)
(-0.0164712 0.0678521 0.0103501)
(-0.0341509 0.0442872 0.0116023)
(-0.0593991 0.027737 0.0114581)
(-0.0888952 0.0157914 0.0117933)
(-0.1168 0.00803798 0.0123882)
(-0.140861 -1.70955e-05 0.0141116)
(-0.163266 -0.00904565 0.0153108)
(-0.189039 -0.0206497 0.0160913)
(-0.219236 -0.0384411 0.0157128)
(-0.257823 -0.0637859 0.012247)
(-0.301829 -0.0963193 0.00826844)
(-0.331899 -0.141508 0.00348566)
(-0.349949 -0.225785 -0.00103547)
(-0.362741 -0.342684 -0.0045076)
(-0.35739 -0.475396 -0.0120984)
(-0.29523 -0.575849 -0.0264192)
(-0.181854 -0.56648 -0.0470668)
(-0.0257828 -0.348055 -0.0529259)
(0.0416942 0.0129274 -0.0180991)
(0.00423659 0.287797 0.00377197)
(0.0406234 0.488606 -0.0241285)
(0.108949 0.610567 -0.0327307)
(0.183991 0.665694 -0.0290032)
(0.249748 0.670535 -0.0138113)
(0.30222 0.645759 -0.00721429)
(0.345961 0.607777 0.000299165)
(0.37143 0.560545 0.00158302)
(0.374871 0.503903 0.000125188)
(0.357385 0.451385 0.00017403)
(0.327285 0.402402 0.00209406)
(0.294575 0.354503 0.00501729)
(0.260611 0.309445 0.00816011)
(0.225425 0.269371 0.0105574)
(0.188178 0.232559 0.0119026)
(0.149447 0.193675 0.0121975)
(0.11431 0.155452 0.0123837)
(0.0859788 0.127395 0.0121057)
(0.0612337 0.107998 0.0105619)
(0.0343459 0.0923954 0.00918854)
(0.00877388 0.0782219 0.00740567)
(-0.00702335 0.0563221 0.0108464)
(-0.0207933 0.0347912 0.0114274)
(-0.0413736 0.0163642 0.0114105)
(-0.0653069 0.00255806 0.0122551)
(-0.0874645 -0.00610758 0.0140085)
(-0.108399 -0.0120972 0.0148251)
(-0.130631 -0.0196044 0.0156931)
(-0.154985 -0.0309769 0.0167402)
(-0.183308 -0.047966 0.0177211)
(-0.217343 -0.0729566 0.0179191)
(-0.250228 -0.106816 0.0172713)
(-0.272213 -0.148335 0.0131735)
(-0.296839 -0.214864 0.00925003)
(-0.329796 -0.31184 0.00655233)
(-0.350953 -0.434742 -0.000100469)
(-0.324003 -0.541081 -0.014546)
(-0.22995 -0.563043 -0.0341808)
(-0.0645464 -0.36189 -0.0462953)
(0.0292421 0.0343599 -0.0130247)
(0.00808467 0.26267 0.00531538)
(0.0443791 0.446358 -0.0182844)
(0.10704 0.570179 -0.0266135)
(0.179938 0.630179 -0.0249954)
(0.244174 0.641332 -0.0123313)
(0.295769 0.619006 -0.00475555)
(0.338734 0.57984 0.00215245)
(0.359958 0.532878 0.00427306)
(0.358615 0.480592 0.00249493)
(0.342614 0.426995 0.000941135)
(0.316968 0.375786 0.00148091)
(0.287532 0.325929 0.0040052)
(0.258725 0.277326 0.00794213)
(0.227956 0.231897 0.0118943)
(0.189577 0.188164 0.0149721)
(0.148882 0.143099 0.0187085)
(0.121767 0.105138 0.0213826)
(0.106246 0.0831839 0.0203594)
(0.0870329 0.0708157 0.0174049)
(0.0614872 0.0600589 0.0152981)
(0.0323807 0.0519695 0.0133253)
(0.00901941 0.0419251 0.0107751)
(-0.00625181 0.0247722 0.0123912)
(-0.0237627 0.00534208 0.0117266)
(-0.0423244 -0.00722495 0.0120646)
(-0.0598371 -0.0170076 0.0131673)
(-0.0783402 -0.025892 0.0143263)
(-0.0989657 -0.0345594 0.0156359)