/*--------------------------------*- C++ -*----------------------------------*\
| =========                 |                                                 |
| \\      /  F ield         | OpenFOAM: The Open Source CFD Toolbox           |
|  \\    /   O peration     | Version:  v1806                                 |
|   \\  /    A nd           | Web:      www.OpenFOAM.com                      |
|    \\/     M anipulation  |                                                 |
\*---------------------------------------------------------------------------*/
FoamFile
{
    version     2.0;
    format      ascii;
    class       surfaceScalarField;
    location    "0.079";
    object      phi;
}
// * * * * * * * * * * * * * * * * * * * * * * * * * * * * * * * * * * * * * //

dimensions      [0 3 -1 0 0 0 0];
oriented        oriented;


internalField   nonuniform List<scalar> 
187200
(
7.10595e-06
2.55259e-06
-9.66075e-06
5.05855e-05
-2.18457e-05
-2.16337e-05
7.24733e-05
-9.85038e-06
-1.20373e-05
9.18925e-05
-9.53008e-06
-9.88899e-06
0.000107829
-5.8621e-06
-1.00739e-05
0.000124888
-4.95948e-06
-1.20995e-05
0.00014005
-7.0564e-07
-1.44569e-05
0.000156805
5.09622e-07
-1.72645e-05
0.000170125
5.11112e-06
-1.84311e-05
0.000182731
6.08404e-06
-1.86897e-05
0.000194354
7.8194e-06
-1.94425e-05
0.000201808
1.28098e-05
-2.02635e-05
0.000192707
2.20032e-05
-1.29025e-05
0.000164734
3.61454e-05
-8.17247e-06
0.000119917
4.44197e-05
3.96454e-07
8.09733e-05
2.93448e-05
9.59863e-06
2.72845e-05
3.16589e-05
2.20298e-05
-2.49555e-05
4.56771e-05
6.56253e-06
-0.000122618
9.92603e-05
-1.59778e-06
-0.000254634
0.000136554
-4.53796e-06
-0.000505717
0.000225269
2.58136e-05
-0.000689432
0.000234604
-5.08888e-05
-0.000818638
0.000281417
-0.000152212
-0.000861761
0.000307272
-0.000264149
-0.00084516
0.000338426
-0.000355027
-0.000775744
0.000367231
-0.000436648
-0.000664955
0.000391946
-0.000502735
-0.0005266
0.000408105
-0.00054646
-0.000359818
0.000400203
-0.000566984
-0.000195758
0.000385137
-0.000549197
-6.29792e-05
0.000342832
-0.00047561
2.29041e-05
0.000298625
-0.000384508
5.6644e-05
0.000235924
-0.000269664
5.06143e-05
0.000174473
-0.000168443
2.71925e-05
0.000120506
-9.70842e-05
6.35721e-06
8.08676e-05
-6.00325e-05
-5.04559e-06
5.4998e-05
-4.35953e-05
-9.52272e-06
4.26123e-05
-3.81351e-05
-9.07368e-06
3.28825e-05
-3.33316e-05
2.29482e-05
-3.20216e-05
4.3048e-06
1.59699e-05
-1.7722e-05
4.46154e-05
-3.15672e-05
-3.05887e-05
8.6094e-05
-2.45113e-05
-2.68175e-05
0.000116692
-1.43883e-05
-2.574e-05
0.000138635
-2.96238e-06
-2.48423e-05
0.000155487
7.24885e-06
-2.90598e-05
0.000163167
2.68563e-05
-3.52424e-05
0.00016678
3.82117e-05
-4.13147e-05
0.000160298
6.3183e-05
-5.159e-05
0.000142891
8.19974e-05
-5.85065e-05
0.0001009
0.000125129
-7.53185e-05
3.80578e-05
0.000166197
-9.05459e-05
-4.64951e-05
0.000203474
-9.6918e-05
-0.000148295
0.000245597
-0.000107652
-0.000271826
0.000300069
-0.000132119
-0.000453434
0.00037474
-0.000163788
-0.000630337
0.000450491
-0.000241929
-0.000817652
0.000533533
-0.00030054
-0.000983991
0.000635526
-0.000369927
-0.00114102
0.000735308
-0.000441722
-0.00129375
0.000862287
-0.000484294
-0.00139153
0.000937961
-0.000605573
-0.0014488
0.00104409
-0.000705402
-0.00143888
0.00108879
-0.000791445
-0.00135729
0.00113385
-0.000877016
-0.00121444
0.00115824
-0.000933858
-0.00102184
0.00116445
-0.000965105
-0.000794113
0.00114251
-0.000962133
-0.000556647
0.00108352
-0.000920787
-0.000329009
0.00100437
-0.000846869
-0.000135327
0.000877151
-0.000728002
2.41557e-05
0.000734625
-0.000595483
0.000111358
0.00058082
-0.0004321
0.000137843
0.000452999
-0.000305012
0.000125784
0.00033366
-0.000201095
9.71437e-05
0.000247526
-0.000138018
6.52194e-05
0.00018559
-9.86679e-05
4.01051e-05
0.000145647
-7.792e-05
1.51946e-05
0.000116098
-5.83058e-05
8.03396e-05
-4.21972e-05
1.88965e-05
9.56814e-06
-1.24945e-05
5.72542e-05
-3.54181e-05
-3.45061e-05
9.81891e-05
-2.52348e-05
-4.02111e-05
0.00012757
-2.3945e-06
-4.13747e-05
0.000143432
2.87693e-05
-4.75939e-05
0.00014877
5.88306e-05
-5.69199e-05
0.000140329
0.000100459
-6.5162e-05
0.000123846
0.000137699
-8.30036e-05
9.56135e-05
0.000199294
-0.000107878
3.91585e-05
0.000266807
-0.000128355
-4.45346e-05
0.000349905
-0.000141083
-0.00014862
0.000433227
-0.000162945
-0.000303537
0.000537298
-0.000178907
-0.000481193
0.000645251
-0.000221998
-0.000680034
0.000754263
-0.000255354
-0.000864176
0.000865311
-0.000306429
-0.00102508
0.000973307
-0.000361917
-0.00116889
0.00109509
-0.000417748
-0.00130229
0.00123822
-0.000469295
-0.00143177
0.00138385
-0.00051907
-0.00155528
0.0015218
-0.000535998
-0.00162327
0.00160537
-0.000599421
-0.00164327
0.00171208
-0.000647994
-0.00161048
0.001733
-0.000676997
-0.00151791
0.00175584
-0.000714557
-0.00137901
0.00174459
-0.000725244
-0.00120321
0.00170423
-0.000715578
-0.00100255
0.00162504
-0.000683192
-0.000790322
0.00150685
-0.000635554
-0.000570343
0.00135831
-0.00057392
-0.000381852
0.00118202
-0.000493359
-0.000221198
0.00100044
-0.000426466
-0.000102721
0.000799916
-0.000337572
-1.96815e-05
0.000638528
-0.000268569
2.27922e-05
0.000489813
-0.000198627
3.84503e-05
0.000383785
-0.000151918
4.02808e-05
0.00030483
-0.00012107
3.20633e-05
0.00025379
-9.99264e-05
1.44762e-05
0.000204898
-7.12128e-05
0.000136834
-4.20177e-05
2.08143e-05
6.4807e-06
-1.77265e-05
5.87619e-05
-2.65374e-05
-4.68277e-05
9.90094e-05
-6.73964e-06
-5.87424e-05
0.00012061
4.18026e-05
-6.57977e-05
0.000124932
9.62842e-05
-7.18368e-05
0.000114034
0.000154814
-8.5087e-05
9.39833e-05
0.000230454
-0.000109944
5.6446e-05
0.000310899
-0.000135663
5.27608e-07
0.000422609
-0.000167397
-8.18005e-05
0.000536007
-0.000186873
-0.000198767
0.000669196
-0.000202325
-0.000344993
0.000799894
-0.00022044
-0.000505797
0.000931335
-0.000233234
-0.000660793
0.00104984
-0.000249598
-0.000811928
0.00117682
-0.000271427
-0.000953217
0.00130507
-0.00029847
-0.00108303
0.00142928
-0.000326163
-0.00119793
0.00155253
-0.000342533
-0.00130386
0.00169238
-0.000348238
-0.00140624
0.00182187
-0.000335626
-0.0015207
0.00192038
-0.000284126
-0.00158333
0.00195914
-0.000291144
-0.0016019
0.00202165
-0.000290991
-0.00157866
0.00198776
-0.000277996
-0.00150674
0.00196524
-0.000281327
-0.00140456
0.00191037
-0.000267973
-0.00127849
0.00182842
-0.000250254
-0.00113632
0.00171362
-0.00023074
-0.000982513
0.00156262
-0.000209582
-0.000815734
0.00139687
-0.000205339
-0.000637177
0.00120761
-0.000204153
-0.000461006
0.00102677
-0.000202508
-0.000305515
0.000841595
-0.00019717
-0.000180356
0.000703224
-0.000189854
-9.31487e-05
0.000572702
-0.000170096
-3.33393e-05
0.000473358
-0.000149381
4.29219e-06
0.000401663
-0.000134465
1.84422e-05
0.000349129
-0.000109488
1.57839e-05
0.000285715
-7.81582e-05
0.000192232
-3.96144e-05
2.14211e-05
2.09786e-05
-3.59187e-05
6.06778e-05
1.00706e-05
-7.58646e-05
0.000102986
4.25041e-05
-9.15516e-05
0.000121025
0.000122004
-9.82411e-05
0.000116525
0.000206425
-0.000105641
8.80465e-05
0.000304235
-0.000120942
4.67949e-05
0.000423492
-0.000151787
5.16522e-06
0.000534894
-0.000182365
-4.17729e-05
0.000678728
-0.000209181
-0.000116019
0.000829005
-0.000218752
-0.000211624
0.000984921
-0.000220121
-0.000319016
0.00112402
-0.000216731
-0.000447052
0.00126732
-0.000207949
-0.000585872
0.00139628
-0.000207617
-0.000723969
0.00151641
-0.000201486
-0.000845577
0.00162381
-0.000197132
-0.000948491
0.00171546
-0.000183264
-0.00102527
0.00178189
-0.000152585
-0.00111504
0.00187002
-8.78704e-05
-0.00120883
0.00193879
-2.31277e-05
-0.0013414
0.00197987
7.30723e-05
-0.00141122
0.00193081
9.81548e-05
-0.00144724
0.00194802
0.000109652
-0.00145547
0.00188197
0.000114022
-0.00142826
0.00184098
9.70562e-05
-0.00138312
0.00177742
8.78084e-05
-0.00131923
0.00169059
7.39377e-05
-0.00124906
0.00158389
5.95512e-05
-0.00115351
0.00144813
1.89503e-05
-0.00103344
0.00130297
-2.61651e-05
-0.000886502
0.00113846
-7.77839e-05
-0.000720233
0.000987858
-0.000127354
-0.000553237
0.000832236
-0.000157637
-0.000389991
0.000716202
-0.000176223
-0.000252383
0.000617472
-0.000182378
-0.000138342
0.000526224
-0.000166907
-5.64099e-05
0.000467612
-0.000147881
-6.04375e-06
0.000421019
-0.000122257
9.04811e-06
0.000352725
-8.21029e-05
0.000236887
-3.56068e-05
1.45132e-05
6.92258e-05
-6.27603e-05
6.28547e-05
7.78624e-05
-0.000116133
0.000107356
0.000136636
-0.000138633
0.000126284
0.000241225
-0.000138148
0.000116536
0.000355031
-0.000138858
8.35289e-05
0.000486812
-0.00014957
5.63765e-05
0.000636506
-0.000185862
2.30126e-05
0.000784251
-0.000215993
-2.50654e-05
0.00095376
-0.000226955
-8.9475e-05
0.00110788
-0.000214467
-0.0001625
0.00125395
-0.000196001
-0.000246072
0.00138063
-0.000173043
-0.000332871
0.00150001
-0.000145889
-0.000415401
0.00159504
-0.000116225
-0.000497143
0.00168035
-8.22038e-05
-0.000565536
0.00173703
-4.48239e-05
-0.000654933
0.00177982
2.50422e-05
-0.000756916
0.00179584
8.80309e-05
-0.000856567
0.00180445
0.000165221
-0.00094907
0.00178458
0.000246708
-0.00108603
0.00180697
0.000309866
-0.00118611
0.00170717
0.000323721
-0.0012573
0.0016966
0.00032261
-0.00131173
0.00161756
0.000318838
-0.00133666
0.00156879
0.000297113
-0.00134857
0.00151076
0.000278565
-0.00134606
0.00144155
0.000246532
-0.00133305
0.00136255
0.000208343
-0.00129535
0.00126193
0.000148487
-0.00121095
0.00115889
5.96698e-05
-0.00109625
0.0010393
-1.5542e-05
-0.000933687
0.000926019
-0.000100725
-0.000756992
0.000812935
-0.000157394
-0.000563512
0.000717158
-0.000194436
-0.000385162
0.000647768
-0.000208646
-0.000233386
0.000566861
-0.000192414
-0.000111998
0.000519272
-0.000173049
-3.21549e-05
0.000477584
-0.000136409
5.38953e-06
0.000404489
-8.93076e-05
0.000276614
-3.43381e-05
1.77119e-05
0.00014645
-9.4936e-05
8.31223e-05
0.000182161
-0.000169709
0.000132535
0.00027178
-0.000184558
0.000153961
0.000394903
-0.000175104
0.000145527
0.000532876
-0.000169412
0.000101471
0.000703909
-0.000173041
9.04936e-05
0.000856354
-0.000208871
6.91652e-05
0.0010235
-0.000217925
4.95651e-05
0.00117831
-0.000204952
9.37041e-06
0.00131916
-0.000171083
-4.37278e-05
0.00144374
-0.000136698
-0.000110184
0.00154608
-9.89905e-05
-0.000180004
0.00163008
-6.02512e-05
-0.000251358
0.00168167
-1.528e-05
-0.000321858
0.00171095
3.98996e-05
-0.000383733
0.0017086
9.02968e-05
-0.000449336
0.00169452
0.000150901
-0.000516624
0.00164562
0.000217511
-0.000618174
0.00161053
0.000295475
-0.000722724
0.00152731
0.000361817
-0.000857874
0.00152361
0.000418508
-0.000995712
0.00140781
0.000437202
-0.00107972
0.00136286
0.000417743
-0.00118063
0.00131714
0.000401332
-0.00125393
0.00128024
0.000361853
-0.00131987
0.00124845
0.000328245
-0.00137038
0.00121012
0.000281939
-0.00140424
0.00116583
0.00023058
-0.00141375
0.00110849
0.000162963
-0.00136435
0.00104635
6.31399e-05
-0.00127818
0.000965352
-1.22258e-05
-0.00113853
0.000879065
-9.26922e-05
-0.000953403
0.000793824
-0.000166017
-0.000733107
0.000703039
-0.000206176
-0.000502062
0.000660788
-0.000244065
-0.000319966
0.000610609
-0.000225844
-0.000160055
0.00056414
-0.000204779
-5.4632e-05
0.000530569
-0.000158408
6.36879e-07
0.000452968
-0.000103747
0.000314667
-3.74172e-05
2.76346e-05
0.000246615
-0.000127799
0.000110555
0.000316299
-0.000217058
0.000175739
0.000433856
-0.000227259
0.000201941
0.000569312
-0.00020061
0.000192981
0.000721714
-0.000179878
0.000179407
0.000897835
-0.000180352
0.000186034
0.00104921
-0.000199487
0.000182399
0.00121783
-0.00019069
0.000166425
0.00135283
-0.000158542
0.000126731
0.00147219
-0.000113341
7.90109e-05
0.0015669
-7.54381e-05
2.28205e-05
0.00162945
-2.71801e-05
-3.86531e-05
0.00166504
2.65102e-05
-0.000102823
0.00166297
8.28735e-05
-0.000164933
0.00163781
0.000135251
-0.000229086
0.00158197
0.00019079
-0.000294484
0.00151548
0.000244438
-0.000364972
0.00142913
0.000286979
-0.000455115
0.00136115
0.000339519
-0.000560621
0.00125472
0.000378099
-0.000676986
0.00122327
0.000416704
-0.000844157
0.00115188
0.000423094
-0.00095379
0.00107293
0.000399558
-0.00109085
0.00107754
0.000376671
-0.00120341
0.00105264
0.000340155
-0.00130374
0.00104561
0.000303181
-0.00138915
0.00103211
0.000263414
-0.00145748
0.001012
0.000222154
-0.0014949
0.000987122
0.000158788
-0.00147952
0.000944114
8.68605e-05
-0.00141766
0.00088712
1.63688e-05
-0.00129818
0.000817386
-5.77958e-05
-0.001111
0.0007525
-0.000145862
-0.000894647
0.000688006
-0.000201319
-0.000641103
0.00064771
-0.000240467
-0.000412892
0.000639445
-0.000257048
-0.000216064
0.000595365
-0.000228054
-7.98561e-05
0.000575923
-0.000181562
-6.30947e-06
0.000495753
-0.000116331
0.000350263
-4.19044e-05
4.6241e-05
0.000357029
-0.000156655
0.000152815
0.000469665
-0.000259939
0.000246275
0.000608392
-0.000267997
0.00028946
0.000749735
-0.000223609
0.00028505
0.000914019
-0.000187894
0.000282606
0.00107506
-0.000174781
0.000279306
0.0012201
-0.000167585
0.000282991
0.00136231
-0.000148169
0.000276896
0.00147143
-0.000112512
0.00024585
0.00156452
-6.12845e-05
0.000202188
0.00161794
-7.37903e-06
0.000149082
0.00163667
4.58829e-05
8.27405e-05
0.0016297
0.000101689
1.47198e-05
0.00158208
0.000148906
-5.25305e-05
0.00151141
0.000193654
-0.000122781
0.00141709
0.000235133
-0.000195407
0.00131989
0.000268215
-0.000269723
0.00121375
0.000289694
-0.00034852
0.00112983
0.000310115
-0.000463694
0.00103671
0.000333188
-0.000573472
0.000983321
0.000349725
-0.000739438
0.000963632
0.000354219
-0.000886703
0.000879852
0.000340347
-0.00103511
0.000909456
0.00031649
-0.00117161
0.000894294
0.000294842
-0.00128986
0.000902904
0.000260957
-0.00139941
0.000898815
0.000242836
-0.00148975
0.000898128
0.000204221
-0.00155714
0.000879544
0.000174964
-0.00157806
0.000845332
0.000119706
-0.00153666
0.000795464
5.02569e-05
-0.00143106
0.000741132
-2.93491e-05
-0.00124937
0.000683157
-0.000112348
-0.00101884
0.000636978
-0.000179503
-0.000748282
0.000605699
-0.000228546
-0.00049166
0.000633561
-0.000250739
-0.000268466
0.000618823
-0.000246652
-0.000101803
0.000608575
-0.000199316
-1.45755e-05
0.000539004
-0.000130479
0.000384441
-4.87521e-05
6.41688e-05
0.000464979
-0.000172119
0.00019671
0.000628065
-0.000290942
0.000316476
0.000783232
-0.000294605
0.000373652
0.000925848
-0.000233289
0.000388477
0.00107749
-0.000178294
0.000386808
0.00121885
-0.000142119
0.000377615
0.00135176
-0.000122469
0.00037371
0.00146289
-9.66701e-05
0.000365435
0.00154111
-6.1403e-05
0.000348386
0.00158999
-8.4179e-06
0.000311311
0.00161565
3.93643e-05
0.000241486
0.00160298
0.000103518
0.000172327
0.00154926
0.0001496
9.79477e-05
0.00146497
0.000191494
2.20244e-05
0.00136395
0.000223376
-5.65083e-05
0.00124908
0.00024654
-0.000135336
0.00113977
0.000258948
-0.000215509
0.00103409
0.000259831
-0.000300474
0.000954733
0.000260064
-0.000416327
0.000888156
0.000264403
-0.000540647
0.000835528
0.000272114
-0.000683975
0.000828492
0.000278467
-0.000852125
0.000766033
0.000281969
-0.000990869
0.000782124
0.000266077
-0.00113548
0.000776537
0.000262371
-0.00125697
0.000788124
0.000236264
-0.00137932
0.000787935
0.00023323
-0.00149097
0.000787949
0.000221834
-0.00157768
0.000764791
0.000201464
-0.0016243
0.000734559
0.000157395
-0.00160964
0.000696781
8.40146e-05
-0.00152383
0.00065529
3.81624e-08
-0.00136343
0.000612883
-9.01294e-05
-0.0011334
0.000577081
-0.000170133
-0.000862009
0.000543415
-0.000209107
-0.000568946
0.000576564
-0.000236065
-0.000319755
0.000613708
-0.000244075
-0.000127524
0.000623142
-0.000206798
-2.31057e-05
0.000571687
-0.0001371
0.000414527
-5.3191e-05
8.01531e-05
0.000563194
-0.000178368
0.000242062
0.000777016
-0.00031086
0.000388356
0.000946211
-0.000309273
0.000464436
0.00108409
-0.000234321
0.000495057
0.00121396
-0.00016709
0.000492083
0.00133169
-0.00010987
0.000482621
0.00143938
-7.81578e-05
0.000466361
0.00152105
-4.19035e-05
0.000439699
0.00157529
-7.51678e-06
0.000404862
0.00159666
2.81702e-05
0.000370652
0.00157434
7.55159e-05
0.00031439
0.00152495
0.000134288
0.000238128
0.00145055
0.000174969
0.000149908
0.00134167
0.000211516
6.41029e-05
0.00122107
0.000228688
-2.29043e-05
0.00109966
0.000236425
-0.000109851
0.000992988
0.000233728
-0.00019863
0.00089768
0.000225194
-0.00029594
0.000832865
0.000219177
-0.000399765
0.000778678
0.000213304
-0.000519017
0.000739143
0.000215637
-0.000634434
0.000719181
0.000224728
-0.000801964
0.00069428
0.000239283
-0.000935136
0.000677482
0.000237813
-0.00107385
0.000672485
0.000242771
-0.00120074
0.000674754
0.000240253
-0.00133105
0.000677764
0.00024048
-0.00145906
0.000666537
0.000249428
-0.00156893
0.000647889
0.00022677
-0.00163905
0.000623643
0.000181036
-0.00166097
0.000589902
0.000128796
-0.00160675
0.000564755
3.63144e-05
-0.00146386
0.000527939
-5.79457e-05
-0.00122347
0.000503313
-0.000166619
-0.0009363
0.000476191
-0.000219946
-0.000631463
0.00050618
-0.000234453
-0.000366306
0.000571685
-0.000223134
-0.000149595
0.000625415
-0.000218984
-2.96732e-05
0.000594229
-0.000142464
0.000444972
-6.01184e-05
9.27524e-05
0.000643716
-0.000173275
0.000281421
0.000907195
-0.000318847
0.000452633
0.00109027
-0.000315266
0.000547045
0.00121603
-0.000226352
0.000589415
0.00132126
-0.000149677
0.000591315
0.00141104
-8.12475e-05
0.000579368
0.00149059
-3.92652e-05
0.000550936
0.00154491
4.57094e-06
0.000510976
0.00157349
4.17627e-05
0.000458272
0.00156246
8.69003e-05
0.000401517
0.00152317
0.00010793
0.000334903
0.00144438
0.000147186
0.000265413
0.00133539
0.000184651
0.000180402
0.0012172
0.000209486
9.0319e-05
0.00109332
0.000217831
-1.81167e-06
0.000977633
0.000214157
-9.13437e-05
0.000878939
0.00020358
-0.000185463
0.000798143
0.000193656
-0.000286583
0.000746493
0.000187492
-0.000387587
0.000697901
0.000181781
-0.000495104
0.000663174
0.000183485
-0.000595217
0.000626099
0.000193195
-0.000738192
0.000622437
0.000214818
-0.000858763
0.000580166
0.000217887
-0.000985229
0.000564564
0.000234387
-0.00110792
0.000560567
0.000236879
-0.00124758
0.000551967
0.000265458
-0.00138688
0.000543269
0.000262568
-0.00151167
0.0005304
0.000242277
-0.00161402
0.000516076
0.000209919
-0.00165488
0.000503673
0.000127083
-0.00163335
0.000485629
5.75948e-05
-0.00152934
0.000452176
-2.82487e-05
-0.00133123
0.000427713
-0.000122502
-0.00103723
0.000412636
-0.000230454
-0.000701295
0.000427123
-0.000256873
-0.000400495
0.000498126
-0.000227242
-0.000172841
0.000595553
-0.000197791
-3.70806e-05
0.00060414
-0.000145672
0.000471104
-6.32122e-05
0.000102743
0.000701063
-0.00016009
0.000314477
0.00101211
-0.000316649
0.00051124
0.00120469
-0.000311188
0.000625568
0.00131612
-0.000214414
0.000674178
0.00140047
-0.000127818
0.000681579
0.00146364
-6.00054e-05
0.000666901
0.00151152
-6.25222e-06
0.000631422
0.00153682
4.35697e-05
0.000579089
0.00153873
8.70897e-05
0.000511006
0.00150874
0.000121801
0.00043511
0.00144592
0.000153143
0.000353396
0.00135307
0.000173026
0.000271994
0.00123505
0.000181744
0.000187701
0.00110608
0.000195404
9.95313e-05
0.000985493
0.000195998
9.64245e-06
0.000877889
0.000189633
-7.77292e-05
0.000789121
0.00017719
-0.000169753
0.000718726
0.000171442
-0.00026516
0.000673189
0.000168711
-0.000362751
0.00062612
0.000169372
-0.000454562
0.000583598
0.000171386
-0.000550353
0.000544216
0.000177673
-0.000657633
0.000534856
0.000194861
-0.000758535
0.000479596
0.000201472
-0.000869935
0.000457732
0.000218231
-0.000992525
0.00044084
0.000242316
-0.00113174
0.00043218
0.000259004
-0.00127614
0.000425826
0.000261836
-0.00141939
0.000421328
0.000252325
-0.00153678
0.000423226
0.000210238
-0.00162442
0.000420776
0.000170536
-0.00163802
0.000398735
0.000100498
-0.00158106
0.000356871
3.83399e-05
-0.00141599
0.000320087
-5.74408e-05
-0.00114499
0.000309099
-0.000167468
-0.00079366
0.000333382
-0.000257586
-0.000451109
0.000417313
-0.000261737
-0.00019506
0.000531517
-0.000192013
-4.46752e-05
0.000599768
-0.000146012
0.000495946
-6.95164e-05
0.000106448
0.000737655
-0.000143039
0.000337046
0.00108819
-0.000306683
0.00055823
0.00128999
-0.000306486
0.000689768
0.00138836
-0.000203783
0.000744621
0.00145156
-0.000105947
0.000751335
0.00149048
-3.35463e-05
0.000731585
0.00151428
1.69953e-05
0.000685425
0.00150942
7.35572e-05
0.000624613
0.00148624
0.000113303
0.000551416
0.001433
0.000148942
0.000464263
0.00135662
0.000176454
0.000368737
0.00125285
0.000195745
0.000273208
0.00113348
0.000197099
0.000189551
0.00100623
0.000183513
0.000104698
0.000891216
0.00017913
2.31778e-05
0.000793231
0.000166179
-6.17946e-05
0.000715011
0.000159082
-0.000151879
0.000651462
0.000157348
-0.000234926
0.00059938
0.000156858
-0.000322205
0.000550449
0.000162951
-0.000400653
0.000499533
0.000162513
-0.000487633
0.00046206
0.000169136
-0.000558856
0.000434923
0.000171157
-0.00064598
0.000383014
0.000183704
-0.000746413
0.000356141
0.000202024
-0.000857851
0.000326353
0.000225926
-0.000989317
0.00031901
0.000244634
-0.00113146
0.000315337
0.000252637
-0.00127873
0.000325723
0.000242871
-0.00142699
0.000334654
0.000236826
-0.00154038
0.000325016
0.000209158
-0.00160828
0.000286813
0.000179819
-0.00159739
0.000234932
0.000111048
-0.0014792
0.000184782
1.71196e-05
-0.00123564
0.00015919
-9.36579e-05
-0.000890577
0.000190053
-0.000201729
-0.000508173
0.000303253
-0.000268344
-0.000217812
0.000462211
-0.000221054
-4.90574e-05
0.00057768
-0.000146667
0.000521825
-7.49382e-05
0.000111498
0.000744004
-0.000117847
0.000358966
0.00112786
-0.00028713
0.000599283
0.00134178
-0.000292102
0.000747586
0.0014342
-0.000194144
0.000807606
0.00147721
-8.56673e-05
0.000812165
0.00149034
-4.42696e-06
0.000785659
0.0014859
5.488e-05
0.00073836
0.00145952
9.72033e-05
0.000671533
0.00141518
0.00013789
0.00058949
0.001348
0.000167037
0.000494702
0.00125972
0.000191687
0.000390625
0.0011505
0.000206421
0.00028403
0.00103346
0.000206616
0.000191031
0.00091371
0.000185517
0.000106987
0.000808808
0.000166452
3.14901e-05
0.000715147
0.00015358
-4.27612e-05
0.000643699
0.000145564
-0.000122149
0.000580619
0.000150232
-0.000197002
0.000524523
0.000149711
-0.000271215
0.000471332
0.00015333
-0.000343166
0.00041662
0.000154864
-0.000409897
0.000377625
0.000151167
-0.000464686
0.000340893
0.000148817
-0.000533747
0.000293604
0.000158471
-0.00061882
0.000266823
0.000174391
-0.000718191
0.000229461
0.000196263
-0.000832875
0.000218022
0.000215672
-0.000965877
0.000223876
0.000224461
-0.00111754
0.000240227
0.000237156
-0.00126664
0.000243399
0.000240362
-0.00141071
0.000223639
0.00024544
-0.00152239
0.000182203
0.00021629
-0.00156805
0.000118497
0.000162098
-0.00150878
4.65676e-05
7.89466e-05
-0.00131359
-3.7627e-06
-3.2235e-05
-0.000998874
1.08898e-05
-0.000135556
-0.000592498
0.000130416
-0.000233539
-0.000245721
0.000368308
-0.000252873
-6.00817e-05
0.000535475
-0.000143432
0.000537095
-7.5352e-05
0.00011228
0.000724683
-9.29595e-05
0.000369062
0.00113312
-0.000262048
0.000623246
0.00136044
-0.000272844
0.000784731
0.00145009
-0.000177372
0.000852402
0.00147987
-7.03349e-05
0.000851788
0.00146847
2.24854e-05
0.000818954
0.00144295
7.57861e-05
0.000760943
0.00139416
0.000123366
0.000688434
0.00133431
0.000153375
0.000605249
0.00125459
0.000176601
0.000507631
0.00115619
0.000201147
0.000403077
0.00104758
0.000207482
0.000298915
0.000933028
0.000204589
0.000202514
0.000822822
0.000187289
0.00012248
0.000725668
0.000163174
5.13306e-05
0.000639544
0.000146753
-1.72113e-05
0.000571968
0.000140273
-8.8685e-05
0.000512483
0.000139609
-0.000153423
0.000449956
0.000139305
-0.000211907
0.000388848
0.000140968
-0.000275713
0.000342522
0.000137904
-0.000329851
0.00030157
0.000130192
-0.000379245
0.000262576
0.000127711
-0.000433454
0.00021752
0.000130292
-0.000500563
0.000187914
0.000146017
-0.000589496
0.000153916
0.000164477
-0.000685728
0.000136043
0.00017821
-0.000810594
0.000148516
0.000200226
-0.000943856
0.000150636
0.000222852
-0.00109566
0.000141642
0.000253563
-0.00125388
0.000120574
0.000261289
-0.00139524
7.39148e-05
0.00024964
-0.00148684
3.99195e-06
0.000206109
-0.0014838
-8.92623e-05
0.000132784
-0.0013517
-0.000168123
3.2262e-05
-0.00106948
-0.000191415
-7.99156e-05
-0.000678436
-8.09395e-05
-0.000179686
-0.000277961
0.000196564
-0.000228731
-6.27808e-05
0.000481405
-0.000161109
0.000548932
-7.46157e-05
0.000122724
0.000637374
-3.54153e-05
0.000389263
0.00108698
-0.000220402
0.000656037
0.0013363
-0.00024264
0.000835761
0.00142399
-0.000153626
0.000906759
0.00144257
-3.36968e-05
0.00090212
0.00141534
5.77764e-05
0.000860719
0.00136968
0.000114668
0.000800163
0.00130372
0.000151003
0.000726233
0.00123436
0.000173883
0.000640049
0.00115105
0.000189723
0.000542718
0.00105727
0.000196256
0.000435055
0.000951317
0.000203921
0.000326996
0.000846162
0.000194925
0.000226585
0.00074337
0.000179863
0.00014278
0.000651603
0.00015787
6.61564e-05
0.000573076
0.000143092
2.81897e-06
0.000503021
0.000132285
-4.77961e-05
0.000434098
0.000129
-9.83345e-05
0.000376834
0.00012366
-0.000158374
0.000328219
0.000120668
-0.000213696
0.000281929
0.000115916
-0.000259457
0.000237618
0.000109713
-0.000302495
0.000197343
0.00010827
-0.000350381
0.000156755
0.00010865
-0.000401701
0.000121509
0.000117726
-0.000474754
8.8519e-05
0.000138449
-0.000558784
6.446e-05
0.000155612
-0.000657337
6.62758e-05
0.000180793
-0.000778456
5.62466e-05
0.000215508
-0.000922716
4.22969e-05
0.000243605
-0.00108452
1.80299e-05
0.000264352
-0.00124345
-3.20948e-05
0.000264933
-0.00137093
-0.000108288
0.00023976
-0.00142131
-0.000218977
0.000180094
-0.00135201
-0.000326126
8.87033e-05
-0.00113293
-0.000388248
-2.22484e-05
-0.000775268
-0.000315159
-0.00012344
-0.000349453
-4.73978e-05
-0.000181854
-6.65604e-05
0.000378871
-0.000180359
0.000545288
-6.29168e-05
0.000118693
0.000527969
-9.28828e-06
0.000372745
0.00103361
-0.000200682
0.000650469
0.00129603
-0.000237452
0.000844582
0.0013854
-0.000155526
0.000926918
0.00139385
-3.36126e-05
0.000922831
0.00134954
6.98865e-05
0.000882013
0.0012842
0.000126299
0.000810522
0.00121249
0.000162721
0.000722268
0.00113659
0.000186021
0.00062962
0.00104446
0.00019924
0.000534209
0.000947457
0.000205221
0.000436563
0.000847489
0.000201474
0.000340721
0.000749708
0.000192296
0.000253063
0.000660602
0.000170426
0.000179023
0.000576138
0.000149505
0.000113463
0.000503163
0.000135473
4.98821e-05
0.000437748
0.000128854
-1.47646e-05
0.000379941
0.000118804
-6.9426e-05
0.000324197
0.000107298
-0.000114811
0.000272716
0.000100888
-0.000158423
0.000228257
9.72842e-05
-0.000197363
0.000184856
9.17024e-05
-0.000238065
0.000146019
9.20239e-05
-0.000276821
0.000106548
8.89635e-05
-0.000324995
6.85222e-05
0.000101159
-0.000384236
3.15204e-05
0.000116239
-0.00046035
4.15059e-07
0.000140159
-0.000542771
-2.22201e-05
0.000170917
-0.000645278
-4.64098e-05
0.000205163
-0.00076647
-7.66384e-05
0.000240127
-0.000911738
-0.000105431
0.000268729
-0.00107055
-0.00015602
0.000282737
-0.00122274
-0.000226855
0.000270754
-0.00131825
-0.000349211
0.00022575
-0.00130661
-0.000486783
0.00014902
-0.00113799
-0.000610014
5.31397e-05
-0.000806477
-0.000587329
-5.93404e-05
-0.000392724
-0.000320365
-0.000140785
-6.14089e-05
0.00019756
-0.000150004
0.000527591
-4.37124e-05
0.000146285
0.000333892
4.7791e-05
0.00038016
0.000922226
-0.000122487
0.000663297
0.00119924
-0.00018635
0.000861441
0.00129482
-0.000107562
0.000953622
0.00129385
7.82601e-06
0.000948002
0.00124798
0.000107178
0.000901565
0.00117237
0.000158274
0.000833319
0.00108861
0.000192119
0.000762585
0.00100363
0.000203695
0.000685884
0.000915044
0.000206114
0.000600339
0.000832033
0.000200968
0.000504608
0.00075094
0.00019228
0.000404592
0.000671597
0.000178128
0.000308248
0.000598918
0.000158027
0.000225687
0.000528987
0.000129713
0.000151212
0.000465498
0.000112141
8.39891e-05
0.000398541
0.00010643
1.93726e-05
0.000337963
0.000106595
-3.13161e-05
0.000281234
9.36515e-05
-7.3827e-05
0.00023101
8.42174e-05
-0.000110723
0.00018314
8.20126e-05
-0.000146016
0.000143058
7.70904e-05
-0.000180134
0.000103581
7.65556e-05
-0.000216188
6.65737e-05
7.60277e-05
-0.000260371
2.54981e-05
8.72071e-05
-0.000309917
-1.56596e-05
9.67257e-05
-0.000367537
-5.43669e-05
0.000112402
-0.000434852
-9.83917e-05
0.000143486
-0.000523368
-0.000137795
0.000179901
-0.000637739
-0.000179254
0.000216986
-0.000780948
-0.00021803
0.000255808
-0.000938001
-0.000291377
0.00029241
-0.00110072
-0.000378498
0.000314359
-0.0012233
-0.000531079
0.000304449
-0.00126989
-0.000694681
0.000254484
-0.00117799
-0.000874781
0.000172867
-0.000897908
-0.000925007
5.75975e-05
-0.000465642
-0.000702049
-5.05812e-05
-8.77482e-05
-8.22136e-05
-9.81198e-05
0.000452147
-1.23034e-05
0.00011721
0.000205689
1.09925e-05
0.000333773
0.000843767
-0.000138104
0.000620908
0.00111804
-0.000205929
0.000833959
0.00121706
-0.000135295
0.000943307
0.00120422
-1.97249e-05
0.000965413
0.00114533
8.05468e-05
0.00093136
0.0010536
0.00015282
0.000870449
0.000973937
0.000175589
0.000791662
0.000898896
0.00018352
0.000700165
0.000824133
0.000182408
0.000604815
0.000749721
0.000177662
0.000507576
0.00067844
0.000169739
0.000414557
0.000608204
0.000156411
0.000326361
0.000546411
0.000140703
0.000246228
0.000485355
0.000123766
0.000182295
0.00042926
0.00010017
0.000127272
0.000368035
8.55287e-05
7.25613e-05
0.000310409
8.2265e-05
1.91008e-05
0.000251698
8.2997e-05
-2.16301e-05
0.000195977
7.57639e-05
-6.42804e-05
0.000154694
7.10955e-05
-9.67833e-05
0.000106988
6.85731e-05
-0.000131657
7.15317e-05
6.6922e-05
-0.000165325
2.99063e-05
7.03348e-05
-0.000205879
-1.21015e-05
7.81532e-05
-0.000256287
-5.02092e-05
8.49573e-05
-0.00031086
-9.14882e-05
9.16952e-05
-0.000371637
-0.000149244
0.000111629
-0.000439344
-0.000212913
0.000142826
-0.000513495
-0.000285267
0.000180163
-0.000602649
-0.000355275
0.0002264
-0.000719609
-0.000451591
0.000277174
-0.000871687
-0.000548912
0.000322491
-0.00103877
-0.000708676
0.000344682
-0.00115984
-0.00090672
0.000333108
-0.00114824
-0.00115175
0.000265361
-0.000969842
-0.00126525
0.000161849
-0.000572505
-0.00113467
3.52799e-05
-0.000147142
-0.000484945
-2.26337e-05
0.000255742
4.92628e-05
8.5586e-05
0.000103578
1.65246e-05
0.000325648
0.0007259
-0.000122196
0.000602661
0.00102625
-0.000185223
0.000830989
0.00113464
-0.000145907
0.000951933
0.0011255
-4.22187e-05
0.00098047
0.00106382
5.2972e-05
0.000936226
0.000970138
0.000127703
0.000868621
0.000882661