/*--------------------------------*- C++ -*----------------------------------*\
| =========                 |                                                 |
| \\      /  F ield         | OpenFOAM: The Open Source CFD Toolbox           |
|  \\    /   O peration     | Version:  v1806                                 |
|   \\  /    A nd           | Web:      www.OpenFOAM.com                      |
|    \\/     M anipulation  |                                                 |
\*---------------------------------------------------------------------------*/
FoamFile
{
    version     2.0;
    format      ascii;
    class       volScalarField;
    location    "0.09";
    object      p;
}
// * * * * * * * * * * * * * * * * * * * * * * * * * * * * * * * * * * * * * //

dimensions      [0 2 -2 0 0 0 0];


internalField   nonuniform List<scalar> 
64000
(
-5.97892e-05
-0.11019
-0.267747
-0.369434
-0.446198
-0.510223
-0.569906
-0.623671
-0.675472
-0.727968
-0.776115
-0.820963
-0.884679
-0.961652
-0.989153
-1.07722
-1.05946
-1.1864
-1.09362
-1.34362
-1.11039
-1.37114
-1.30998
-1.38608
-1.2816
-1.25797
-1.14062
-1.10003
-1.03949
-1.04043
-1.03329
-1.07452
-1.13354
-1.18182
-1.23771
-1.26159
-1.30171
-1.30883
-1.32139
-1.31571
-0.102072
-0.212943
-0.308805
-0.383866
-0.452275
-0.50788
-0.560788
-0.61086
-0.659165
-0.702688
-0.753257
-0.805389
-0.839816
-0.900941
-0.920115
-0.988836
-1.02571
-1.13913
-1.05152
-1.25533
-1.05727
-1.28717
-1.26999
-1.32699
-1.21694
-1.19666
-1.09547
-1.06652
-1.01972
-1.02148
-1.04153
-1.04353
-1.11389
-1.14954
-1.20913
-1.23489
-1.27608
-1.28924
-1.30822
-1.30689
-0.242389
-0.287886
-0.345871
-0.406925
-0.463709
-0.509819
-0.563568
-0.607363
-0.643522
-0.702085
-0.748036
-0.811601
-0.856963
-0.960125
-1.00238
-1.09861
-1.09371
-1.22146
-1.15521
-1.39789
-1.26701
-1.53657
-1.59173
-1.69472
-1.62679
-1.63669
-1.55529
-1.52759
-1.45393
-1.40655
-1.36545
-1.32673
-1.324
-1.28936
-1.30555
-1.29941
-1.31865
-1.31951
-1.33177
-1.33278
-0.311968
-0.333484
-0.36853
-0.419235
-0.455772
-0.499235
-0.544568
-0.586359
-0.651355
-0.713857
-0.77193
-0.861965
-0.935796
-1.03854
-1.09305
-1.19437
-1.23794
-1.38776
-1.36934
-1.63788
-1.54872
-1.83814
-1.95294
-2.0778
-2.03806
-2.05462
-1.97571
-1.93106
-1.83572
-1.74966
-1.65886
-1.55658
-1.48821
-1.42083
-1.39331
-1.36136
-1.37325
-1.35672
-1.36407
-1.36804
-0.353264
-0.350777
-0.391514
-0.420463
-0.476649
-0.510933
-0.578369
-0.624712
-0.700891
-0.781591
-0.873527
-0.993773
-1.08279
-1.21128
-1.30105
-1.43459
-1.49768
-1.65986
-1.65078
-1.93495
-1.88233
-2.17311
-2.30659
-2.44303
-2.41601
-2.4331
-2.35081
-2.29441
-2.18741
-2.08095
-1.95372
-1.82574
-1.6972
-1.59398
-1.51456
-1.45133
-1.42457
-1.41011
-1.41416
-1.41755
-0.371871
-0.377299
-0.396622
-0.44213
-0.476082
-0.532756
-0.595161
-0.687098
-0.803169
-0.932463
-1.05329
-1.16346
-1.27268
-1.40002
-1.49767
-1.64369
-1.70798
-1.86107
-1.90308
-2.14394
-2.122
-2.40952
-2.55693
-2.67333
-2.65142
-2.66327
-2.58049
-2.527
-2.40869
-2.30717
-2.16174
-2.01848
-1.86943
-1.75684
-1.65368
-1.52764
-1.49544
-1.47037
-1.4738
-1.48035
-0.409029
-0.39299
-0.431128
-0.47926
-0.562996
-0.621912
-0.744246
-0.864681
-0.984717
-1.09732
-1.21701
-1.35634
-1.48276
-1.63002
-1.73777
-1.87432
-1.95359
-2.10124
-2.12943
-2.36473
-2.40112
-2.57734
-2.73718
-2.83751
-2.82226
-2.83208
-2.75959
-2.70723
-2.60381
-2.50095
-2.35091
-2.1998
-2.01594
-1.87222
-1.75155
-1.61121
-1.55214
-1.53103
-1.53304
-1.5427
-0.428835
-0.421445
-0.460091
-0.528599
-0.618715
-0.70865
-0.87872
-0.937555
-1.10615
-1.24179
-1.39438
-1.54292
-1.68806
-1.82351
-1.94578
-2.08321
-2.16601
-2.30643
-2.36395
-2.5244
-2.62502
-2.70721
-2.86384
-2.97056
-2.9597
-2.97013
-2.9039
-2.86084
-2.76272
-2.67168
-2.53278
-2.37512
-2.19792
-2.01921
-1.90719
-1.7256
-1.64844
-1.61576
-1.61414
-1.62734
-0.458949
-0.438242
-0.500422
-0.576269
-0.698322
-0.832482
-0.975561
-1.11487
-1.24093
-1.42232
-1.56815
-1.72963
-1.8686
-2.02205
-2.1495
-2.28413
-2.38273
-2.50791
-2.58339
-2.68228
-2.80467
-2.85475
-2.96197
-3.0908
-3.08534
-3.09816
-3.04191
-2.99449
-2.91893
-2.82928
-2.68967
-2.52862
-2.34814
-2.14879
-2.00549
-1.85076
-1.72368
-1.6928
-1.68272
-1.70015
-0.51518
-0.50281
-0.567942
-0.66776
-0.806393
-0.958965
-1.1083
-1.25688
-1.41471
-1.5668
-1.71407
-1.88487
-2.02743
-2.17324
-2.30485
-2.44011
-2.54299
-2.66341
-2.75026
-2.84736
-2.95216
-3.0339
-3.05415
-3.21179
-3.21839
-3.2317
-3.18117
-3.14256
-3.06848
-2.97467
-2.8544
-2.69749
-2.514
-2.31717
-2.15274
-1.99398
-1.85043
-1.80025
-1.78483
-1.80502
-0.553061
-0.537485
-0.622141
-0.730712
-0.907436
-1.04748
-1.22066
-1.38664
-1.54952
-1.71878
-1.86286
-2.02087
-2.1352
-2.3083
-2.43829
-2.57229
-2.68093
-2.79024
-2.87336
-2.98134
-3.0609
-3.16742
-3.1669
-3.33646
-3.34196
-3.37079
-3.31435
-3.28818
-3.20812
-3.12722
-2.99428
-2.8483
-2.66061
-2.44299
-2.24786
-2.1043
-1.94886
-1.87834
-1.86398
-1.883
-0.651975
-0.64162
-0.726253
-0.861941
-1.02528
-1.18791
-1.35543
-1.53007
-1.69982
-1.85621
-2.00752
-2.16036
-2.29364
-2.40152
-2.5607
-2.68955
-2.80403
-2.91687
-2.9911
-3.13039
-3.19143
-3.30321
-3.30912
-3.47786
-3.49444
-3.50993
-3.47666
-3.43525
-3.36805
-3.27547
-3.16007
-2.99967
-2.80259
-2.60542
-2.38862
-2.24381
-2.08734
-2.02013
-1.98968
-2.01475
-0.698044
-0.685862
-0.787921
-0.925311
-1.10514
-1.26928
-1.45875
-1.62315
-1.79264
-1.95143
-2.10605
-2.2554
-2.40103
-2.54684
-2.64826
-2.80661
-2.93579
-3.04828
-3.13863
-3.26922
-3.32932
-3.43391
-3.44497
-3.61547
-3.62089
-3.65441
-3.6159
-3.5814
-3.50275
-3.4204
-3.26006
-3.13485
-2.97789
-2.78309
-2.55267
-2.35832
-2.19567
-2.10604
-2.07343
-2.09579
-0.82285
-0.816907
-0.914935
-1.058
-1.23316
-1.40538
-1.5885
-1.75517
-1.91868
-2.07425
-2.22531
-2.38448
-2.52735
-2.67704
-2.80678
-2.91419
-3.07184
-3.18854
-3.29869
-3.41802
-3.47578
-3.56769
-3.53887
-3.71539
-3.76984
-3.79855
-3.77108
-3.72656
-3.66261
-3.52945
-3.47699
-3.33684
-3.17292
-2.9731
-2.7591
-2.55614
-2.36805
-2.27673
-2.22808
-2.25638
-0.86854
-0.862774
-0.970896
-1.11647
-1.30123
-1.47177
-1.65365
-1.8062
-1.96976
-2.12281
-2.28249
-2.44157
-2.60918
-2.76514
-2.94725
-3.05149
-3.24641
-3.35816
-3.48859
-3.5813
-3.67113
-3.63748
-3.73465
-3.8558
-3.91395
-3.9592
-3.92974
-3.88717
-3.75487
-3.72264
-3.60703
-3.47923
-3.31653
-3.12455
-2.90883
-2.69261
-2.51238
-2.34959
-2.31225
-2.33307
-0.995554
-0.988751
-1.08813
-1.23179
-1.40907
-1.57585
-1.7441
-1.8967
-2.06391
-2.23278
-2.41713
-2.59824
-2.78166
-2.94631
-3.11466
-3.2795
-3.39426
-3.52401
-3.71646
-3.80006
-3.7944
-3.85692
-3.92674
-4.01349
-4.05304
-4.09603
-4.0681
-3.97429
-3.95925
-3.87592
-3.79322
-3.67803
-3.537
-3.36155
-3.15487
-2.94197
-2.73423
-2.62168
-2.49951
-2.52468
-0.995564
-1.01055
-1.11936
-1.27074
-1.45389
-1.63431
-1.79564
-1.93874
-2.09661
-2.26795
-2.45106
-2.65409
-2.85096
-3.04273
-3.22936
-3.4547
-3.61855
-3.79698
-3.90832
-3.98335
-4.04247
-4.10684
-4.16262
-4.20965
-4.23294
-4.25777
-4.2485
-4.18153
-4.09052
-3.98346
-3.86903
-3.74539
-3.6117
-3.44264
-3.2452
-3.04081
-2.84163
-2.69876
-2.58566
-2.62392
-1.07691
-1.07069
-1.15595
-1.28454
-1.45005
-1.60604
-1.778
-1.93522
-2.13221
-2.34197
-2.59037
-2.82528
-3.05742
-3.24183
-3.44785
-3.67442
-3.81927
-4.10237
-4.19164
-4.29066
-4.35545
-4.38999
-4.41699
-4.43014
-4.44501
-4.39799
-4.37867
-4.30827
-4.24102
-4.15538
-4.08094
-3.99304
-3.87488
-3.73322
-3.56611
-3.33291
-3.12542
-2.94148
-2.7829
-2.77242
-0.956064
-0.96269
-1.05884
-1.19466
-1.39291
-1.57209
-1.74823
-1.88395
-2.06323
-2.31216
-2.61592
-2.94552
-3.21974
-3.46321
-3.64567
-3.88165
-4.15407
-4.49886
-4.60007
-4.71752
-4.72806
-4.73219
-4.71696
-4.67734
-4.65243
-4.63539
-4.52234
-4.43792
-4.283
-4.11343
-3.94355
-3.89776
-3.81497
-3.68648
-3.50435
-3.29408
-3.17455
-3.03161
-3.00794
-2.99109
-1.01528
-0.958202
-1.00145
-1.06391
-1.18334
-1.27984
-1.39868
-1.62481
-2.01945
-2.41967
-2.85531
-3.27627
-3.62827
-3.87144
-4.09747
-4.32101
-4.57557
-4.84766
-5.09313
-5.13219
-5.12786
-5.09562
-5.02754
-4.96659
-4.95656
-4.83155
-4.68436
-4.52669
-4.47297
-4.42179
-4.41929
-4.20553
-4.06078
-3.9182
-3.78139
-3.5873
-3.31845
-3.15675
-2.75259
-2.84972
-1.0235
-1.02863
-1.07022
-1.16436
-1.30289
-1.43297
-1.54826
-1.72866
-2.08297
-2.47813
-2.9208
-3.38425
-3.77066
-4.08018
-4.36588
-4.62834
-4.94058
-5.23206
-5.47023
-5.57244
-5.56565
-5.40439
-5.37319
-5.28206
-5.13417
-4.9713
-4.81676
-4.64585
-4.48335
-4.25871
-4.06478
-3.90312
-3.88619
-3.93582
-3.95475
-3.81655
-3.72333
-3.52013
-3.55347
-3.35399
-1.0848
-1.07784
-1.1088
-1.17494
-1.29019
-1.40821
-1.53741
-1.7086
-2.10164
-2.55425
-3.07423
-3.60645
-4.02013
-4.3651
-4.70312
-5.01308
-5.3338
-5.58497
-5.84581
-5.95248
-5.90026
-5.76287
-5.67156
-5.49065
-5.31266
-5.10709
-4.94712
-4.75241
-4.61597
-4.40171
-4.23607
-3.98566
-3.75396
-3.40797
-3.10207
-2.94858
-2.84853
-2.76552
-2.68238
-2.70979
-1.14435
-1.14473
-1.18573
-1.25505
-1.38085
-1.49787
-1.6287
-1.78844
-2.1644
-2.64701
-3.21973
-3.73993
-4.16742
-4.5457
-4.92675
-5.27497
-5.62946
-5.87982
-6.10401
-6.22115
-6.23352
-5.95877
-5.82224
-5.61386
-5.459
-5.19563
-5.02618
-4.81656
-4.65841
-4.44687
-4.27756
-4.03691
-3.89627
-3.61506
-3.40521
-3.15886
-2.99357
-2.78702
-2.75679
-2.85173
-1.21995
-1.20633
-1.26902
-1.32215
-1.44893
-1.56879
-1.70443
-1.88467
-2.23203
-2.75005
-3.31837
-3.8196
-4.25807
-4.65843
-5.07098
-5.44723
-5.79597
-6.02707
-6.18431
-6.33462
-6.32753
-6.14307
-5.91547
-5.6492
-5.47688
-5.26292
-5.05903
-4.82769
-4.66994
-4.42681
-4.27108
-4.00574
-3.8221
-3.5339
-3.35681
-3.12958
-2.96922
-2.7549
-2.59193
-2.67371
-1.30795
-1.29189
-1.36015
-1.41135
-1.53148
-1.65349
-1.79383
-1.94806
-2.28446
-2.79051
-3.36008
-3.8571
-4.28751
-4.68463
-5.109
-5.47747
-5.82263
-6.0193
-6.19533
-6.35601
-6.42909
-6.15559
-5.9852
-5.68212
-5.5074
-5.1642
-5.06545
-4.82664
-4.69034
-4.46918
-4.3558
-4.12687
-4.01354
-3.75981
-3.63864
-3.40761
-3.28463
-3.05931
-2.94516
-3.00222
-1.37778
-1.34877
-1.42594
-1.47485
-1.58994
-1.72409
-1.83591
-2.06292
-2.39701
-2.84848
-3.34501
-3.78011
-4.20806
-4.58747
-5.03659
-5.36874
-5.70841
-5.88524
-6.14543
-6.27479
-6.36984
-6.15559
-5.9281
-5.69757
-5.46265
-5.19655
-4.93088
-4.75796
-4.6019
-4.32974
-4.17569
-3.869
-3.72403
-3.44556
-3.34862
-3.1317
-3.04262
-2.85942
-2.73049
-2.75051
-1.48797
-1.46171
-1.52698
-1.57918
-1.68062
-1.80464
-1.95035
-2.17054
-2.49383
-2.89614
-3.34134
-3.73944
-4.13107
-4.47709
-4.79985
-5.15254
-5.52538
-5.77239
-5.97408
-6.13395
-6.21408
-6.09178
-5.86266
-5.61002
-5.4223
-5.13218
-4.99435
-4.6936
-4.68273
-4.50121
-4.57239
-4.48048
-4.54546
-4.36714
-4.33116
-4.07666
-3.94659
-3.65724
-3.43986
-3.20135
-1.53764
-1.52162
-1.55565
-1.6294
-1.72126
-1.83362
-1.9976
-2.21021
-2.52202
-2.86972
-3.26401
-3.62207
-3.99762
-4.32615
-4.69496
-4.94963
-5.29666
-5.60341
-5.843
-5.88598
-6.01083
-5.95536
-5.78291
-5.55211
-5.3594
-5.10539
-4.97429
-4.73397
-4.80705
-4.64041
-4.6707
-4.42651
-4.41408
-4.19296
-4.24531
-4.08576
-4.15568
-4.02022
-4.09272
-4.14541
-1.66145
-1.64711
-1.67647
-1.72096
-1.82836
-1.91123
-2.09968
-2.29695
-2.58205
-2.88303
-3.23079
-3.54427
-3.88809
-4.18342
-4.50162
-4.78881
-4.97817
-5.27547
-5.57241
-5.66322
-5.73711
-5.70234
-5.59434
-5.41925
-5.32259
-5.11354
-5.00321
-4.84195
-4.82132
-4.65058
-4.68773
-4.43427
-4.43668
-4.18582
-4.22808
-4.03065
-4.07796
-3.86412
-3.85546
-3.69859
-1.68659
-1.6728
-1.69851
-1.73254
-1.83209
-1.93399
-2.11006
-2.28862
-2.5597
-2.80965
-3.12176
-3.39336
-3.70967
-3.96187
-4.27097
-4.43182
-4.77783
-4.94294
-5.17711
-5.35018
-5.3945
-5.36535
-5.32485
-5.18337
-5.10019
-4.98034
-4.88468
-4.75095
-4.73589
-4.53703
-4.54073
-4.24849
-4.27932
-3.98244
-4.07598
-3.80386
-3.89813
-3.61333
-3.60014
-3.46439
-1.82497
-1.81887
-1.83095
-1.83583
-1.92224
-2.03112
-2.20258
-2.3607
-2.59397
-2.8133
-3.08198
-3.31517
-3.5881
-3.82565
-4.03231
-4.3157
-4.5372
-4.72881
-4.8382
-4.96958
-5.02184
-5.05579
-5.05502
-4.93304
-4.89828
-4.83645
-4.5379
-4.75761
-4.59963
-4.47914
-4.55643
-4.2119
-4.28532
-3.91836
-4.05091
-3.73113
-3.79902
-3.42854
-3.33378
-3.09494
-1.81215
-1.80106
-1.8157
-1.8155
-1.85406
-1.97725
-2.15869
-2.28393
-2.50813
-2.68708
-2.95004
-3.1384
-3.41499
-3.56972
-3.88436
-4.07232
-4.28682
-4.47664
-4.54444
-4.62483
-4.62543
-4.72316
-4.71915
-4.62628
-4.61562
-4.57345
-4.27005
-4.71531
-4.47981
-4.37564
-4.38741
-4.15513
-4.19561
-3.79585
-3.92311
-3.48178
-3.63338
-3.11463
-3.01301
-2.5909
-1.96824
-1.96693
-1.96867
-1.96534
-1.97936
-2.04016
-2.24315
-2.33439
-2.52738
-2.6727
-2.8983
-3.05611
-3.28298
-3.50983
-3.71844
-3.90347
-4.07233
-4.23505
-4.2825
-4.37378
-4.28497
-4.46599
-4.4284
-4.34315
-4.36108
-4.33546
-4.0221
-4.62485
-4.35205
-4.29544
-4.35536
-4.0347
-4.23118
-3.7579
-3.93602
-3.40179
-3.50778
-2.91493
-2.71052
-2.05945
-1.90329
-1.88233
-1.91557
-1.85531
-1.91287
-1.86541
-2.13589
-2.18723
-2.38107
-2.51219
-2.71624
-2.88656
-3.13985
-3.30846
-3.52844
-3.69269
-3.83618
-3.99969
-4.0117
-4.08102
-4.01809
-4.18936
-4.13194
-4.05776
-4.09339
-4.0889
-3.80117
-4.49642
-4.21792
-4.2634
-4.23943
-3.94246
-4.11598
-3.66785
-3.87082
-3.22057
-3.35642
-2.43948
-2.33131
-1.23902
-2.08166
-2.09337
-2.0774
-2.0495
-2.06244
-1.97329
-2.17453
-2.22463
-2.39104
-2.47427
-2.68778
-2.83608
-3.05679
-3.22658
-3.42747
-3.57833
-3.70657
-3.87013
-3.8756
-3.96367
-3.81733
-3.99608
-3.9223
-3.83106
-3.86581
-3.83758
-3.62608
-4.33016
-4.19024
-4.11699
-4.2757
-3.88937
-4.16978
-3.60383
-3.94488
-3.2328
-3.4297
-2.22923
-2.03094
-0.374714
-1.99195
-1.91852
-1.97767
-1.84702
-1.92497
-1.77596
-1.9665
-2.0092
-2.1725
-2.28955
-2.49479
-2.63678
-2.86324
-3.02713
-3.22965
-3.39978
-3.53123
-3.70817
-3.69764
-3.79847
-3.61141
-3.75953
-3.6708
-3.56909
-3.60169
-3.56686
-3.49072
-4.16081
-4.13786
-4.07372
-4.23776
-3.75268
-4.12775
-3.48159
-3.81113
-3.0091
-3.28083
-1.64521
-1.46158
1.30354
-2.1712
-2.24134
-2.14578
-2.13066
-2.0314
-1.98971
-1.95179
-2.03117
-2.16532
-2.25437
-2.44216
-2.57287
-2.77792
-2.93181
-3.12961
-3.30193
-3.46188
-3.62739
-3.66294
-3.7168
-3.50245
-3.61657
-3.51185
-3.37103
-3.38539
-3.29808
-3.38175
-3.98946
-4.11926
-4.0193
-4.27007
-3.81774
-4.15371
-3.47332
-3.97067
-2.94739
-3.51651
-1.4535
-1.07924
3.01005
-2.4871
-2.03198
-2.14072
-1.79087
-1.84444
-1.65664
-1.6964
-1.78707
-1.93338
-2.03695
-2.23979
-2.36882
-2.58848
-2.74454
-2.95533
-3.14077
-3.31816
-3.51974
-3.56386
-3.57381
-3.35994
-3.39097
-3.24634
-3.10223
-3.13075
-3.03186
-3.32829
-3.82134
-4.11711
-3.994
-4.27154
-3.75362
-4.08705
-3.27718
-3.75138
-2.42212
-2.87159
-0.312065
0.440686
7.51848
-2.35149
-2.58211
-2.40077
-2.36233
-1.91591
-1.82114
-1.72441
-1.77146
-1.90215
-1.98215
-2.16201
-2.28549
-2.48986
-2.64063
-2.84337
-3.03183
-3.23281
-3.46084
-3.61015
-3.5057
-3.35477
-3.29039
-3.11143
-2.87958
-2.95172
-2.8054
-3.26784
-3.66145
-4.04341
-3.93786
-4.2768
-3.77771
-4.17764
-3.34957
-3.90467
-2.52754
-3.10659
0.446334
2.05735
11.552
-4.8832
-2.05776
-2.36745
-1.92478
-1.80345
-1.54126
-1.58111
-1.61627
-1.78141
-1.88684
-2.09127
-2.21065
-2.42095
-2.56817
-2.77095
-2.95816
-3.21168
-3.43519
-3.59802
-3.41363
-3.22286
-3.09164
-2.83566
-2.59675
-2.79076
-2.76403
-3.39942
-3.76936
-4.1745
-4.00524
-4.28198
-3.66432
-4.01065
-3.15067
-3.50988
-1.72673
-1.41296
4.54643
9.50867
24.5367
-0.11456
-0.223233
-0.316878
-0.392845
-0.459673
-0.51835
-0.575087
-0.629032
-0.683608
-0.739184
-0.772307
-0.849488
-0.891548
-0.968424
-1.00016
-1.08723
-1.07571
-1.20363
-1.15572
-1.38827
-1.19185
-1.39442
-1.4107
-1.46249
-1.3608
-1.34168
-1.23709
-1.20774
-1.15095
-1.13742
-1.13492
-1.12941
-1.19137
-1.21386
-1.25951
-1.27331
-1.30305
-1.30914
-1.31875
-1.31174
-0.216535
-0.277773
-0.342747
-0.406623
-0.462284
-0.517911
-0.563458
-0.620118
-0.643921
-0.71351
-0.739652
-0.833038
-0.849799
-0.917481
-0.93176
-1.01611
-1.02119
-1.14804
-1.06902
-1.29698
-1.19887
-1.38598
-1.40531
-1.47247
-1.38063
-1.38487
-1.2941
-1.27597
-1.22496
-1.20157
-1.19114
-1.1956
-1.18326
-1.20245
-1.24293
-1.26018
-1.29396
-1.29843
-1.31061
-1.30111
-0.298944
-0.325268
-0.369415
-0.416207
-0.46976
-0.513879
-0.566615
-0.602092
-0.674844
-0.719903
-0.764933
-0.822754
-0.867832
-0.947737
-0.998556
-1.1195
-1.12512
-1.25289
-1.20756
-1.46806
-1.43919
-1.67487
-1.7795
-1.89474
-1.83292
-1.85362
-1.77499
-1.74959
-1.67339
-1.60396
-1.52006
-1.43543
-1.39433
-1.35308
-1.34709
-1.32057
-1.33525
-1.32912
-1.33622
-1.33169
-0.339396
-0.359118
-0.387896
-0.428365
-0.463662
-0.510396
-0.555398
-0.607772
-0.659676
-0.72348
-0.776395
-0.857801
-0.93096
-1.05082
-1.1101
-1.24231
-1.27844
-1.43706
-1.42925
-1.71506
-1.756
-2.03075
-2.17125
-2.29694
-2.2449
-2.25944
-2.17001
-2.11351
-2.00514
-1.8951
-1.77613
-1.64383
-1.53803
-1.44811
-1.42246
-1.3808
-1.38613
-1.36683
-1.37104
-1.36967
-0.370815
-0.379787
-0.404082
-0.43505
-0.491497
-0.509935
-0.574948
-0.640013
-0.715109
-0.792546
-0.880839
-1.00449
-1.10626
-1.2278
-1.32014
-1.47643
-1.53921
-1.70826
-1.75016
-2.00677
-2.04613
-2.32288
-2.4827
-2.59551
-2.53987
-2.55654
-2.46327
-2.40686
-2.27305
-2.14
-1.98531
-1.85214
-1.721
-1.60324
-1.51822
-1.4607
-1.43569
-1.41915
-1.41759
-1.42065
-0.395307
-0.395257
-0.424798
-0.464203
-0.483299
-0.52804
-0.595437
-0.687703
-0.812985
-0.936863
-1.05689
-1.1711
-1.28391
-1.42261
-1.52605
-1.69526
-1.78083
-1.92718
-1.9508
-2.18711
-2.25626
-2.52915
-2.68916
-2.79987
-2.75731
-2.74594
-2.65707
-2.57395
-2.47947
-2.33424
-2.18158
-2.01121
-1.86989
-1.75819
-1.6482
-1.5457
-1.51269
-1.48663
-1.48082
-1.48677
-0.419746
-0.42167
-0.459359
-0.495411
-0.551932
-0.595463
-0.709762
-0.876303
-0.982946
-1.09758
-1.21943
-1.36274
-1.49487
-1.6375
-1.76247
-1.89638
-1.98743
-2.13347
-2.17441
-2.36181
-2.45385
-2.65061
-2.80561
-2.91204
-2.87461
-2.87063
-2.79132
-2.72875
-2.60314
-2.48858
-2.32894
-2.16256
-1.99479
-1.84777
-1.74876
-1.62015
-1.56456
-1.54294
-1.53623
-1.54557
-0.44869
-0.453003
-0.49644
-0.551216
-0.62612
-0.68776
-0.869122
-0.949996
-1.10338
-1.24537
-1.38967
-1.54768
-1.68573
-1.83426
-1.94932
-2.09058
-2.17368
-2.30829
-2.36803
-2.50366
-2.61601
-2.74344
-2.88159
-3.0033
-2.98694
-2.98962
-2.92656
-2.86567
-2.76844
-2.63996
-2.49465
-2.33839
-2.16851
-2.0034
-1.88412
-1.74875
-1.67031
-1.64031
-1.62572
-1.63586
-0.476425
-0.479147
-0.538213
-0.601315
-0.707274
-0.804683
-0.967055
-1.1099
-1.25093
-1.41273
-1.56216
-1.7144
-1.86403
-2.01257
-2.13575
-2.26501
-2.36009
-2.47949
-2.55245
-2.65156
-2.75153
-2.85377
-2.95792
-3.09722
-3.09929
-3.11181
-3.05793
-3.00426
-2.88934
-2.78093
-2.64646
-2.47766
-2.32206
-2.09546
-1.9771
-1.82809
-1.74302
-1.69822
-1.69224
-1.70236
-0.53718
-0.540472
-0.612282
-0.701362
-0.811702
-0.940232
-1.09109
-1.24504
-1.39911
-1.56837
-1.70019
-1.87632
-2.01717
-2.16181
-2.28565
-2.41264
-2.50879
-2.62538
-2.70921
-2.80947
-2.89322
-3.00312
-3.05665
-3.20118
-3.2321
-3.24055
-3.20653
-3.13204
-3.04544
-2.90904
-2.80252
-2.70681
-2.53232
-2.37819
-2.14608
-1.98307
-1.85698
-1.82115
-1.79533
-1.81262
-0.572911
-0.575993
-0.664438
-0.755414
-0.933056
-1.02444
-1.21008
-1.36132
-1.51347
-1.70215
-1.8557
-2.01677
-2.15146
-2.29396
-2.42604
-2.54701
-2.64638
-2.75079
-2.83722
-2.94026
-3.01555
-3.13934
-3.17268
-3.33056
-3.3568
-3.37979
-3.32534
-3.28508
-3.14575
-3.09345
-2.99487
-2.81885
-2.65622
-2.42983
-2.26177
-2.06915
-1.93319
-1.89039
-1.87084
-1.88528
-0.673842
-0.681639
-0.772508
-0.90215
-1.04631
-1.19246
-1.33325
-1.50832
-1.66928
-1.81361
-1.95532
-2.15251
-2.28369
-2.41496
-2.54719
-2.67229
-2.77138
-2.877
-2.96643
-3.07626
-3.15273
-3.27282
-3.31236
-3.46866
-3.50367
-3.51513
-3.4874
-3.39555
-3.34446
-3.27152
-3.11023
-2.99908
-2.83523
-2.70445
-2.47604
-2.27854
-2.05988
-2.0117
-1.99651
-2.01651
-0.726333
-0.731098
-0.840071
-0.97132
-1.1416
-1.28305
-1.45707
-1.59436
-1.74609
-1.9187
-2.0671
-2.20716
-2.36825
-2.52899
-2.67438
-2.80252
-2.9104
-3.01325
-3.10867
-3.22108
-3.29279
-3.41037
-3.44125
-3.59443
-3.62785
-3.65774
-3.60543
-3.55541
-3.51139
-3.38419
-3.32969
-3.19249
-3.00992
-2.77268
-2.56661
-2.39569
-2.22208
-2.06194
-2.08258
-2.09044
-0.852905
-0.860687
-0.969397
-1.10649
-1.27203
-1.42664
-1.59477
-1.74514
-1.88987
-2.03695
-2.15812
-2.35021
-2.47115
-2.63366
-2.81321
-2.943
-3.05622
-3.16148
-3.26963
-3.3723
-3.44365
-3.526
-3.53375
-3.69176
-3.76673
-3.80148
-3.72619
-3.72613
-3.63811
-3.60694
-3.50191
-3.36551
-3.18169
-2.991
-2.73984
-2.56413
-2.40991
-2.26626
-2.20949
-2.26317
-0.906996
-0.912346
-1.02751
-1.16989
-1.34683
-1.50715
-1.68158
-1.81488
-1.96185
-2.10898
-2.25427
-2.40311
-2.54779
-2.69126
-2.97113
-3.09963
-3.23365
-3.34279
-3.45544
-3.54793
-3.6169
-3.6073
-3.71081
-3.84581
-3.9198
-3.95991
-3.94364
-3.87857
-3.80822
-3.74468
-3.64028
-3.50393
-3.33461
-3.12489
-2.88592
-2.6732
-2.49282
-2.40748
-2.25616
-2.3362
-1.0183
-1.02488
-1.13854
-1.28112
-1.45895
-1.6155
-1.77193
-1.9141
-2.0681
-2.22442
-2.39277
-2.57765
-2.75349
-2.88836
-3.08362
-3.29054
-3.41084
-3.53137
-3.66599
-3.75375
-3.74944
-3.82327
-3.91325
-4.01558
-4.04573
-4.10425
-4.01382
-4.00781
-3.98006
-3.9088
-3.81435
-3.70051
-3.55014
-3.36729
-3.13617
-2.91458
-2.69777
-2.62144
-2.48037
-2.52464
-1.05611
-1.07028
-1.18505
-1.3393
-1.52742
-1.66992
-1.8362
-1.96558
-2.11307
-2.27086
-2.44243
-2.63644
-2.83301
-3.02089
-3.17502
-3.49109
-3.62344
-3.78473
-3.89442
-3.95483
-4.01748
-4.0877
-4.16609
-4.22046
-4.22885
-4.25529
-4.32264
-4.22229
-4.13953
-4.02286
-3.91555
-3.79007
-3.65224
-3.47351
-3.26069
-3.03749
-2.82714
-2.68629
-2.59036
-2.57719
-1.08801
-1.10019
-1.19279
-1.34143
-1.51048
-1.66553
-1.81648
-1.95982
-2.13574
-2.33325
-2.57343
-2.81376
-3.03897
-3.22363
-3.40912
-3.74816
-3.83554
-4.06883
-4.18827
-4.28633
-4.3554
-4.39824
-4.44141
-4.46934
-4.54598
-4.44153
-4.40361
-4.3501
-4.27897
-4.18889
-4.10617
-4.01494
-3.90214
-3.75621
-3.56064
-3.3366
-3.05364
-2.92676
-2.83299
-2.80404
-1.0104
-1.04705
-1.12822
-1.28208
-1.43733
-1.61269
-1.75538
-1.89841
-2.07513
-2.32012
-2.61228
-2.92439
-3.18555
-3.42036
-3.61641
-3.85274
-4.28129
-4.48865
-4.62513
-4.71682
-4.76309
-4.75535
-4.74786
-4.71952
-4.763
-4.63045
-4.51458
-4.40844
-4.31504
-4.18852
-4.08951
-3.993
-3.89735
-3.75643
-3.58324
-3.42073
-3.20444
-3.00238
-3.01208
-2.99415
-0.981831
-0.983717
-1.03371
-1.12658
-1.23423
-1.34532
-1.43836
-1.64922
-2.00598
-2.38889
-2.81049
-3.23126
-3.58276
-3.82269
-4.0472
-4.31312
-4.58353
-4.97925
-5.10501
-5.17304
-5.18533
-5.13896
-5.07908
-5.07844
-4.90541
-4.80819
-4.67119
-4.51069
-4.39901
-4.31071
-4.26387
-4.15485
-4.06271
-3.9653
-3.821
-3.62047
-3.32667
-3.09037
-2.9048
-2.89312
-1.05591
-1.01557
-1.05908
-1.14536
-1.26952
-1.38406
-1.47587
-1.68812
-2.02961
-2.43062
-2.87518
-3.35
-3.74938
-4.08244
-4.37288
-4.64916
-4.98632
-5.29921
-5.58355
-5.612
-5.62216
-5.50414
-5.40326
-5.28184
-5.13166
-4.97405
-4.8185
-4.62672
-4.46063
-4.25107
-4.07338
-3.88931
-3.83183
-3.80988
-3.83341
-3.71239
-3.54465
-3.39446
-3.34135
-3.42324
-1.09247
-1.05113
-1.08749
-1.14882
-1.2805
-1.36122
-1.47835
-1.66531
-2.04378
-2.50285
-3.03125
-3.57651
-4.01927
-4.37784
-4.72228
-5.04133
-5.38463
-5.67043
-5.95278
-6.05315
-5.96684
-5.86145
-5.70771
-5.51287
-5.32767
-5.12436
-4.95632
-4.75165
-4.5855
-4.35939
-4.18739
-3.95234
-3.74944
-3.45754
-3.15048
-2.96364
-2.83917
-2.72412
-2.66549
-2.73836
-1.1338
-1.12569
-1.16514
-1.23652
-1.35926
-1.47088
-1.58903
-1.75855
-2.11174
-2.59665
-3.16958
-3.7247
-4.17504
-4.56536
-4.94673
-5.30408
-5.67294
-5.94681
-6.25433
-6.37312
-6.37356
-6.03055
-6.01615
-5.70743
-5.48756
-5.2331
-5.04383
-4.81997
-4.6493
-4.41806
-4.23351
-3.99028
-3.83189
-3.54949
-3.29801
-3.06618
-2.90073
-2.7372
-2.6139
-2.72564
-1.21195
-1.20081
-1.24271
-1.30202
-1.42341
-1.53917
-1.66774
-1.8323
-2.16351
-2.67756
-3.27076
-3.81079
-4.26944
-4.67122
-5.07558
-5.45275
-5.83046
-6.11429
-6.36555
-6.53222
-6.50716
-6.28842
-6.03031
-5.68065
-5.56532
-5.27988
-5.08375
-4.82507
-4.66227
-4.40461
-4.24247
-3.9647
-3.76793
-3.45752
-3.26444
-3.03731
-2.88845
-2.67496
-2.49696
-2.57086
-1.3022
-1.29485
-1.34173
-1.40163
-1.5168
-1.65256
-1.77171
-1.93402
-2.25025
-2.74333
-3.31258
-3.83142
-4.28773
-4.68651
-5.10433
-5.49005
-5.87676
-6.14221
-6.3848
-6.55471
-6.57246
-6.37199
-6.16605
-5.72592
-5.56743
-5.193
-5.0795
-4.8275
-4.66794
-4.43207
-4.29997
-4.05375
-3.92478
-3.66172
-3.54042
-3.32239
-3.20806
-2.98986
-2.82086
-2.90015
-1.38102
-1.35934
-1.41512
-1.46911
-1.57614
-1.69294
-1.82872
-2.01129
-2.32684
-2.77613
-3.2943
-3.77245
-4.20542
-4.59842
-5.02355
-5.39819
-5.77874
-6.03691
-6.31924
-6.41702
-6.43683
-6.28163
-6.03582
-5.7838
-5.46203
-5.20557
-4.94157
-4.74675
-4.60216
-4.2954
-4.15307
-3.83624
-3.71003
-3.42033
-3.32984
-3.10111
-3.01916
-2.79158
-2.67884
-2.68394
-1.48249
-1.47168
-1.51417
-1.5751
-1.67236
-1.78873
-1.93614
-2.11808
-2.42552
-2.83054
-3.28836
-3.70088
-4.10936
-4.47984
-4.87423
-5.23656
-5.61631
-5.92052
-6.14822
-6.21745
-6.23152
-6.22216
-6.01251
-5.69095
-5.50216
-5.09893
-4.98007
-4.71884
-4.62314
-4.45277
-4.50474
-4.38533
-4.4496
-4.27053
-4.26344
-4.02646
-3.9247
-3.68051
-3.44696
-3.29014
-1.54216
-1.52988
-1.55847
-1.61612
-1.71204
-1.81663
-1.9866
-2.17354
-2.47186
-2.81814
-3.21304
-3.57838
-3.95998
-4.30633
-4.69297
-5.02037
-5.40148
-5.69284
-5.88885
-5.89659
-6.11945
-6.05751
-5.86087
-5.62534
-5.43027
-5.15341
-4.96829
-4.73957
-4.75293
-4.59277
-4.6471
-4.40935
-4.43088
-4.20188
-4.26967
-4.08799
-4.16719
-4.0264
-3.95135
-4.00501
-1.66607
-1.65807
-1.68124
-1.71501
-1.81967
-1.91162
-2.08644
-2.26316
-2.54804
-2.84394
-3.19041
-3.50437
-3.8521
-4.16381
-4.52073
-4.83518
-5.16251
-5.4059
-5.55491
-5.77931
-5.74179
-5.71915
-5.6231
-5.45512
-5.34726
-5.12198
-5.0197
-4.86594
-4.78192
-4.57536
-4.67191
-4.4592
-4.49013
-4.24095
-4.31675
-4.10742
-4.17102
-3.92505
-3.8712
-3.75754
-1.69374
-1.68454
-1.70739
-1.71828
-1.82305
-1.9228
-2.09646
-2.26507
-2.51256
-2.77492
-3.08048
-3.35652
-3.67263
-3.94654
-4.27608
-4.54899
-4.8496
-5.01584
-5.23322
-5.34065
-5.37561
-5.31322
-5.32141
-5.19028
-5.12427
-4.95813
-4.84832
-4.73172
-4.77143
-4.55996
-4.57037
-4.26834
-4.31537
-4.04147
-4.15297
-3.86644
-4.00843
-3.65671
-3.66823
-3.44662
-1.83425
-1.82917
-1.84264
-1.84212
-1.91366
-2.03091
-2.19334
-2.32926
-2.56826
-2.77433
-3.0499
-3.28389
-3.56317
-3.80183
-4.07739
-4.3348
-4.57621
-4.71468
-4.90854
-5.02487
-5.12568
-5.0307
-5.02825
-4.91932
-4.88027
-4.74874
-4.59265
-4.76078
-4.64232
-4.49345
-4.52273
-4.28058
-4.31513
-3.94019
-4.14659
-3.80622
-3.95905
-3.5319
-3.48252
-3.13232
-1.823
-1.80742
-1.83083
-1.81394
-1.86148
-1.96962
-2.15151
-2.27221
-2.48399
-2.66688
-2.90436
-3.11846
-3.38026
-3.58824
-3.87365
-4.10768
-4.30431
-4.56803
-4.63055
-4.69985
-4.62655
-4.67189
-4.68267
-4.6053
-4.58799
-4.49771
-4.36399
-4.68245
-4.54454
-4.38414
-4.37083
-4.16471
-4.26865
-3.84386
-3.98888
-3.57929
-3.84894
-3.28783
-3.30105
-2.75706
-1.97941
-1.97341
-1.97905
-1.97387
-1.98422
-2.04202
-2.2342
-2.32989
-2.49898
-2.66
-2.882
-3.06629
-3.2827
-3.46398
-3.6457
-3.81739
-4.01095
-4.21901
-4.2978
-4.42037
-4.31444
-4.42077
-4.40236
-4.32935
-4.32112
-4.26507
-4.12719
-4.54428
-4.45109
-4.30347
-4.35037
-4.03415
-4.25307
-3.78009
-4.09835
-3.5157
-3.78549
-3.21233
-3.23246
-2.422
-1.91282
-1.88631
-1.93149
-1.85464
-1.92213
-1.875
-2.12572
-2.18703
-2.37899
-2.49154
-2.72091
-2.88556
-3.10412
-3.27227
-3.49566
-3.66962
-3.8357
-4.00106
-4.01848
-4.11558
-4.01837
-4.1302
-4.09689
-4.04393
-4.05263
-4.03703
-3.91754
-4.38742
-4.32073
-4.20505
-4.25561
-3.93198
-4.11765
-3.70129
-3.95478
-3.45417
-3.71603
-2.8469
-3.1452
-1.85406
-2.09334
-2.10761
-2.09051
-2.07826
-2.0455
-1.99692
-2.16086
-2.23615
-2.39176
-2.48481
-2.68343
-2.82559
-3.0392
-3.21105
-3.38209
-3.54886
-3.71574
-3.87628
-3.89024
-3.93197
-3.79031
-3.92775
-3.88984
-3.81984
-3.81264
-3.77825
-3.71448
-4.21408
-4.26668
-4.1682
-4.31969
-3.87735
-4.191
-3.62753
-4.03459
-3.37822
-3.88444
-2.91804
-3.03813
-1.30493
-1.98577
-1.93647
-1.98959
-1.868
-1.9491
-1.77506
-1.96815
-2.03358
-2.2095
-2.31125
-2.51423
-2.63979
-2.86881
-3.01265
-3.22246
-3.40974
-3.57291
-3.72436
-3.729
-3.80825
-3.63
-3.69795
-3.63282
-3.55233
-3.55898
-3.49805
-3.55022
-4.02784
-4.19072
-4.06986
-4.28513
-3.80549
-4.14124
-3.49067
-3.96475
-3.10767
-3.74397
-2.41943
-2.98391
0.152054
-2.16978
-2.26489
-2.17047
-2.16304
-2.07834
-1.99592
-1.99196
-2.08812
-2.21209
-2.30258
-2.47255
-2.61111
-2.81171
-2.9646
-3.16141
-3.33776
-3.50677
-3.65465
-3.72061
-3.75757
-3.5925
-3.57734
-3.48863
-3.36974
-3.33753
-3.24517
-3.42345
-3.85227
-4.13006
-4.01368
-4.31163
-3.844
-4.22258
-3.52979
-4.10785
-3.1155
-3.88255
-2.20939
-2.93732
1.92619
-2.42578
-2.01569
-2.14107
-1.8264
-1.87221
-1.72171
-1.73503
-1.83285
-1.99084
-2.0875
-2.30207
-2.42438
-2.64949
-2.80898
-3.03078
-3.23622
-3.40176
-3.62448
-3.71672
-3.65705
-3.47185
-3.46157
-3.27006
-3.0806
-3.11941
-2.97567
-3.3272
-3.72071
-4.12544
-3.99246
-4.32912
-3.77081
-4.1835
-3.37255
-3.91697
-2.63603
-3.23282
-0.913288
-0.645002
7.08633
-2.15287
-2.57246
-2.43969
-2.42473
-2.11286
-1.864
-1.82831
-1.85372
-1.97058
-2.04842
-2.23204
-2.37367
-2.58183
-2.73512
-2.9471
-3.16166
-3.38755
-3.58692
-3.77847
-3.6866
-3.52445
-3.43286
-3.14947
-2.89083
-2.94233
-2.7683
-3.238
-3.5388
-4.0295
-3.93501
-4.29971
-3.80218
-4.22799
-3.3517
-3.94752
-2.58194
-3.08973
0.339531
2.43944
14.0444
-4.79924
-2.00295
-2.26486
-1.86405
-1.77923
-1.57075
-1.60345
-1.64204
-1.81741
-1.92116
-2.12147
-2.23254
-2.45336
-2.62553
-2.86658
-3.09804
-3.37012
-3.65229
-3.80923
-3.53718
-3.36546
-3.18662
-2.83857
-2.57403
-2.75606
-2.6904
-3.35871
-3.67262
-4.15553
-4.01737
-4.34161
-3.67716
-4.02638
-3.11323
-3.49153
-1.62841
-1.0543
5.05582
12.5401
30.9326
-0.248221
-0.295247
-0.350635
-0.405863
-0.466254
-0.520529
-0.577894
-0.626304
-0.67857
-0.724349
-0.784867
-0.849328
-0.89437
-0.975739
-0.999748
-1.09896
-1.1114
-1.22342
-1.13474
-1.36384
-1.13169
-1.43744
-1.43322
-1.49205
-1.37992
-1.33126
-1.2117
-1.15936
-1.09379
-1.08014
-1.08417
-1.11517
-1.11768
-1.20034
-1.24932
-1.2789
-1.3084
-1.3074
-1.31644
-1.31055
-0.297952
-0.323336
-0.367901
-0.409959
-0.470791
-0.51192
-0.561967
-0.596986
-0.651737