/*--------------------------------*- C++ -*----------------------------------*\
| =========                 |                                                 |
| \\      /  F ield         | OpenFOAM: The Open Source CFD Toolbox           |
|  \\    /   O peration     | Version:  v1806                                 |
|   \\  /    A nd           | Web:      www.OpenFOAM.com                      |
|    \\/     M anipulation  |                                                 |
\*---------------------------------------------------------------------------*/
FoamFile
{
    version     2.0;
    format      ascii;
    class       vectorField;
    location    "0.117";
    object      currentcloudofpoints;
}
// * * * * * * * * * * * * * * * * * * * * * * * * * * * * * * * * * * * * * //


2409
(
(1.03649 1.18191 1.33906)
(0.856273 1.04894 1.06933)
(1.48171 1.1738 1.00691)
(1.2043 1.50908 0.6545)
(1.28645 1.58993 1.02998)
(1.34138 1.13306 1.01413)
(1.43307 1.282 1.04097)
(0.521814 1.21334 0.548369)
(1.64036 1.02263 0.995202)
(0.900518 1.15598 0.81618)
(1.37127 1.179 1.45532)
(1.43088 1.18347 1.12274)
(1.50108 1.37105 1.32877)
(1.0759 1.48124 1.37014)
(1.43558 1.26454 1.18361)
(1.46386 1.17029 1.07062)
(1.40382 1.20365 1.16621)
(1.14965 1.50709 1.0001)
(1.49688 1.39244 1.32387)
(1.40389 1.31 1.36409)
(0.776747 1.03299 1.1302)
(0.525504 1.39057 1.15722)
(1.31406 1.25864 1.15844)
(1.08914 1.27737 1.22911)
(0.821256 0.873907 1.11376)
(0.641058 1.1092 1.45583)
(0.618501 1.18158 1.11096)
(0.897316 1.29325 1.47659)
(1.17048 1.45028 1.35286)
(1.47433 1.24476 0.925078)
(1.41978 1.32036 0.933091)
(1.27882 1.37153 0.794634)
(1.36696 1.48249 0.820941)
(1.49004 1.21142 0.958115)
(1.45332 1.28603 0.937249)
(1.43948 1.32124 0.682762)
(1.27545 1.37915 0.821039)
(1.33516 1.43549 0.891741)
(0.80189 1.53379 0.532585)
(0.46067 1.07864 0.811396)
(0.791975 1.17208 0.950807)
(0.872639 0.873109 0.802139)
(1.05876 1.44765 0.848257)
(1.26922 1.4795 0.912888)
(0.481145 1.01404 0.835869)
(1.11211 1.01175 0.690013)
(0.750572 1.03452 0.813166)
(1.21588 1.47481 1.38531)
(1.22984 1.15826 1.20083)
(1.15405 1.29713 1.44258)
(1.27979 1.12376 1.01315)
(1.24207 1.57912 1.34502)
(1.34974 1.36606 1.41434)
(1.25143 1.09261 1.2311)
(1.53375 1.35851 1.07087)
(1.03217 1.14753 1.40289)
(1.21613 1.19868 0.845766)
(1.08918 1.46325 0.624517)
(1.14036 1.76381 0.65825)
(1.17901 1.4871 0.575847)
(1.07513 1.67686 0.968535)
(1.39011 1.2966 0.73759)
(1.13002 1.59658 0.984206)
(1.23528 1.18994 0.949028)
(1.30955 1.40269 0.814105)
(1.03315 0.876882 1.19186)
(0.824422 1.15659 1.1308)
(1.0825 1.14204 1.31135)
(1.10503 1.69856 1.11757)
(1.05644 1.03797 1.22203)
(0.828058 0.87139 1.11812)
(1.07781 1.31637 1.19849)
(1.22339 1.27162 0.933768)
(0.930897 1.69737 0.960231)
(1.13488 1.65781 1.06918)
(1.69247 1.32308 1.26197)
(1.70965 1.28118 1.23234)
(1.51165 1.18686 1.01658)
(1.2193 1.21136 0.999681)
(1.55243 1.44664 1.31524)
(1.71883 1.27467 1.21533)
(1.64229 1.35163 1.27051)
(1.49862 1.169 1.00632)
(0.482506 1.09529 1.28768)
(0.439086 1.19223 1.25037)
(0.682805 1.16132 1.56763)
(1.13623 1.36556 1.5268)
(1.07395 1.11438 1.62379)
(1.09464 1.00861 1.53747)
(1.41957 1.2911 1.47543)
(0.658367 1.31788 1.43637)
(0.437711 1.11206 1.28326)
(0.485637 1.38091 1.38951)
(0.809994 1.45342 1.5128)
(1.10257 1.03818 1.53486)
(1.12383 1.04795 1.37435)
(1.25321 1.49418 1.11236)
(1.39855 1.12624 1.37306)
(1.31038 1.18324 1.48722)
(1.23474 1.2694 1.45815)
(1.33484 1.17314 1.30814)
(1.39863 1.18183 1.25324)
(1.41682 1.11025 1.23727)
(1.5142 1.04561 1.20843)
(1.61218 1.03194 1.13806)
(1.33577 1.28035 1.528)
(1.27701 1.24774 1.5146)
(1.24438 1.1743 1.34602)
(1.37778 1.19694 1.27287)
(1.40483 1.16052 1.24421)
(1.45475 1.07065 1.22294)
(1.56359 1.03735 1.18144)
(1.63211 1.01981 1.07179)
(0.84756 1.17093 0.819744)
(0.606045 1.04171 0.794104)
(0.616589 1.25857 0.531324)
(0.701416 1.34631 0.81671)
(1.03356 0.990562 0.706633)
(1.08269 1.01474 0.435681)
(1.01755 1.02225 0.437226)
(0.878717 1.23582 0.973825)
(1.09051 1.31951 0.643252)
(0.741351 1.20669 0.96668)
(1.09582 1.0213 0.945749)
(1.04014 1.05723 0.551424)
(1.13508 1.0158 0.612934)
(1.0994 1.03678 0.425825)
(1.06904 1.26743 0.509497)
(1.61267 1.03529 0.854103)
(1.53054 1.04565 0.778505)
(1.44845 1.07188 0.745118)
(1.41145 1.13816 0.752005)
(1.29428 1.22479 0.720284)
(1.35282 1.16637 0.685216)
(1.28134 1.08126 0.652692)
(1.62874 1.02394 0.920338)
(1.57115 1.04067 0.809249)
(1.48244 1.05611 0.761508)
(1.42604 1.10365 0.744751)
(1.37959 1.18577 0.766693)
(1.3351 1.18564 0.664395)
(1.32813 1.15504 0.712653)
(1.16935 1.28807 0.481367)
(1.29874 1.60097 1.08595)
(1.00633 1.59089 1.30874)
(0.939093 1.73594 1.21133)
(1.03014 1.46814 1.33165)
(1.07298 1.23535 1.45908)
(1.05829 1.16715 1.50349)
(1.45039 1.23962 1.23592)
(1.30506 1.7364 1.13419)
(1.04253 1.77305 1.20764)
(1.00856 1.46447 1.12489)
(0.992639 1.73587 1.29291)
(1.1729 1.48145 1.06872)
(1.09266 1.34712 1.56535)
(1.1605 1.16543 1.45734)
(1.52723 1.25605 1.25675)
(1.26139 1.66111 0.727252)
(1.13425 1.65537 0.754817)
(1.03841 1.77896 0.806786)
(1.08495 1.43334 0.675899)
(1.00743 1.48978 0.504435)
(1.01449 1.18375 0.520394)
(0.87494 1.27743 0.519481)
(1.22245 1.7412 0.939066)
(1.17563 1.71622 0.752484)
(1.12642 1.63906 0.791768)
(1.04494 1.79531 0.751198)
(1.03101 1.43526 0.513828)
(1.0707 1.4171 0.423414)
(1.17269 1.28212 0.460489)
(1.1904 1.2972 0.493454)
(0.638341 1.12092 0.601857)
(1.16314 1.64892 0.962229)
(1.07459 1.73361 1.054)
(1.32967 1.70333 0.859092)
(1.2897 1.38119 1.091)
(1.16546 1.61778 1.19383)
(1.17969 1.18167 0.992167)
(0.776923 1.5775 0.719514)
(0.848766 1.46856 1.0395)
(0.973464 1.69511 0.951607)
(0.894101 1.28832 0.763024)
(1.2728 1.36504 1.28744)
(1.43882 1.29654 1.09524)
(1.21799 1.15486 0.992728)
(1.19265 1.24591 0.981905)
(1.0913 1.59611 1.02324)
(1.45028 1.41164 1.07551)
(1.47508 1.39415 1.01475)
(1.61574 1.4152 1.27461)
(1.64314 1.32785 1.0732)
(1.65845 1.26999 1.00309)
(1.6771 1.14571 0.995108)
(1.3499 1.38432 1.14933)
(1.16176 1.49577 1.38073)
(1.44753 1.40394 1.18033)
(1.48226 1.40999 1.02544)
(1.72023 1.32644 1.15176)
(1.64201 1.29384 1.01518)
(1.67672 1.19271 0.996134)
(1.66455 1.08042 0.994997)
(1.12001 1.33301 0.726727)
(1.28026 1.19453 0.568611)
(1.36238 1.44965 0.92393)
(1.44527 1.186 1.39654)
(1.30285 1.53981 1.2784)
(1.26411 1.19988 1.42556)
(0.638262 1.16817 0.759668)
(1.10093 1.09414 0.825285)
(0.916607 1.07198 0.772618)
(1.50449 1.06987 0.993393)
(1.4891 1.12197 0.997638)
(1.55049 1.01846 0.993185)
(1.34715 1.44215 1.28906)
(1.45831 1.66926 1.09285)
(1.3968 1.54206 1.07699)
(1.67441 1.24331 1.30489)
(1.18873 1.68141 1.2639)
(1.4587 1.26313 1.2846)
(1.64479 1.11411 1.2119)
(1.60445 1.20986 1.33976)
(1.12387 1.67393 1.38044)
(1.61823 1.54869 1.16099)
(1.62112 1.62235 1.13405)
(1.03576 1.49967 1.30193)
(1.56075 1.40444 1.1835)
(1.72366 1.21484 1.25598)
(1.45644 1.43871 0.950117)
(1.70036 1.21406 1.10424)
(1.57523 1.27626 1.31886)
(1.75101 1.27429 1.1823)
(1.1924 1.8252 1.19603)
(1.25693 1.22357 1.44311)
(1.15373 1.24592 1.10153)
(1.48755 1.5427 1.23987)
(1.50279 1.12283 1.27756)
(1.36216 1.63054 1.21911)
(1.05537 1.77937 1.22365)
(1.40847 1.51773 1.12924)
(1.53998 1.24479 1.22198)
(1.61165 1.33476 1.35083)
(1.20599 1.78387 1.09847)
(1.24625 1.18733 1.41122)
(1.66847 1.12237 1.08906)
(1.38062 1.475 1.21751)
(1.22863 1.35509 0.899426)
(1.59175 1.31836 1.3311)
(1.62251 1.49133 1.07188)
(1.67396 1.41463 1.24707)
(1.28293 1.2413 1.48475)
(1.35993 1.17514 1.32678)
(1.30552 1.14431 1.3561)
(1.26265 1.17808 1.44295)
(1.29509 1.21631 1.48005)
(1.40108 1.19142 1.27672)
(1.43442 1.20359 1.24728)
(1.50899 1.29357 1.21701)
(1.45637 1.24253 1.21967)
(1.48301 1.26306 1.213)
(1.5816 1.2995 1.33226)
(1.47016 1.24431 1.21138)
(1.45963 1.17901 1.22682)
(1.5873 1.27952 1.24429)
(1.45128 1.12733 1.24097)
(1.48702 1.08333 1.23672)
(1.51623 1.18877 1.23608)
(1.57027 1.07122 1.21763)
(1.62243 1.07849 1.16969)
(1.56091 1.1014 1.26647)
(1.64618 1.07019 1.11672)
(1.65979 1.06552 1.04534)
(1.65532 1.117 1.14814)
(1.67298 1.13357 1.04433)
(1.35413 1.66792 1.14377)
(1.28103 1.60795 1.21135)
(1.20137 1.7652 1.13164)
(1.31693 1.63222 1.22984)
(1.33711 1.72598 1.12855)
(1.30618 1.47785 1.10048)
(1.36107 1.71683 1.06214)
(1.34197 1.63364 1.04725)
(1.64649 1.55752 1.06406)
(1.63335 1.4902 1.0739)
(1.17426 1.47945 1.39555)
(1.74331 1.31931 1.20865)
(1.61851 1.4386 1.2514)
(1.67407 1.57312 1.19613)
(1.68053 1.26531 1.07779)
(1.71859 1.2791 1.12082)
(1.74031 1.29555 1.23973)
(1.6741 1.18044 1.05085)
(1.6714 1.23983 1.05412)
(1.72332 1.23016 1.13002)
(1.67684 1.16197 1.09753)
(1.2707 1.61084 1.03624)
(1.35748 1.64447 1.01056)
(1.40568 1.6488 0.999253)
(1.51335 1.64893 1.13331)
(1.45972 1.66897 1.05917)
(1.36521 1.6269 1.02598)
(1.41992 1.6569 1.12176)
(1.55167 1.53167 0.973588)
(1.60015 1.62896 1.13654)
(1.22992 1.26656 1.32325)
(1.57572 1.30716 1.30394)
(1.53513 1.38542 1.38917)
(1.37786 1.16159 1.33778)
(1.57039 1.28312 1.26649)
(1.52618 1.39616 1.16834)
(1.45784 1.43396 1.08314)
(1.02863 1.63068 1.15159)
(1.32509 1.25723 1.07477)
(1.19794 1.62353 1.07389)
(1.25468 1.25811 1.01006)
(1.58418 1.56687 1.03081)
(1.69366 1.26704 1.29199)
(1.71896 1.23145 1.2629)
(1.59828 1.47625 1.25093)
(1.65506 1.48973 1.19596)
(1.62055 1.29531 1.34581)
(1.63225 1.35768 1.34817)
(1.63893 1.22117 1.32197)
(1.69623 1.21312 1.28229)
(1.65594 1.2058 1.31414)
(1.7426 1.23225 1.21583)
(1.52247 1.50104 1.20385)
(1.5006 1.5414 1.34158)
(1.24009 1.72849 1.21545)
(1.25196 1.73159 1.18301)
(1.25978 1.69469 1.27664)
(1.1598 1.79475 1.12498)
(1.17388 1.7891 1.15674)
(0.935612 1.78344 1.11475)
(1.16601 1.63743 1.22265)
(0.973186 1.65582 1.22748)
(0.928986 1.70011 1.16248)
(1.10037 1.80893 1.23542)
(1.02157 1.46877 1.19023)
(1.01275 1.72959 1.28119)
(0.908296 1.74083 1.08229)
(1.13569 1.38037 0.98996)
(1.06007 1.72286 1.3108)
(1.00707 1.73356 1.21629)
(1.18313 1.54957 1.04882)
(1.10245 1.42756 1.44928)
(0.979528 1.71206 1.13454)
(1.22157 1.17222 1.43339)
(1.4238 1.216 1.26721)
(1.45014 1.25827 1.24655)
(1.25067 1.19218 1.39411)
(1.21383 1.2083 1.01377)
(1.24435 1.57797 1.07593)
(1.035 1.70737 1.29918)
(1.34272 1.70458 1.05662)
(1.37548 1.65772 1.18319)
(1.23803 1.42745 1.02401)
(1.59038 1.61479 1.09876)
(1.68189 1.14342 1.16722)
(1.26141 1.2627 0.996666)
(1.28649 1.29904 0.972673)
(1.10777 1.59021 1.04009)
(1.0571 1.63276 1.05917)
(1.57818 1.63998 1.04173)
(1.681 1.14968 1.24335)
(1.62001 1.14668 1.29072)
(1.56156 1.1549 1.30683)
(1.7228 1.18673 1.18463)
(1.59904 1.2224 1.31797)
(1.4896 1.42069 1.20622)
(1.5712 1.20209 1.25026)
(1.19043 1.7147 1.33593)
(1.46302 1.54396 1.33127)
(1.46116 1.58486 1.28346)
(1.49001 1.46171 1.11579)
(1.57466 1.40084 1.20893)
(1.54729 1.40928 1.27036)
(1.50377 1.5148 1.2353)
(1.60391 1.2595 1.26008)
(0.853 1.60839 1.41907)
(0.636865 1.48299 1.41759)
(1.17743 1.09952 1.03575)
(0.59669 1.30266 1.28146)
(0.69992 1.40367 1.39165)
(1.03837 1.38037 1.52647)
(0.55683 1.06959 1.32928)
(1.02089 1.49485 1.28499)
(1.19004 1.18821 1.58145)
(1.19345 1.04466 1.17615)
(0.611087 1.29124 1.32427)
(0.915434 1.69858 1.1594)
(1.02331 1.2756 1.45471)
(1.02489 1.25218 1.51429)
(1.10766 1.39393 1.49208)
(0.870713 1.70432 1.1133)
(0.410053 1.17095 1.25355)
(1.108 1.24561 1.52016)
(0.497022 0.968879 1.06629)
(0.703138 1.23246 1.40971)
(1.07059 1.3007 1.53696)
(0.939204 1.62726 1.26166)
(1.10428 1.37999 1.52512)
(0.750993 1.26217 1.27899)
(0.650144 1.32072 1.32228)
(0.844861 1.27747 1.12517)
(0.91827 1.35433 1.28328)
(0.679843 1.49188 1.38372)
(0.951175 1.31749 1.52185)
(0.944134 1.49505 1.40265)
(0.554862 1.34898 1.37861)
(0.587978 1.29772 1.43987)
(1.0578 1.10586 0.952046)
(1.39549 1.24613 1.49089)
(1.06418 1.30359 1.00437)
(1.09337 1.57871 1.09013)
(1.17847 1.26178 1.30598)
(0.655357 1.14478 1.25206)
(0.586905 1.1042 1.13288)
(0.500134 1.23547 1.3263)
(0.728233 1.07734 1.32042)
(0.598726 0.971938 1.07001)
(0.429434 1.21664 1.29489)
(0.418704 1.20021 1.24479)
(0.71769 1.05834 1.34643)
(0.400912 1.07619 1.02893)
(0.498751 0.97079 1.04744)
(0.42848 1.19595 1.24685)
(1.04481 1.02769 1.59203)
(1.2592 1.38475 1.31321)
(1.11181 1.20114 1.6136)
(1.17399 1.06526 1.56197)
(1.06761 1.21022 1.51967)
(1.54552 1.25474 1.27178)
(1.51545 1.23003 1.3014)
(1.16556 1.41319 1.5644)
(0.855461 1.56398 1.17785)
(0.81967 1.54027 1.23265)
(0.717907 1.41582 1.40947)
(0.918665 1.62192 1.19992)
(0.792338 1.57312 1.34897)
(0.599817 1.39589 1.21057)
(0.628327 1.42018 1.26531)
(1.0204 1.39413 1.28536)
(0.859127 1.34637 1.44991)
(0.592863 1.38209 1.20653)
(0.990305 1.67409 1.31012)
(0.913961 1.21654 1.44023)
(0.648759 1.22349 1.30256)
(0.464688 1.00438 1.08005)
(0.622071 1.43682 1.14266)
(0.714096 1.37773 1.31542)
(1.04561 1.40924 1.17199)
(0.847092 0.945043 0.973218)
(0.762729 1.39473 1.45224)
(1.09125 1.71911 1.22702)
(0.92915 1.63801 1.18118)
(0.959387 1.60206 1.27608)
(1.09502 1.34619 0.997082)
(1.09066 1.74835 1.26422)
(0.842372 1.57599 1.39491)
(0.964038 1.66431 1.34481)
(1.35295 1.4608 1.24961)
(1.10153 1.37208 1.50276)
(1.08222 1.30413 1.30227)
(1.0846 1.37795 1.52434)
(1.04358 1.40554 1.52527)
(0.992816 1.40479 1.47132)
(0.901948 1.51431 1.47193)
(0.579372 1.39769 1.17214)
(1.08943 1.19013 1.61968)
(0.979093 1.26819 1.50791)
(1.08185 1.2556 1.52388)
(1.07232 1.22435 1.53752)
(1.02845 1.31141 1.5055)
(1.01465 1.33843 1.49722)
(1.05128 1.29054 1.51636)
(1.03337 1.28933 1.50669)
(0.983624 1.35837 1.49278)
(1.21133 1.47647 1.19827)
(1.03718 1.42203 1.24007)
(1.10719 1.2938 1.47185)
(1.12602 1.35614 1.49393)
(1.11491 1.3335 1.49966)
(1.09531 1.33015 1.52095)
(0.86063 1.68671 1.15151)
(0.902375 1.38793 1.13174)
(1.25741 1.13482 1.4387)
(1.07786 1.19244 1.51182)
(1.03885 1.18888 1.50343)
(1.05792 1.24009 1.5486)
(1.30379 1.14608 1.41075)
(1.32093 1.1647 1.49425)
(1.13885 1.25931 1.59794)
(1.03081 1.14599 1.46722)
(1.08956 1.36547 1.55539)
(0.921301 1.32369 1.1595)
(0.586315 1.3199 1.28984)
(0.907008 1.36909 1.31917)
(1.04407 0.96258 1.1491)
(0.800773 1.20526 1.41707)
(1.15396 1.1318 1.34382)
(1.18914 1.13293 1.04345)
(0.488938 1.24226 1.33235)
(1.01963 1.5047 1.30572)
(1.19429 1.78722 1.2138)
(1.29706 1.57785 1.10475)
(1.00122 1.17551 1.27912)
(0.998372 1.66514 1.31094)
(0.970252 1.41391 1.46374)
(0.832972 1.61639 1.40108)
(0.654597 1.44704 1.26561)
(0.927231 1.3115 1.32859)
(0.767675 1.6262 1.36229)
(0.860554 1.01855 0.980133)
(0.766951 1.6114 1.34836)
(0.96212 1.34526 1.05288)
(1.09281 1.6717 1.34308)
(1.26636 1.61752 1.11565)
(0.844031 1.41305 0.97648)
(0.880051 1.112 1.38111)
(0.851701 1.1874 1.40299)
(0.846472 1.32014 1.45861)
(0.81463 1.16473 1.36003)
(1.04054 1.66232 1.20189)
(0.781801 1.43923 0.960947)
(1.0438 1.09769 1.23306)
(1.10464 1.14345 1.2071)
(0.93162 1.52126 1.02354)
(0.790277 1.13798 1.27141)
(0.917949 1.34947 1.52207)
(0.823552 1.27078 1.23442)
(0.672852 1.19648 1.37751)
(0.828571 1.41335 1.52601)
(1.03104 1.28403 1.51866)
(1.05805 1.33644 1.52552)
(0.640941 1.39396 1.20474)
(1.12861 1.12995 1.01874)
(1.12637 1.1376 1.16216)
(1.10647 1.26732 0.878524)
(1.18888 1.43745 1.18085)
(0.650356 1.4822 1.25693)
(0.582275 1.43194 1.2313)
(0.649666 1.50661 1.42376)
(0.864782 1.1378 1.40191)
(1.10779 1.29138 0.949143)
(0.806953 1.28711 1.40476)
(0.793238 1.25585 1.32553)
(0.660519 1.2275 1.42641)
(0.549483 1.30634 0.787267)
(0.928217 1.74704 0.739584)
(0.88452 1.13913 0.681395)
(0.546217 1.25017 0.784468)
(0.894463 1.30462 0.901219)
(0.904274 1.63368 0.806773)
(0.969141 1.77419 0.674868)
(0.791381 1.46864 0.566035)
(0.613069 1.18963 0.459465)
(1.05379 1.49275 0.712047)
(1.18757 1.29727 0.814706)
(0.971106 1.7624 0.629547)
(0.93011 1.5746 0.677044)
(0.541695 1.3572 0.748686)
(0.542776 1.22524 0.534948)
(1.05606 1.7068 0.839974)
(0.934273 1.33164 0.665029)
(0.479001 1.12521 0.756941)
(0.971461 1.11515 0.586796)
(1.14686 1.12516 0.89117)
(0.783183 1.3582 0.798479)
(0.613829 1.36409 0.697741)
(0.858372 1.36588 0.780001)
(1.21407 1.0634 0.915352)
(1.03244 1.69351 0.848136)
(0.781351 1.49812 0.830956)
(0.580571 1.22177 0.509301)
(1.24159 1.08664 0.889317)
(0.976279 1.4415 0.444744)
(0.607121 1.47147 0.784329)
(0.815311 1.53563 0.562411)
(1.03153 1.42862 0.812516)
(1.25922 1.67203 0.696735)
(0.752343 1.52795 0.624991)
(0.806041 1.39859 0.493367)
(1.23129 1.35549 0.477506)
(0.560751 1.37828 0.865494)
(0.55319 1.349 0.696209)
(0.802171 1.16474 0.708088)
(0.748505 1.17164 0.731817)
(0.649232 1.20912 0.70314)
(0.704437 1.55277 0.763288)
(0.946955 1.52405 0.809342)
(0.459106 1.18505 0.683406)
(0.450246 1.50349 0.679266)
(0.644629 1.49161 0.59014)
(0.762023 1.40761 0.5745)
(0.775734 1.37522 0.810919)
(1.00307 1.47989 0.429129)
(0.907257 1.43603 0.835526)
(0.76868 1.35399 0.556008)
(0.999619 1.43758 0.412409)
(0.847152 1.39353 0.781151)
(0.571462 1.48979 0.731363)
(0.952341 1.56344 0.818079)
(0.97394 1.63262 0.781216)
(0.818129 1.38644 0.826054)
(0.807676 1.53593 0.585566)
(1.05716 1.27563 0.465855)
(1.26579 1.21535 0.519249)
(0.999138 1.26201 0.476301)
(1.07795 1.70758 0.814662)
(0.943066 1.58389 0.630737)
(1.06584 1.46327 0.759974)
(1.03538 1.71108 0.849602)
(1.10472 1.66803 0.838885)
(1.11202 1.61312 0.974767)
(1.29915 1.35537 0.958373)
(1.10354 1.64912 0.823379)
(1.13219 1.65461 0.798774)
(1.09189 1.80969 0.717312)
(1.05682 1.79026 0.811682)
(1.3863 1.70448 0.758551)
(1.0263 1.18374 0.511757)
(0.95407 0.994447 0.494615)
(0.900292 1.48279 0.52326)
(0.968067 1.48263 0.53511)
(1.05999 1.23958 0.427314)
(0.566626 1.49549 0.655517)
(0.864213 1.48601 0.707016)
(0.92345 1.18908 0.706982)
(0.960606 1.09566 0.956412)
(1.00993 1.1112 0.778234)
(1.12701 1.04772 0.47292)
(0.731998 1.38934 0.457146)
(0.971536 0.98124 0.529773)
(0.542987 1.37656 0.814011)
(0.95205 1.623 0.679647)
(1.01012 1.48263 0.725351)
(0.922016 1.58026 0.788718)
(1.01078 1.72482 0.835037)
(0.815441 1.39495 0.819402)
(1.02049 1.48313 0.800417)
(1.00373 1.58526 0.66256)
(0.672258 1.51175 0.729522)
(0.84862 1.4413 0.736267)
(0.754757 1.58817 0.723241)
(0.592364 1.24113 0.924907)
(0.533592 1.43618 0.74085)
(0.849614 1.50433 0.577669)
(0.966433 1.4634 0.428759)
(0.879259 1.51368 0.53053)
(1.22877 1.46639 0.955991)
(1.05753 0.996418 0.951961)
(1.13884 1.11597 0.440229)
(1.02428 1.74306 0.621021)
(0.945847 1.716 0.841328)
(0.982861 1.73678 0.628167)
(1.09288 1.43934 0.659001)
(1.01415 1.78932 0.682542)
(1.01118 1.79365 0.738468)
(1.01922 1.4124 0.46693)
(1.02556 1.4449 0.499425)
(1.01628 1.31762 0.554252)
(1.0016 1.42701 0.695416)
(0.897234 1.44878 0.459066)
(0.907977 1.44311 0.865204)
(1.00106 1.71486 0.682043)
(0.869879 1.52832 0.88111)
(0.800832 1.4608 0.486973)
(0.77462 1.37383 0.532495)
(0.842648 1.38725 0.811764)
(0.78467 1.46431 0.487671)
(0.945492 1.4545 0.447757)
(0.492199 1.22811 0.692471)
(0.563493 1.27903 0.708824)
(0.859794 1.08694 0.750695)
(0.566059 1.07049 0.660539)
(0.426795 1.2187 0.70075)
(0.948019 1.28599 0.782568)
(0.80787 1.27722 0.7131)
(0.963326 1.21482 0.802097)
(1.07204 1.25698 1.04172)
(0.930707 1.37304 0.894519)
(0.664713 1.19212 0.845835)
(0.646298 1.07196 0.902461)
(1.08826 0.980692 1.0466)
(0.616844 1.06928 0.87081)
(0.413892 1.14585 0.742969)
(1.27363 1.64252 0.717119)
(1.20553 1.74866 0.963115)
(0.773589 1.2072 0.961779)
(0.651102 1.18441 0.549139)
(0.815657 1.24817 0.644125)
(0.778361 1.20123 0.662738)
(1.09237 1.0466 0.883705)
(0.919118 1.5259 0.996565)
(0.925411 1.51681 0.995674)
(1.08738 1.07791 0.794852)
(0.672495 1.39603 0.949916)
(0.678447 1.32202 0.542931)
(0.977727 1.22399 0.930194)
(0.864011 1.55991 1.00014)
(0.876169 1.55805 0.933927)
(0.970123 1.24574 0.916947)
(0.931324 1.63516 0.940772)
(1.07407 1.56888 0.806894)
(0.874841 1.40608 0.625031)
(1.23503 1.57094 0.868233)
(0.942407 1.24849 0.84309)
(0.94474 1.27517 0.700294)
(1.08949 1.14212 0.850099)
(1.06565 1.10079 0.882646)
(0.77553 1.3403 0.833997)
(0.745798 1.25563 0.880335)
(1.53955 1.66451 0.732544)
(1.41542 1.77406 0.777529)
(1.68516 1.2539 0.748694)
(1.17832 1.28921 0.844025)
(1.27181 1.76901 0.832786)
(1.63796 1.13064 0.777186)
(1.405 1.23933 0.703047)
(1.43147 1.30569 0.648924)
(1.44077 1.79955 0.849755)
(1.45538 1.71235 0.819313)
(1.12785 1.73076 0.782386)
(1.5862 1.45069 0.725554)
(1.55625 1.37869 0.635928)
(1.4091 1.34939 0.620987)
(1.47906 1.46168 0.592144)
(1.36707 1.12162 0.69367)
(1.55056 1.16609 0.68994)
(1.16596 1.23622 0.899576)
(1.12563 1.63594 1.10092)
(1.68789 1.21292 0.892882)
(1.66389 1.34116 0.891426)
(1.61099 1.27188 0.68957)
(1.4748 1.25561 0.771786)
(1.17541 1.73418 0.717756)
(1.28571 1.42029 0.631976)
(1.67655 1.38318 0.687861)
(1.50049 1.25792 0.78436)
(1.25653 1.24882 0.723767)
(1.27427 1.78386 0.924136)
(1.66793 1.1023 0.893155)
(1.24237 1.20646 0.513983)
(1.66243 1.50156 0.737991)
(1.6102 1.35945 0.858918)
(1.52614 1.23181 0.730104)
(1.14243 1.65571 0.764668)
(1.40287 1.68537 0.904703)
(1.674 1.11597 0.943442)
(1.65635 1.05928 0.945005)
(1.64459 1.06408 0.869098)
(1.52105 1.73908 0.808455)
(1.41798 1.75571 0.744056)
(1.53453 1.70742 0.798783)
(1.53745 1.63437 0.92154)
(1.52463 1.63974 0.748476)
(1.57781 1.62401 0.745771)
(1.59105 1.66909 0.850943)
(1.47013 1.48441 0.803862)
(1.53199 1.5548 0.690419)
(1.5957 1.6012 0.720245)
(1.64043 1.52741 0.737734)
(1.60732 1.52616 0.675944)
(1.24201 1.30284 0.764321)
(1.31514 1.46252 0.692916)
(1.30686 1.75505 0.971026)
(0.969415 1.59077 0.969703)
(1.37442 1.72083 1.03349)
(1.40779 1.40677 0.683882)
(1.54286 1.41964 0.710318)
(1.10739 1.62803 1.1068)
(1.55073 1.43563 0.704944)
(1.64966 1.41794 0.728056)
(1.5746 1.44747 0.794572)
(1.59342 1.34776 0.956091)
(1.56478 1.35228 0.888943)
(1.67333 1.43642 0.792087)
(1.6195 1.32705 0.930354)
(1.66111 1.28622 0.936236)
(1.6362 1.34646 0.888545)
(1.68103 1.22771 0.944734)
(1.68035 1.15718 0.936201)
(1.6852 1.27436 0.88892)
(1.67524 1.14123 0.883814)
(0.934385 1.20014 0.549757)
(1.15446 1.31279 0.468927)
(1.29227 1.0896 0.599732)
(1.21305 1.7129 0.693169)
(1.2551 1.67734 0.743598)
(1.25806 1.75226 0.895644)
(1.25413 1.67509 0.869179)
(1.18822 1.63436 0.743783)
(1.21427 1.70819 0.72912)
(1.36802 1.72108 0.962843)
(1.32391 1.7977 0.914407)
(1.35057 1.8242 0.820143)
(1.29834 1.77901 0.735289)
(1.65522 1.18517 0.761751)
(1.61197 1.20182 0.707195)
(1.59089 1.14007 0.723191)
(1.53161 1.09053 0.736769)
(1.57892 1.07848 0.766719)
(1.66954 1.15815 0.826832)
(1.65335 1.11203 0.830025)
(1.68963 1.22466 0.825328)
(1.62413 1.07721 0.813422)
(1.14245 1.69189 0.785252)
(1.06448 1.78028 0.793538)
(1.06718 1.69425 0.859285)
(1.14085 1.72691 0.745939)
(1.14887 1.58127 0.59838)
(1.12674 1.62238 0.582139)
(1.08563 1.71313 0.863175)
(1.21045 1.51867 0.817432)
(1.13599 1.58684 0.621406)
(1.04206 1.58021 0.610178)
(1.24047 1.25409 0.491239)
(1.31405 1.09284 0.583755)
(1.45485 1.25554 0.705863)
(1.31914 1.09215 0.596425)
(1.39157 1.27221 0.798786)
(1.51737 1.52438 0.840945)
(1.45255 1.64275 0.892558)
(1.24883 1.37766 0.919411)
(1.45376 1.37612 0.656115)
(1.40451 1.38354 0.781582)
(1.21017 1.21233 0.96363)
(1.0879 1.49397 0.67489)
(1.3402 1.31194 0.899366)
(1.2285 1.60351 0.9017)
(1.46887 1.68544 0.902286)
(1.49192 1.48722 0.823214)
(1.06378 1.73141 0.58757)
(1.39107 1.67291 0.76779)
(1.25259 1.2834 0.741753)
(1.1613 1.70994 0.779145)
(1.37549 1.16996 0.651244)
(1.35293 1.14879 0.621323)
(1.41344 1.24925 0.748264)
(1.31748 1.26676 0.555804)
(1.40409 1.19266 0.678616)
(1.39115 1.19784 0.706265)
(1.34586 1.17686 0.726508)
(1.3738 1.23211 0.691658)
(1.34554 1.24147 0.719242)
(1.34376 1.20009 0.717335)
(1.34707 1.20427 0.592658)
(1.60009 1.31605 0.79053)
(1.32661 1.18246 0.598923)
(1.48069 1.7072 0.973471)
(1.52959 1.40114 0.609474)
(1.14205 1.714 0.760717)
(1.68447 1.41372 0.836095)
(1.58402 1.34191 0.631615)
(1.63162 1.30871 0.697027)
(1.62753 1.28277 0.795715)
(1.60731 1.31833 0.639448)
(1.58669 1.4394 0.622589)
(1.67485 1.4458 0.710434)
(1.59433 1.25608 0.774529)
(1.51783 1.19517 0.690245)
(1.5833 1.23117 0.707044)
(1.47395 1.15132 0.727631)
(1.49066 1.11361 0.725772)
(1.61779 1.25675 0.677154)
(1.43264 1.27601 0.835361)
(1.5202 1.25247 0.776123)
(1.26186 1.22537 0.676606)
(1.47747 1.18891 0.733036)
(1.46359 1.19964 0.748968)
(1.70188 1.30672 0.825268)
(1.7039 1.35362 0.803271)
(1.69449 1.3816 0.828497)
(1.68279 1.29548 0.715676)
(1.47739 1.26184 0.78963)
(1.39944 1.22432 0.759931)
(1.43534 1.21191 0.762637)
(1.14233 1.34906 0.965185)
(0.862222 0.937929 0.831649)
(1.06009 1.1748 1.06412)
(1.13558 1.41693 1.35461)
(1.06324 1.33611 1.34918)
(1.18324 1.02695 1.0956)
(1.05147 1.23844 1.07881)
(0.799146 1.26457 1.11727)
(1.15111 1.36185 1.21689)
(1.30625 1.47091 1.14399)
(1.00231 0.936528 1.28824)
(0.861617 1.37791 1.1803)
(1.34676 1.34546 1.41442)
(0.995287 0.946711 1.2818)
(1.22912 1.14069 1.02516)
(1.306 1.13053 0.896677)
(1.24845 1.10327 0.977173)
(1.27355 1.19157 1.09809)
(1.4659 1.42095 1.32162)
(1.21598 1.15922 1.29882)
(0.523115 1.42671 1.19823)
(0.860199 1.30163 1.1878)
(0.667437 1.1697 1.44044)
(0.927683 1.21801 1.11707)
(0.691061 1.06972 1.30233)
(1.08395 1.14321 1.11588)
(1.12169 0.940241 1.29902)
(1.06861 0.936503 1.29622)
(1.01353 0.971243 1.23265)
(0.496462 1.43198 1.31936)
(0.569125 1.18901 1.37367)
(1.1265 1.07389 1.03164)
(1.11506 0.903282 1.16506)
(0.650082 1.28406 1.08389)
(0.898401 1.42654 1.30066)
(0.968049 1.27179 1.19983)
(0.983373 1.15263 1.16908)
(0.935936 1.21385 1.11346)
(0.920197 1.23271 1.21876)
(1.21502 1.35668 1.51485)
(1.43168 1.16997 1.40871)
(1.2471 1.14716 1.21156)
(1.17518 1.16448 1.02346)
(1.0589 1.21751 1.08867)
(1.07001 1.22542 1.24867)
(0.953467 1.19163 1.39701)
(1.24144 1.5335 1.32857)
(1.17023 1.46956 1.35273)
(1.12776 1.04243 1.12615)
(1.33214 1.45092 1.35722)
(1.44202 1.34231 1.43911)
(1.04534 0.88459 1.14427)
(0.847014 1.39605 1.35427)
(0.730212 1.24694 1.10872)
(1.01414 1.32381 1.17957)
(0.925535 1.39236 1.25572)
(0.955114 1.37407 1.24544)
(1.06099 1.19662 1.07999)
(1.02676 1.2378 1.09287)
(1.14875 1.08815 1.19088)
(1.09384 1.321 1.25689)
(1.17268 1.16849 1.19442)
(0.844957 1.40781 1.30549)
(1.21483 1.29645 1.04405)
(1.26506 1.55776 1.23229)
(1.17904 1.45469 1.28713)
(1.1544 1.13573 1.2163)
(0.979712 1.70507 1.08258)
(1.07143 0.939544 1.17706)
(1.10562 0.9578 1.22615)
(0.979491 1.32085 1.2439)
(1.2035 1.03418 1.10266)
(1.40161 1.37474 1.01719)
(1.43133 1.52416 0.986142)
(1.57778 1.4654 1.32723)
(1.67002 1.43274 1.06279)
(1.58944 1.41909 1.26522)
(1.3296 1.33868 1.20055)
(1.42824 1.48247 1.05374)
(1.61311 1.36132 1.31318)
(1.45365 1.37081 1.37082)
(1.49985 1.17843 1.07744)
(1.67317 1.41599 1.15103)
(1.33211 1.41604 1.11408)
(1.49966 1.54932 1.19391)
(1.37785 1.20793 1.02801)
(1.25057 1.29706 1.33897)
(1.6705 1.27262 1.24981)
(1.63372 1.32258 1.25057)
(1.59145 1.39961 1.33738)
(1.69822 1.48712 1.13101)
(1.58331 1.4381 1.20073)
(1.46195 1.47135 1.0162)
(1.54983 1.38796 1.14611)
(1.44349 1.4642 1.04065)
(1.45304 1.52186 0.990661)
(1.40461 1.44098 1.0974)
(1.46846 1.44508 1.03975)
(1.5801 1.43704 1.21629)
(1.30739 1.17313 1.04333)
(1.34269 1.196 1.05359)
(1.47506 1.3724 0.856043)
(1.39013 1.3474 0.929441)
(1.39744 1.29409 0.951797)
(1.41242 1.50583 1.0299)
(1.48541 1.1938 1.10554)
(1.6538 1.33562 1.20312)
(1.4778 1.17766 1.09753)
(1.49286 1.1594 1.04738)
(1.33077 1.30486 1.21185)
(1.36141 1.36316 1.15269)
(1.25708 1.56546 1.02187)
(1.5231 1.46285 1.06353)
(1.67671 1.42322 1.0965)
(1.31243 1.28363 1.23548)
(1.26893 1.34567 1.38826)
(1.27086 1.44127 1.3612)
(1.27394 1.36117 1.45334)
(1.41642 1.42548 1.33113)
(1.31997 1.52505 1.26545)
(1.34404 1.30135 1.15961)
(1.33533 1.44081 1.08083)
(1.42862 1.23692 1.17093)
(1.30016 1.3868 1.34331)
(1.46909 1.57272 1.19069)
(1.65965 1.39946 1.13521)
(1.64765 1.39801 1.10893)
(1.40645 1.29314 0.984189)
(1.47459 1.4384 1.28627)
(1.35021 1.35632 1.19159)
(1.15412 1.13725 1.31419)
(1.38325 1.41685 1.09028)
(1.49723 1.54029 1.16835)
(1.34561 1.3697 1.32715)
(1.50384 1.40913 1.12323)
(1.5049 1.17621 1.0443)
(1.64434 1.34771 1.25917)
(1.64104 1.35261 1.26533)
(1.55524 1.44442 1.06125)
(1.66714 1.38228 1.07679)
(1.68999 1.26097 1.24964)
(1.63828 1.31855 1.28126)
(1.69162 1.51861 1.15254)
(1.63336 1.35208 1.28642)
(1.30118 1.51223 0.666727)
(1.67075 1.37271 1.1922)
(1.45265 1.42299 0.765217)
(1.3973 1.39503 0.862252)
(1.62609 1.3584 0.739072)
(1.71417 1.33723 1.20001)
(1.13548 1.11332 0.768445)
(1.55834 1.30683 0.859219)
(1.06247 1.13378 0.728186)
(1.28684 1.42001 1.04047)
(1.55325 1.26877 1.03302)
(1.29554 1.49673 0.739924)
(1.65915 1.30212 1.12484)
(1.37093 1.1943 0.987476)
(1.3724 1.32033 0.782551)
(1.21807 1.17571 0.971413)
(1.2084 1.13671 0.991307)
(1.22243 1.21134 0.881891)
(1.22002 1.24742 0.727011)
(1.24435 1.16748 0.867474)
(1.16096 1.33344 0.856154)
(1.31847 1.21315 0.951151)
(1.12114 1.32594 0.487187)
(0.998062 1.2093 0.585758)
(1.2815 1.48682 0.617751)
(1.2837 1.51638 0.688202)
(1.28689 1.34068 0.670461)
(1.55049 1.29416 0.869588)
(1.51371 1.62297 0.886161)
(1.49184 1.62508 0.897433)
(1.39621 1.32864 0.727103)
(0.978933 1.17098 0.599629)
(1.31077 1.43117 0.583813)
(1.13156 1.19486 0.814645)
(1.39732 1.29755 0.97789)
(1.28842 1.14834 0.931464)
(1.33244 1.3633 0.620691)
(1.57791 1.37346 0.680187)
(1.37665 1.33545 0.941299)
(1.29461 1.4862 0.743112)
(1.28875 1.46909 0.596193)
(1.3184 1.37992 0.845049)
(1.48724 1.3975 0.722467)
(1.47402 1.42243 0.712194)
(1.60414 1.35502 1.07947)
(1.16159 1.6531 1.03019)
(1.59549 1.31558 1.02407)
(1.47042 1.34691 0.72811)
(1.54291 1.44783 0.83387)
(1.50819 1.34142 0.920244)
(1.54265 1.4373 0.812268)
(1.19062 1.65025 1.00556)
(1.39236 1.35145 1.03563)
(1.63615 1.38769 1.26297)
(1.68466 1.36498 1.19796)
(1.51051 1.22627 0.967884)
(1.50626 1.25885 0.965444)
(1.36921 1.42339 0.732103)
(1.71047 1.28393 1.17964)
(1.72187 1.31113 1.1823)
(1.56082 1.30798 0.874649)
(1.57105 1.39812 0.683219)
(1.52206 1.2046 1.00194)
(1.67109 1.33416 1.26066)
(1.69745 1.32036 1.25043)
(1.69695 1.30724 1.15024)
(1.50314 1.19503 0.975518)
(1.59881 1.30351 1.0224)
(0.962778 1.27742 0.527509)
(0.519518 1.37521 0.553869)
(1.15596 1.4782 0.895236)
(0.887719 1.37447 0.685829)
(1.26081 1.42846 0.622158)
(1.12267 1.29851 0.679833)
(0.526951 1.08699 0.698458)
(0.871181 1.33242 0.920009)
(0.654607 1.3203 0.755432)
(1.04793 1.36469 0.950555)
(1.21688 1.43125 0.512456)
(0.956281 1.35745 0.940725)
(1.02412 1.43128 0.839296)
(1.18872 1.54496 0.899759)
(1.03787 1.45427 0.532258)