/*--------------------------------*- C++ -*----------------------------------*\
| =========                 |                                                 |
| \\      /  F ield         | OpenFOAM: The Open Source CFD Toolbox           |
|  \\    /   O peration     | Version:  v1806                                 |
|   \\  /    A nd           | Web:      www.OpenFOAM.com                      |
|    \\/     M anipulation  |                                                 |
\*---------------------------------------------------------------------------*/
FoamFile
{
    version     2.0;
    format      ascii;
    class       surfaceScalarField;
    location    "0.05";
    object      phi;
}
// * * * * * * * * * * * * * * * * * * * * * * * * * * * * * * * * * * * * * //

dimensions      [0 3 -1 0 0 0 0];
oriented        oriented;


internalField   nonuniform List<scalar> 
187200
(
7.64516e-06
1.30802e-06
-8.95429e-06
4.20721e-05
-1.52989e-05
-1.91279e-05
6.32817e-05
-8.72295e-06
-1.24865e-05
8.28332e-05
-8.9878e-06
-1.05636e-05
0.000100242
-6.48918e-06
-1.09195e-05
0.000118067
-5.14452e-06
-1.26809e-05
0.000133257
-4.96403e-07
-1.46934e-05
0.000148751
1.01824e-06
-1.65119e-05
0.000161955
4.80124e-06
-1.80051e-05
0.000171948
6.95411e-06
-1.69469e-05
0.000182185
8.29329e-06
-1.85311e-05
0.000186081
1.43753e-05
-1.82712e-05
0.000174986
2.23611e-05
-1.12664e-05
0.000142792
3.88198e-05
-6.62649e-06
9.6376e-05
4.39478e-05
2.46827e-06
5.27958e-05
3.03351e-05
1.32448e-05
-4.28596e-06
3.20935e-05
2.4988e-05
-6.2867e-05
5.01141e-05
8.46647e-06
-0.000162378
0.000100764
-1.25242e-06
-0.000286439
0.000133083
-9.02263e-06
-0.000505672
0.000211878
7.35561e-06
-0.000680121
0.000231393
-5.69437e-05
-0.000785373
0.000274504
-0.000169253
-0.000822087
0.000307702
-0.000270988
-0.000797899
0.000338168
-0.000362355
-0.000727707
0.000369263
-0.000439455
-0.000616559
0.000391608
-0.000502757
-0.000482393
0.000407899
-0.000542064
-0.000316862
0.0003961
-0.000561631
-0.000156632
0.000381385
-0.000541615
-2.82387e-05
0.000338564
-0.000466957
5.23766e-05
0.000298029
-0.000378644
8.13056e-05
0.000232944
-0.000261873
7.15314e-05
0.00017448
-0.000164706
4.3687e-05
0.000121627
-9.37824e-05
2.11626e-05
8.06892e-05
-5.81651e-05
5.90395e-06
5.57939e-05
-4.05355e-05
-1.6611e-06
4.29148e-05
-3.53495e-05
-4.99754e-06
3.28082e-05
-2.94716e-05
2.22285e-05
-2.7226e-05
7.77314e-06
8.68836e-06
-1.51533e-05
4.54846e-05
-2.65351e-05
-2.6475e-05
8.40599e-05
-2.20179e-05
-2.52801e-05
0.000115837
-1.46356e-05
-2.61297e-05
0.000136759
-1.96825e-06
-2.54425e-05
0.000153394
8.32254e-06
-3.01024e-05
0.000160557
2.84593e-05
-3.61181e-05
0.000163219
4.05085e-05
-4.21522e-05
0.000156135
6.42617e-05
-5.23768e-05
0.000137293
8.52632e-05
-5.94672e-05
9.43338e-05
0.000126529
-7.52766e-05
3.13154e-05
0.000169376
-9.19825e-05
-5.30398e-05
0.000205393
-9.86769e-05
-0.000152522
0.000246812
-0.00010851
-0.000280531
0.000302272
-0.000130316
-0.000467557
0.000380581
-0.000163221
-0.000655717
0.000456797
-0.000236544
-0.000853251
0.000542412
-0.000294765
-0.00102536
0.000638817
-0.00036595
-0.00117831
0.000732003
-0.000445961
-0.00131075
0.000852094
-0.000507783
-0.00140143
0.000931069
-0.000608995
-0.00143873
0.00103242
-0.000720612
-0.0014185
0.00108956
-0.000802086
-0.00132839
0.00113313
-0.000885073
-0.00118173
0.00116214
-0.000939546
-0.000986996
0.00116538
-0.000968506
-0.000759523
0.00114447
-0.000964042
-0.000525506
0.00108358
-0.000921492
-0.000300767
0.00100521
-0.00084857
-0.000109711
0.000875678
-0.00072817
4.93539e-05
0.000736689
-0.000597725
0.000128331
0.000586568
-0.000432601
0.000153132
0.000458398
-0.000308719
0.000137441
0.000339626
-0.000202309
0.000106208
0.000250893
-0.000138969
7.29145e-05
0.000187828
-9.87412e-05
4.60256e-05
0.00014721
-7.74058e-05
1.86749e-05
0.000117348
-5.71893e-05
8.02378e-05
-3.93344e-05
1.90766e-05
1.45401e-06
-1.18422e-05
5.75693e-05
-3.28739e-05
-3.21537e-05
9.74734e-05
-2.30411e-05
-3.8881e-05
0.000126713
-3.25143e-06
-4.06236e-05
0.000143279
2.90763e-05
-4.76099e-05
0.000147961
5.97875e-05
-5.61472e-05
0.000140082
0.000103229
-6.68915e-05
0.000122261
0.00014181
-8.34797e-05
9.19863e-05
0.000204306
-0.00010977
3.44137e-05
0.000273258
-0.000130423
-4.92328e-05
0.000354677
-0.000144502
-0.000148673
0.000434509
-0.000165693
-0.000305116
0.000541504
-0.000179668
-0.000488443
0.00064981
-0.000219672
-0.00069479
0.000760245
-0.000251625
-0.00088316
0.000871141
-0.000302191
-0.00105147
0.000978108
-0.000352997
-0.00120532
0.00110172
-0.000405461
-0.00134287
0.001235
-0.000458638
-0.00146662
0.00137159
-0.000515842
-0.00156899
0.00150498
-0.000550512
-0.00162945
0.00158777
-0.000596241
-0.00163158
0.00168965
-0.000655102
-0.00158919
0.00172769
-0.000680516
-0.00148875
0.00174716
-0.000714475
-0.00134663
0.00174223
-0.000722205
-0.00116947
0.00169949
-0.000711255
-0.000968559
0.00162337
-0.00067982
-0.000759132
0.00150686
-0.000632715
-0.000540011
0.00136003
-0.000573937
-0.000360536
0.00118988
-0.000493673
-0.000200842
0.0010067
-0.000429707
-8.62707e-05
0.00081104
-0.000339042
-5.10273e-06
0.00064739
-0.00027016
3.12181e-05
0.000501937
-0.000198631
4.53847e-05
0.000388651
-0.000151925
4.52848e-05
0.00030886
-0.000120932
3.5557e-05
0.000256379
-9.94409e-05
1.63717e-05
0.000206534
-6.99998e-05
0.000136248
-3.96383e-05
1.9535e-05
-3.61322e-07
-1.77195e-05
5.8343e-05
-2.55991e-05
-4.60827e-05
9.79246e-05
-4.28939e-06
-5.83331e-05
0.000122222
3.81852e-05
-6.57341e-05
0.000126296
9.80192e-05
-7.30164e-05
0.000114061
0.000158325
-8.63026e-05
9.22183e-05
0.000236107
-0.000111035
5.4827e-05
0.000316044
-0.000136844
1.47349e-06
0.000427078
-0.000169419
-7.66276e-05
0.000539778
-0.000188419
-0.0001924
0.000673614
-0.000203165
-0.000346805
0.000805391
-0.000216477
-0.000513552
0.000936669
-0.000228418
-0.000673243
0.00105385
-0.000244347
-0.000828552
0.00118198
-0.00026643
-0.000974818
0.00130813
-0.000290724
-0.00111407
0.00143216
-0.000314795
-0.00123693
0.00155275
-0.000328172
-0.00134343
0.00167782
-0.00033632
-0.00143716
0.0017973
-0.000331976
-0.00152367
0.00189513
-0.000303648
-0.00157972
0.00193626
-0.000292447
-0.00158034
0.00199266
-0.000302389
-0.00155079
0.00198122
-0.000283082
-0.00147319
0.00195182
-0.00028226
-0.00136924
0.00190352
-0.000265246
-0.00124256
0.00181933
-0.000246526
-0.00110138
0.00170858
-0.000226388
-0.000948341
0.00156167
-0.000207839
-0.000784378
0.00139848
-0.000202416
-0.000608945
0.00121699
-0.000202549
-0.000439285
0.00103474
-0.000197696
-0.00029146
0.000859229
-0.000196014
-0.000167757
0.000710909
-0.000187222
-8.39623e-05
0.000584767
-0.000166625
-2.61962e-05
0.000479085
-0.000148199
8.92968e-06
0.000406023
-0.000132288
2.20636e-05
0.000351885
-0.00010864
1.75406e-05
0.000287575
-7.65182e-05
0.000190459
-3.66698e-05
1.91191e-05
1.61866e-05
-3.5667e-05
5.92995e-05
1.11266e-05
-7.69061e-05
0.000101571
4.43882e-05
-9.09486e-05
0.000120805
0.000118428
-9.9477e-05
0.000119977
0.000204674
-0.000105827
9.08915e-05
0.000306357
-0.000118947
5.72343e-05
0.000420379
-0.000150615
1.9134e-05
0.000539274
-0.00018513
-3.28677e-05
0.000687371
-0.000208292
-0.000117156
0.000838253
-0.000214188
-0.000218572
0.000989468
-0.000214437
-0.000331699
0.00112811
-0.000209589
-0.000465764
0.00127107
-0.000200334
-0.000610579
0.00139811
-0.00019945
-0.000750127
0.00151591
-0.000194377
-0.000871833
0.00161643
-0.00018659
-0.000973594
0.00170123
-0.000167318
-0.00105765
0.00177264
-0.000135841
-0.00114889
0.00185009
-8.10299e-05
-0.0012352
0.00191308
-2.9461e-05
-0.00134043
0.00195728
4.30852e-05
-0.00140341
0.00191568
8.35718e-05
-0.00142118
0.00191914
9.12845e-05
-0.00142319
0.00187735
0.000105886
-0.00138993
0.00182591
9.26521e-05
-0.00134269
0.00176905
8.72327e-05
-0.00127836
0.00167906
7.59317e-05
-0.00120783
0.00157637
6.16881e-05
-0.00111416
0.00144356
2.4437e-05
-0.000996854
0.00130102
-1.98407e-05
-0.000853764
0.00114262
-6.8719e-05
-0.000692351
0.000993011
-0.000119685
-0.000532002
0.000846847
-0.000147967
-0.000381052
0.00072741
-0.000167451
-0.000246491
0.000629277
-0.00017907
-0.000137168
0.000532844
-0.000163081
-5.65481e-05
0.000471854
-0.00014645
-6.17862e-06
0.000422806
-0.000121291
9.06746e-06
0.000352969
-8.06395e-05
0.000232889
-3.33634e-05
1.66782e-05
6.13197e-05
-6.18113e-05
5.94619e-05
8.31089e-05
-0.000114766
0.000111317
0.000133632
-0.000141099
0.000130044
0.000237002
-0.000137301
0.000128416
0.000347849
-0.000141547
8.60279e-05
0.00049734
-0.000148595
6.11684e-05
0.000631938
-0.0001867
2.04181e-05
0.000791071
-0.000211047
-2.74134e-05
0.00095325
-0.000218048
-9.30476e-05
0.00110627
-0.000202381
-0.00016825
0.00124914
-0.000184471
-0.000258023
0.00137971
-0.000161829
-0.000347951
0.00149553
-0.000134537
-0.000435134
0.00159082
-0.00010553
-0.000516321
0.00167151
-7.44109e-05
-0.00059656
0.00172828
-3.16095e-05
-0.000701271
0.00176829
3.7654e-05
-0.000804706
0.00177989
9.61907e-05
-0.000897071
0.00178241
0.000160046
-0.000978768
0.00176579
0.000228981
-0.00108416
0.00178431
0.000278358
-0.00117852
0.00170784
0.000302209
-0.0012296
0.00167227
0.000297942
-0.00127607
0.00161914
0.00030468
-0.00129462
0.00155642
0.000288038
-0.00130409
0.00150318
0.000275349
-0.00130036
0.00142961
0.000245723
-0.00128868
0.00135328
0.000211413
-0.00125354
0.00125539
0.000153021
-0.00117409
0.00115501
6.65493e-05
-0.00106442
0.00103974
-6.78976e-06
-0.00091238
0.000926994
-8.602e-05
-0.00073769
0.000818012
-0.000145855
-0.000555624
0.000722462
-0.000177117
-0.000378228
0.000650446
-0.000198565
-0.000232357
0.00057458
-0.000187608
-0.000110986
0.000520546
-0.000170064
-3.19011e-05
0.000478624
-0.000134903
5.34368e-06
0.000403581
-8.78566e-05
0.000270369
-3.21372e-05
1.887e-05
0.000137982
-9.55319e-05
8.71769e-05
0.000183482
-0.000168679
0.00013879
0.000266206
-0.000184187
0.000157997
0.000388269
-0.000170474
0.000146239
0.000521358
-0.000161751
0.000119166
0.000693203
-0.00016879
0.000106259
0.000843312
-0.000198467
8.40581e-05
0.00102083
-0.000207562
5.87657e-05
0.00116733
-0.00018879
8.26099e-06
0.00131343
-0.000156661
-5.49537e-05
0.00143583
-0.000123476
-0.000125922
0.0015382
-8.75284e-05
-0.000198624
0.00161902
-5.07853e-05
-0.000273693
0.00167071
-4.81887e-06
-0.000344434
0.00169656
4.56907e-05
-0.000411357
0.00169793
9.72654e-05
-0.000474461
0.00167615
0.000155239
-0.000556979
0.00164075
0.000221653
-0.000655194
0.00159459
0.000286035
-0.000760758
0.00152957
0.000341786
-0.000865635
0.00150728
0.0003819
-0.000994556
0.00143001
0.000406744
-0.00106181
0.00134826
0.000391267
-0.00114996
0.00132478
0.000382509
-0.00121526
0.00127216
0.000349549
-0.00127533
0.00124276
0.000320487
-0.00132252
0.00119968
0.000277118
-0.00135618
0.00115629
0.000230642
-0.00136723
0.0011006
0.000165841
-0.00132262
0.00103983
7.05756e-05
-0.00124012
0.000961757
-4.51787e-06
-0.00110956
0.000878462
-8.20322e-05
-0.000932572
0.000794815
-0.000153787
-0.000726035
0.000709948
-0.000194023
-0.000500768
0.00065905
-0.000233871
-0.00032084
0.000617403
-0.000222752
-0.000163226
0.000564232
-0.0002013
-5.62465e-05
0.00052957
-0.000157927
-6.68576e-07
0.000449887
-0.000101883
0.000305311
-3.56112e-05
2.84207e-05
0.000235972
-0.000126411
0.000119777
0.000308584
-0.000216459
0.00018852
0.000424327
-0.000226864
0.000217305
0.000558116
-0.000198632
0.000200894
0.000714469
-0.0001767
0.000192505
0.000882755
-0.000181163
0.000192107
0.00103729
-0.000193579
0.000185796
0.00120601
-0.000178864
0.000159344
0.00133855
-0.000144765
0.00011768
0.00145685
-0.00010175
6.7302e-05
0.00154939
-6.31781e-05
9.05246e-06
0.00161347
-1.70122e-05
-5.70761e-05
0.00164572
3.94309e-05
-0.000121584
0.00164633
8.88877e-05
-0.000187109
0.00162058
0.000141498
-0.000254962
0.00156984
0.000195947
-0.000322322
0.0014992
0.000244316
-0.000398339
0.00142646
0.000290305
-0.000490218
0.00135109
0.000335375
-0.000600467
0.00127035
0.000369469
-0.000696947
0.00121389
0.000389872
-0.000843225
0.00117754
0.000398753
-0.000950322
0.00107829
0.000377063
-0.00106467
0.00108096
0.00035817
-0.00116829
0.00104961
0.000326181
-0.00125961
0.00104013
0.000293945
-0.00133876
0.0010249
0.000253925
-0.00140416
0.00100212
0.000219574
-0.00144362
0.000976608
0.000163451
-0.001434
0.000934368
9.58488e-05
-0.00137837
0.000880931
2.51932e-05
-0.00126722
0.000813897
-4.65794e-05
-0.00108958
0.000749082
-0.000131915
-0.000883818
0.000691524
-0.000187334
-0.000642474
0.00064458
-0.000226874
-0.000413097
0.00064124
-0.000253214
-0.000217889
0.000594077
-0.000225054
-8.02845e-05
0.000572523
-0.000180557
-7.46113e-06
0.000491927
-0.000114864
0.000337813
-3.99621e-05
4.91704e-05
0.000340303
-0.000153501
0.000160018
0.000457062
-0.000259325
0.000255265
0.000595773
-0.000266692
0.00029513
0.000737309
-0.000219058
0.000292751
0.00089898
-0.000182133
0.000289885
0.00105528
-0.000169655
0.000280135
0.00120571
-0.000158666
0.000284576
0.00134101
-0.000139442
0.000274069
0.00145033
-0.000101275
0.000239256
0.0015432
-5.15441e-05
0.000193136
0.00159418
1.32293e-06
0.00013557
0.00161388
5.71527e-05
6.7657e-05
0.00160535
0.000108281
-1.01244e-06
0.00156106
0.000153939
-7.13981e-05
0.0014919
0.000199066
-0.000146842
0.00140482
0.000240465
-0.000224287
0.00130447
0.000272172
-0.000305937
0.00121281
0.00029531
-0.000395789
0.00112536
0.000315584
-0.00050221
0.00104879
0.000327982
-0.000609059
0.000988438
0.0003323
-0.00074404
0.000979945
0.000332573
-0.000890262
0.000905919
0.000318595
-0.00101259
0.000903636
0.000299653
-0.00113847
0.000895151
0.00028034
-0.00124712
0.00089686
0.00025192
-0.00134754
0.000893324
0.000231989
-0.00143532
0.000887579
0.00020233
-0.00150196
0.000869175
0.000174071
-0.00152819
0.00083484
0.000125756
-0.00149502
0.000786945
6.0821e-05
-0.00139611
0.000734553
-1.9566e-05
-0.00122542
0.000676957
-9.85652e-05
-0.0010025
0.000635397
-0.000166794
-0.000746101
0.000604231
-0.000216052
-0.000491501
0.000631383
-0.000244744
-0.00027223
0.00061855
-0.000243744
-0.000103814
0.000602493
-0.000198387
-1.55694e-05
0.000533102
-0.00012942
0.0003689
-4.66563e-05
6.65486e-05
0.000441201
-0.000167446
0.000202647
0.000610914
-0.00028995
0.000323005
0.00076692
-0.000291506
0.000378938
0.000910065
-0.000228689
0.000392656
0.00106063
-0.000175372
0.000387285
0.00119788
-0.000137229
0.000378792
0.00133168
-0.000117481
0.000373097
0.00143922
-9.25114e-05
0.000360825
0.00151716
-5.45571e-05
0.000343393
0.00156395
-3.31322e-06
0.00030329
0.00158757
4.67195e-05
0.000232705
0.00157636
0.000108099
0.000161188
0.00152319
0.000153679
8.65082e-05
0.00144161
0.000194135
7.32459e-06
0.00134444
0.000226651
-7.71249e-05
0.00123726
0.000252011
-0.000163147
0.00112495
0.000265545
-0.000254152
0.00103363
0.000270177
-0.000355734
0.000956129
0.000270814
-0.000463516
0.000890634
0.000265937
-0.000578639
0.000840928
0.000262632
-0.000692791
0.000833977
0.000260119
-0.000846724
0.000798061
0.000261791
-0.000972317
0.000779894
0.000249335
-0.00110068
0.000776515
0.000246999
-0.00121591
0.000785745
0.000226341
-0.00132744
0.000782239
0.000222619
-0.00143514
0.000780614
0.000214665
-0.00152254
0.000755201
0.000201379
-0.00157369
0.000724145
0.000161842
-0.00156821
0.000686706
9.47565e-05
-0.0014905
0.000647299
9.5483e-06
-0.00134072
0.000608292
-8.11155e-05
-0.00111897
0.000573894
-0.000160251
-0.000859241
0.000544185
-0.000199683
-0.000570631
0.000570426
-0.000227654
-0.000320696
0.000615001
-0.000246387
-0.000127792
0.000615348
-0.000205758
-2.26933e-05
0.000564768
-0.000136765
0.000396889
-5.06817e-05
8.11703e-05
0.000534372
-0.000174342
0.000245561
0.00075743
-0.000310906
0.000390612
0.000930592
-0.000308723
0.000465308
0.00106601
-0.000230639
0.000494432
0.00119336
-0.000161853
0.000490211
0.00130735
-0.000105253
0.000480432
0.00141574
-7.42837e-05
0.000463557
0.00149364
-3.75492e-05
0.000434494
0.00154667
-4.51629e-07
0.000399413
0.00156771
3.13203e-05
0.000362182
0.00154655
7.82502e-05
0.000306494
0.00149674
0.000135315
0.000230685
0.00142256
0.000176435
0.000142677
0.0013198
0.000209816
5.39667e-05
0.00120313
0.000230016
-3.77041e-05
0.00108998
0.000238948
-0.000136499
0.000982212
0.000241531
-0.00024666
0.000906076
0.000237718
-0.000348683
0.000832165
0.000225987
-0.000455988
0.000781518
0.000216421
-0.000559527
0.000740105
0.000204362
-0.000659031
0.000729179
0.000204302
-0.000787989
0.000712485
0.000214535
-0.000915284
0.000687514
0.000219675
-0.00103885
0.000672816
0.000227262
-0.00116133
0.000676078
0.000232149
-0.00128157
0.000674653
0.000227828
-0.00140846
0.000661396
0.000246106
-0.00151809
0.000639844
0.000224987
-0.00159226
0.000614807
0.000183509
-0.00162087
0.000584354
0.000130958
-0.00157468
0.000558265
4.2849e-05
-0.00144133
0.000520408
-4.54687e-05
-0.00120991
0.000494957
-0.000152482
-0.000930193
0.000474608
-0.000210139
-0.000634332
0.000501731
-0.000227166
-0.000369386
0.000568725
-0.000218669
-0.000152391
0.00061809
-0.000219738
-2.97948e-05
0.000584408
-0.000142236
0.000424632
-5.75381e-05
9.27908e-05
0.00061041
-0.000168829
0.00028232
0.000888475
-0.000320574
0.000453114
0.00107334
-0.000313548
0.000548299
0.00119427
-0.00022345
0.000588313
0.00129844
-0.000145091
0.000589533
0.00138368
-7.75515e-05
0.000577384
0.00146314
-3.5249e-05
0.000548284
0.00151456
8.17503e-06
0.000507927
0.00154229
4.47428e-05
0.000455001
0.00153113
8.9501e-05
0.000397441
0.00149251
0.000111596
0.00032931
0.0014175
0.000147371
0.000260461
0.00131126
0.000180149
0.000176679
0.00119746
0.000206117
8.51625e-05
0.00107923
0.000215416
-9.89503e-06
0.000970413
0.000214627
-0.000114506
0.000874994
0.000211828
-0.00022396
0.00081028
0.00020525
-0.000333749
0.000746189
0.000195766
-0.000442327
0.000707496
0.000182601
-0.000537667
0.000663153
0.000172291
-0.000619968
0.000639804
0.000171676
-0.000717428
0.000623568
0.000186376
-0.000831787
0.000600113
0.00020176
-0.000952041
0.000577059
0.00021601
-0.00106898
0.000562525
0.000230491
-0.00120413
0.000553215
0.000256593
-0.00134154
0.00054167
0.000257128
-0.00146782
0.000525292
0.000240831
-0.00157199
0.000510351
0.000208628
-0.00162223
0.000494934
0.000139666
-0.00160639
0.00047843
6.39898e-05
-0.0015098
0.000442634
-1.88157e-05
-0.00132402
0.000417507
-0.000108336
-0.00103522
0.000403722
-0.000217906
-0.000705572
0.000421063
-0.000248983
-0.000403238
0.000491497
-0.000225106
-0.000174869
0.000587974
-0.000198253
-3.68258e-05
0.000591632
-0.000145267
0.000447823
-6.00166e-05
9.9565e-05
0.000670162
-0.000159317
0.000311049
0.000994654
-0.000317663
0.000508425
0.00118694
-0.000310968
0.000622024
0.00129452
-0.000213841
0.000669339
0.00137679
-0.000125662
0.000674815
0.00143566
-5.74513e-05
0.000659751
0.00148331
-5.10353e-06
0.000623636
0.00150515
4.55329e-05
0.000571957
0.00150599
8.79767e-05
0.000505796
0.00147578
0.000121518
0.000431307
0.00141514
0.000151867
0.000350856
0.00132546
0.000172484
0.0002717
0.00121248
0.000177935
0.000188661
0.00109099
0.000189513
9.77712e-05
0.000975567
0.000194554
9.29694e-06
0.000871485
0.000187403
-9.64059e-05
0.000793937
0.000186759
-0.000196876
0.000728085
0.000182665
-0.000305445
0.000676794
0.000177965
-0.000398695
0.000634079
0.000166667
-0.000484658
0.000590487
0.00015863
-0.000559195
0.000560606
0.000153736
-0.000638191
0.000535754
0.00016681
-0.000728214
0.000503979
0.000186157
-0.000839881
0.000478546
0.000210181
-0.000962118
0.000447353
0.000237409
-0.00109627
0.000431282
0.000256089
-0.00123945
0.00042446
0.000260386
-0.00138065
0.000415186
0.000251302
-0.0015023
0.000415717
0.000216282
-0.00159431
0.000409459
0.000177485
-0.00161381
0.000384744
0.000113187
-0.00156114
0.000341955
4.8012e-05
-0.00140408
0.000303709
-4.32571e-05
-0.00114322
0.000294287
-0.00015143
-0.000796966
0.00032292
-0.000248111
-0.000455435
0.000408066
-0.000258099
-0.000196806
0.000520821
-0.000191476
-4.40269e-05
0.000586709
-0.000147857
0.000469912
-6.61164e-05
0.000105728
0.000704372
-0.000139938
0.000337712
0.00107109
-0.000308424
0.000557124
0.00127272
-0.000305191
0.000687052
0.00136785
-0.000203267
0.000742095
0.00142699
-0.000105244
0.00074711
0.00146153
-3.08928e-05
0.000727968
0.00148308
1.93739e-05
0.000682384
0.00147612
7.46086e-05
0.000624521
0.00145245
0.000111406
0.000553683
0.00140081
0.000145806
0.000468658
0.00132778
0.000172378
0.000373377
0.0012295
0.000191239
0.000277937
0.00111585
0.000192076
0.00019414
0.0009935
0.000181286
0.000109189
0.000883649
0.000176869
2.73781e-05
0.00078866
0.000164637
-7.16007e-05
0.000722534
0.000170383
-0.000165515
0.000653991
0.000168009
-0.000261524
0.000606398
0.000166405
-0.0003418
0.000558906
0.00015545
-0.000419278
0.000518354
0.000149611
-0.000488598
0.000482804
0.000147122
-0.000552793
0.000450105
0.000149844
-0.00062846
0.000412512
0.000167134
-0.000716522
0.000378208
0.0001884
-0.000831555
0.000345473
0.000216913
-0.000956368
0.00031311
0.000242983
-0.00109575
0.000312985
0.000250858
-0.00124259
0.000318974
0.000243055
-0.00139292
0.000327265
0.000238777
-0.0015095
0.00031297
0.000213074
-0.00158305
0.000271242
0.000187046
-0.00158042
0.000215806
0.000123518
-0.00147215
0.000163238
3.22058e-05
-0.00123613
0.000135492
-7.72252e-05
-0.00089717
0.000171889
-0.000187932
-0.000515247
0.000288532
-0.000262388
-0.000223319
0.000448504
-0.00021961
-5.02216e-05
0.000559583
-0.00014597
0.000490263
-7.05739e-05
0.000105877
0.000721829
-0.000123334
0.000351314
0.00111952
-0.000293868
0.000589966
0.00133228
-0.000298212
0.000736866
0.00142015
-0.000199193
0.000797652
0.00145865
-9.24521e-05
0.000800046
0.00146726
-8.11729e-06
0.000774704
0.00145794
5.04818e-05
0.000728209
0.00143051
9.21123e-05
0.000663182
0.00138784
0.000129632
0.000582583
0.00131979
0.000161617
0.000491585
0.00123456
0.00018422
0.000394123
0.00112952
0.000197444
0.000294402
0.00101667
0.0001989
0.000202644
0.000903678
0.00018158
0.000118921
0.000804467
0.000162906
3.6439e-05
0.00071624
0.000154902
-4.47611e-05
0.000648373
0.000155361
-0.000132005
0.000584304
0.000156932
-0.000210804
0.000535956
0.000149242
-0.000282739
0.000486621
0.000144221
-0.000350857
0.000442843
0.00014363
-0.000409936
0.000402921
0.000138962
-0.000464098
0.000364489
0.000139778
-0.000522086
0.000324615
0.000145885
-0.000594075
0.000287643
0.000162552
-0.000694727
0.000255138
0.000190987
-0.000813749
0.000221066
0.000211066
-0.000938754
0.000212848
0.000225141
-0.00109211
0.000232032
0.0002403
-0.00123848
0.000228389
0.000245242
-0.00138164
0.000203221
0.000252915
-0.00149409
0.000157898
0.000225792
-0.00154399
9.15609e-05
0.000174138
-0.00149328
1.92666e-05
9.32696e-05
-0.00131044
-3.29278e-05
-1.44232e-05
-0.0010008
-1.61813e-05
-0.000121568
-0.00059475
0.000105485
-0.000223004
-0.000245926
0.000349322
-0.000249641
-5.91567e-05
0.000514981
-0.000142167
0.000500925
-6.98172e-05
0.000115054
0.000688002
-8.12265e-05
0.000371474
0.00112011
-0.000257011
0.000621924
0.00135023
-0.000268402
0.00078205
0.00143475
-0.000174725
0.000850123
0.00146008
-6.94994e-05
0.000846108
0.00144568
2.55984e-05
0.00081466
0.00141722
7.2164e-05
0.000761256
0.00136763
0.000116278
0.000696056
0.00130917
0.000143876
0.000619487
0.00123154
0.000164822
0.000527248
0.00114236
0.000184434
0.000420353
0.00103975
0.000196666
0.000309994
0.000931829
0.000195199
0.000208243
0.000823324
0.000182105
0.000125361
0.000725851
0.000161498
4.61504e-05
0.000643961
0.00015149
-2.25478e-05
0.000567572
0.0001495
-9.34006e-05
0.000512705
0.000142452
-0.000160149
0.00046408
0.000138624
-0.000221645
0.000415477
0.000132641
-0.000282771
0.000369896
0.000134073
-0.000334597
0.000327104
0.000127642
-0.000384809
0.000288599
0.000126102
-0.000432939
0.000245117
0.000127628
-0.000491231
0.000212566
0.000133369
-0.000568446
0.000170876
0.000161477
-0.000671412
0.000138138
0.000185893
-0.000785786
0.000122367
0.000204854
-0.000921301
0.000136307
0.000231239
-0.00107271
0.000120667
0.000259128
-0.00123102
9.42063e-05
0.000267326
-0.00137351
4.26864e-05
0.000257703
-0.00146805
-3.30873e-05
0.000219186
-0.00147074
-0.000128157
0.000150119
-0.00134836
-0.000208234
5.29186e-05
-0.00107693
-0.000229981
-5.76262e-05
-0.000690449
-0.000122405
-0.00015859
-0.000284338
0.00016108
-0.00021787
-6.30499e-05
0.000451906
-0.000158214
0.000507054
-6.91779e-05
0.000110448
0.000623262
-4.57083e-05
0.000369814
0.00109884
-0.000238098
0.000633407
0.00134524
-0.0002586
0.000812823
0.00142629
-0.000170957
0.00088722
0.0014351
-4.94185e-05
0.000885326
0.00140229
4.52784e-05
0.000851396
0.00135203
9.91223e-05
0.000794905
0.00129159
0.000132531
0.000714075
0.00123479
0.000155205
0.000618627
0.00115334
0.000173645
0.00051998
0.00105615
0.000184864
0.000422185
0.000942553
0.000194991
0.000330617
0.000834847
0.000188551
0.00025052
0.000730788
0.000172633
0.000176905
0.000643698
0.000155769
9.8592e-05
0.000571607
0.000150667
9.90534e-06
0.000512148
0.000144111
-6.25986e-05
0.000456342
0.000128867
-0.000121739
0.000404572
0.000118648
-0.000171817
0.000351548
0.000114008
-0.000220867
0.000305427
0.00011352
-0.000267288
0.000262369
0.000111156
-0.000310732
0.000222435
0.000109607
-0.000356919
0.000180728
0.000110576
-0.000400334
0.000146034
0.000109947
-0.000471028
0.000101134
0.000140435
-0.000557768
5.98595e-05
0.000165019
-0.000659228
2.55722e-05
0.000198254
-0.000769649
1.7886e-05
0.000228842
-0.000903885
-3.93166e-06
0.000258835
-0.00105522
-3.1737e-05
0.000277276
-0.00120816
-8.00447e-05
0.000275672
-0.00133431
-0.000155578
0.000248648
-0.00139254
-0.000260756
0.000190825
-0.00133676
-0.00036761
0.000103597
-0.00113095
-0.000437728
1.93409e-06
-0.000776954
-0.000369348
-0.00010705
-0.000359422
-8.70351e-05
-0.000169418
-6.6918e-05
0.000331836
-0.000172435
0.000495251
-5.51156e-05
0.000125951
0.000487413
9.8976e-06
0.00037251
0.00103372
-0.000181439
0.000646228
0.00129593
-0.00022441
0.000834742
0.00138256
-0.000144791
0.000913123
0.00138587
-2.91448e-05
0.000903683
0.00134502
6.67129e-05
0.000853296
0.00128105
0.000121364
0.000786228
0.00120311
0.000155545
0.000719735
0.00112226
0.000179021
0.00065603
0.00102837
0.000188671
0.000581703
0.000938852
0.000191621
0.000490467
0.000843878
0.00018991
0.00039008
0.000758409
0.000176826
0.000294757
0.00067266
0.000153451
0.00020477
0.000597909
0.000135776
0.000124141
0.000520656
0.000131581
4.1391e-05
0.000460345
0.000134553
-2.11024e-05
0.000398857
0.000119978
-7.36467e-05
0.000347212
0.000109904
-0.000118665
0.000295305
0.000101262
-0.000163445
0.000249739
0.000100468
-0.000204992
0.000206304
9.76117e-05
-0.000245323
0.000167507
9.52588e-05
-0.000289863
0.000128327
9.694e-05
-0.000328863
8.77196e-05
9.73137e-05
-0.00038669
3.79768e-05
0.000120984
-0.000455783
-1.03084e-05
0.000139261
-0.000542061
-5.40996e-05
0.00016595
-0.00064557
-8.55875e-05
0.000206982
-0.000769464
-0.000123965
0.000243927
-0.000924409
-0.000151993
0.000275201
-0.00108107
-0.000221562
0.00029818
-0.00122249
-0.000311447
0.000297285
-0.00130919
-0.000433954
0.000259907
-0.00130368
-0.000565015
0.000191886
-0.00113406
-0.000717497
0.000110153
-0.000803677
-0.000700846
1.11609e-06
-0.000387587
-0.000388095
-0.000115029
-6.06594e-05
0.000141713
-0.000136805
0.000469237
-3.46462e-05
0.000132677
0.000328845
2.5891e-05
0.000354453
0.000963595
-0.000151647
0.000629987
0.0012302
-0.000209804
0.00082748
0.00131936
-0.000134284
0.000922773
0.00130536
-1.47894e-05
0.000936682
0.00125026
8.08455e-05
0.000912148
0.00116901
0.000136579
0.000862334
0.00109057
0.000162363
0.00079165
0.00102049
0.000172452
0.000699571
0.000942527
0.000177926
0.000600085
0.000860838
0.000177499
0.000497652
0.000773684
0.000172628
0.000399042
0.000692765
0.000164253
0.000309293
0.000615959
0.000146451
0.000234851
0.000546398
0.000125953
0.000166941
0.000478418
0.000110148
9.96356e-05
0.000417985
0.000109666
3.21367e-05
0.000353865
0.000112491
-2.13714e-05
0.000298262
0.000102459
-6.74081e-05
0.000249369
9.19721e-05
-0.000110265
0.000202469
9.01272e-05
-0.000150848
0.000160946
8.59399e-05
-0.000187486
0.000120535
8.36089e-05
-0.000228277
8.36494e-05
8.54686e-05
-0.000267404
3.94185e-05
8.74278e-05
-0.000323598
-6.59801e-06
0.000100768
-0.000384262
-5.77103e-05
0.000108066
-0.000460009
-0.000108926
0.000130573
-0.000538368
-0.000167416
0.000160186
-0.000631259
-0.000234508
0.000203434
-0.000735674
-0.000297292
0.000249715
-0.000870075
-0.000377937
0.000290775
-0.00103489
-0.000458377
0.000311743
-0.00118401
-0.000593563
0.000308733
-0.0012482
-0.000767683
0.000266852
-0.00118537
-0.000958983
0.000178654
-0.000946914
-0.00101056
7.12627e-05
-0.000510317
-0.00079339
-3.13027e-05
-0.000106782
-0.000182159
-7.96638e-05
0.000363972
-1.51749e-06
9.75279e-05
0.000219978
1.13381e-05
0.000330306
0.000868389
-0.000137572
0.000613095
0.00114867
-0.000201264
0.000825981
0.00124816
-0.000141685
0.000930487
0.00123443
-3.35794e-05
0.000948684
0.00117385
5.82154e-05
0.000904295
0.00108501
0.000128387
0.000837718
0.00100416
0.000152987
0.000769158
0.000925488
0.000163567
0.000693666
0.000850296
0.000167722
0.000613237
0.000775132
0.000166135
0.000525011
0.00070155
0.000160362
0.000438411
0.000630042
0.000149322
0.0003543
0.000565728
0.000134342
0.000275107
0.000502374
0.000123217
0.000207533
0.00044372
0.000102273
0.000150428
0.000382112
9.29777e-05
9.05048e-05
0.000323872
8.99171e-05
3.07218e-05
0.000264379
9.3666e-05
-1.64483e-05
0.000208501
8.80385e-05
-6.18256e-05
0.000166429
8.14168e-05
-0.000101938
0.000120813
8.02451e-05
-0.00013911
8.1011e-05
7.66951e-05
-0.000176259
4.45682e-05
7.623e-05
-0.000216278
-4.0327e-06
8.34698e-05
-0.000263342
-4.62102e-05
8.66764e-05
-0.000318428
-9.59224e-05
9.32977e-05
-0.000380829
-0.000150628
0.000104104
-0.000457664
-0.000214161
0.00012358
-0.000560433
-0.000285428
0.000153689
-0.000676756
-0.000376406
0.000195437
-0.000797666
-0.000501819
0.000244791
-0.000913613
-0.000638696
0.000296266
-0.00102137
-0.000814996
0.000329187
-0.0011002
-0.00101639
0.000327541
-0.00108981
-0.00123903
0.000269655
-0.00091466
-0.00134583
0.000160122
-0.000561099
-0.00119724
5.02915e-05
-0.000132531
-0.00058247
-2.82578e-05
0.000173035
5.84055e-05
7.01987e-05
0.000148048
1.73106e-06
0.000307022
0.000766919
-0.000135354
0.000574297
0.00106933
-0.000187933
0.000799445
0.00117713
-0.00015412
0.000918068
0.00116449
-4.86782e-05
0.000952917
0.00109757
4.14278e-05
0.000919974
0.00100388
0.000114076
0.000864883