/*--------------------------------*- C++ -*----------------------------------*\
| =========                 |                                                 |
| \\      /  F ield         | OpenFOAM: The Open Source CFD Toolbox           |
|  \\    /   O peration     | Version:  v1806                                 |
|   \\  /    A nd           | Web:      www.OpenFOAM.com                      |
|    \\/     M anipulation  |                                                 |
\*---------------------------------------------------------------------------*/
FoamFile
{
    version     2.0;
    format      ascii;
    class       volVectorField;
    location    "0.05";
    object      U_0;
}
// * * * * * * * * * * * * * * * * * * * * * * * * * * * * * * * * * * * * * //

dimensions      [0 1 -1 0 0 0 0];


internalField   nonuniform List<vector> 
64000
(
(-0.0071978 -0.00832065 -0.0042824)
(0.0146456 -0.00901903 -0.00198213)
(0.0239739 -0.00442082 0.00176614)
(0.0249902 -0.00391654 0.00183245)
(0.0229364 -0.00304287 0.00275056)
(0.0224876 -0.00305051 0.00359061)
(0.0211854 -0.00358947 0.0036288)
(0.0177083 -0.00406795 0.00369529)
(0.0156819 -0.00521828 0.0049112)
(0.00914484 -0.00433174 0.00437019)
(0.00236176 -0.00626005 0.00613772)
(-0.0127818 -0.00898028 0.00671844)
(-0.0335359 -0.0133041 0.00679394)
(-0.0584443 -0.0178411 0.00436966)
(-0.0919892 -0.017563 0.0053392)
(-0.126305 -0.012512 0.00339107)
(-0.163136 0.00225741 0.00269559)
(-0.202557 -0.00345691 0.000159665)
(-0.217243 -0.0102976 0.00586595)
(-0.264953 -0.0289182 -0.015356)
(-0.237062 -0.0279048 -0.0301442)
(-0.115016 -0.0265789 -0.0397814)
(-0.0946326 -0.0142492 -0.0297692)
(-0.093836 -0.00572521 -0.0371899)
(-0.0973286 0.00104341 -0.0484579)
(-0.0978124 0.0102098 -0.0567012)
(-0.0807622 0.0197065 -0.061999)
(-0.0517416 0.0317177 -0.0564704)
(-0.0192073 0.0379914 -0.051159)
(0.0232989 0.0542076 -0.0314044)
(0.0733893 0.0431462 -0.0313245)
(0.104813 0.0359868 -0.0218752)
(0.119706 0.0251125 -0.010314)
(0.115015 0.010954 -0.00329441)
(0.0998227 0.00329759 0.0026589)
(0.0787684 -0.00511438 0.00506295)
(0.0561633 -0.00781211 0.00736896)
(0.0338302 -0.00659295 0.00817767)
(0.0176127 -0.00484449 0.00831302)
(0.00294435 -0.00331608 0.00638204)
(-0.00527663 -0.00339087 -0.00161045)
(0.0118113 -0.0173664 -0.00130014)
(0.0310448 -0.0144818 0.000219292)
(0.0380251 -0.00983763 -0.000694895)
(0.0395258 -0.00483296 0.000366693)
(0.0389053 -0.00165833 -0.000754644)
(0.0363494 0.00276312 -0.00246693)
(0.0286764 0.00492882 -0.00219316)
(0.0216206 0.0104358 -0.00706912)
(0.00403883 0.0169124 -0.00418307)
(-0.0210628 0.0242371 -0.00798256)
(-0.0590287 0.0321885 0.00017071)
(-0.107673 0.0441938 -0.00402169)
(-0.159437 0.0667336 -0.00667972)
(-0.219565 0.0782239 -0.0103267)
(-0.279182 0.0866962 -0.0187289)
(-0.369913 0.0929076 -0.0425055)
(-0.470145 0.0960349 -0.0572752)
(-0.533229 0.101245 -0.0750974)
(-0.60472 0.0984529 -0.0994217)
(-0.570075 0.121241 -0.108036)
(-0.426189 0.138171 -0.128029)
(-0.386729 0.179752 -0.142198)
(-0.37344 0.209693 -0.14889)
(-0.349463 0.234575 -0.159825)
(-0.31709 0.257799 -0.165425)
(-0.260136 0.277286 -0.16686)
(-0.194118 0.294117 -0.155314)
(-0.114667 0.30001 -0.134645)
(-0.0480188 0.30898 -0.110048)
(0.0197962 0.289005 -0.0744006)
(0.0861162 0.25906 -0.047722)
(0.119506 0.206321 -0.0385973)
(0.132035 0.158605 -0.0271901)
(0.125583 0.107724 -0.0130822)
(0.1048 0.0674597 -0.00535578)
(0.0835438 0.0394244 -0.000887174)
(0.0570515 0.0247404 0.000383516)
(0.0336744 0.0150189 0.00209211)
(0.00893613 0.00630559 0.00352205)
(-0.000182164 -0.0116955 0.0018976)
(0.0165892 -0.0246461 -0.000553213)
(0.0384748 -0.0204891 -0.000849765)
(0.0475858 -0.00893829 -0.0010171)
(0.0458373 0.00448859 -0.00322515)
(0.042744 0.0156672 -0.00514638)
(0.0342392 0.0316463 -0.00676974)
(0.0198403 0.0454747 -0.00888812)
(0.00382122 0.0692349 -0.00176367)
(-0.0266418 0.0907056 -0.00460022)
(-0.0656511 0.11946 -0.00831084)
(-0.118321 0.153357 -0.0130389)
(-0.173681 0.185174 -0.016843)
(-0.255147 0.209269 -0.031392)
(-0.359895 0.227124 -0.0336818)
(-0.455133 0.239947 -0.0425897)
(-0.547799 0.24609 -0.057968)
(-0.630388 0.268595 -0.0744874)
(-0.686715 0.296543 -0.0923473)
(-0.742711 0.328746 -0.114405)
(-0.694569 0.366825 -0.115392)
(-0.525914 0.394334 -0.123113)
(-0.461774 0.448597 -0.129354)
(-0.438324 0.485057 -0.123815)
(-0.40557 0.515678 -0.125375)
(-0.369323 0.539229 -0.122842)
(-0.312175 0.55194 -0.118549)
(-0.250732 0.555999 -0.10483)
(-0.180252 0.545986 -0.0836566)
(-0.117625 0.526659 -0.060264)
(-0.0609119 0.500446 -0.0396237)
(-0.0209488 0.451941 -0.0276675)
(0.0144075 0.379959 -0.0134679)
(0.0393701 0.306741 -0.00775635)
(0.0466374 0.228889 -0.0107519)
(0.0513657 0.1628 -0.0104905)
(0.0498509 0.113273 -0.00684318)
(0.0399105 0.0754063 -0.00444716)
(0.0278666 0.0492659 -0.000608238)
(0.00873751 0.0217755 0.00262308)
(0.000424168 -0.0177231 0.00206838)
(0.0189188 -0.0287006 -0.00214401)
(0.0436847 -0.0164253 -0.0016939)
(0.0531249 0.00170725 -0.00586459)
(0.0476639 0.0274753 -0.0059916)
(0.0401904 0.0547971 -0.00754781)
(0.0260426 0.0899296 -0.00776598)
(0.00605299 0.124347 -0.00448487)
(-0.0196095 0.170139 -0.00972869)
(-0.0634142 0.210693 -0.0119734)
(-0.110443 0.250157 -0.0161672)
(-0.180407 0.278379 -0.0229338)
(-0.271836 0.304994 -0.0257724)
(-0.362737 0.319964 -0.0281195)
(-0.449164 0.343849 -0.0297033)
(-0.527678 0.371495 -0.0376294)
(-0.605607 0.401696 -0.0500813)
(-0.674954 0.433007 -0.0579595)
(-0.715827 0.47011 -0.0666538)
(-0.755878 0.511452 -0.0749921)
(-0.695324 0.54553 -0.0585451)
(-0.507 0.564611 -0.0474172)
(-0.428614 0.604508 -0.0454877)
(-0.406332 0.619423 -0.0302496)
(-0.376274 0.629871 -0.025926)
(-0.349587 0.632837 -0.0197325)
(-0.305088 0.623617 -0.016415)
(-0.260584 0.605767 -0.00963756)
(-0.208237 0.580612 0.00159445)
(-0.163674 0.54827 0.008915)
(-0.129935 0.510377 0.0145289)
(-0.106715 0.466822 0.0135322)
(-0.0872197 0.417631 0.00859472)
(-0.0636759 0.352255 0.000646035)
(-0.0426861 0.275795 -0.00369162)
(-0.0184156 0.202944 -0.00929401)
(0.00115059 0.145892 -0.00993061)
(0.0104058 0.108739 -0.0070725)
(0.017893 0.0745813 -0.0028671)
(0.00722779 0.032619 0.00219824)
(0.00143871 -0.0194034 0.000912425)
(0.0248008 -0.021218 -0.00484261)
(0.0524959 -0.00221683 -0.0042001)
(0.0623964 0.0307124 -0.00598425)
(0.0577707 0.0735983 -0.00566495)
(0.0493477 0.122386 -0.0141187)
(0.0289217 0.183472 -0.0110727)
(0.00216389 0.23648 -0.00446193)
(-0.0325083 0.284438 -0.00695151)
(-0.0927361 0.319312 -0.00908504)
(-0.163451 0.348463 -0.0122229)
(-0.239502 0.367789 -0.014479)
(-0.308791 0.394777 -0.0167363)
(-0.38312 0.426047 -0.0205656)
(-0.45855 0.460411 -0.0180199)
(-0.525055 0.492758 -0.0204046)
(-0.587347 0.525859 -0.0214626)
(-0.63609 0.560953 -0.0175312)
(-0.658189 0.599916 -0.0156811)
(-0.686926 0.64153 -0.0237686)
(-0.626844 0.66983 -0.00581645)
(-0.433133 0.679442 0.0129437)
(-0.351406 0.690265 0.0207985)
(-0.337527 0.675801 0.0363765)
(-0.319559 0.655068 0.0383559)
(-0.311554 0.631985 0.0453525)
(-0.288695 0.59851 0.0461653)
(-0.262057 0.563138 0.0498323)
(-0.230748 0.522776 0.0435902)
(-0.206988 0.483564 0.0364696)
(-0.185383 0.440211 0.0270063)
(-0.173026 0.404508 0.019546)
(-0.165609 0.370932 0.0119281)
(-0.162369 0.338941 0.000531836)
(-0.148217 0.279528 -0.0111965)
(-0.105754 0.205732 -0.0122206)
(-0.0523148 0.158617 -0.0123942)
(-0.0166805 0.127287 -0.0106803)
(0.00310235 0.0924152 -0.00498274)
(0.00432635 0.0406364 0.00221596)
(0.00520941 -0.018127 0.000771365)
(0.0316025 -0.00932239 -0.00398974)
(0.065594 0.0168609 -0.00437404)
(0.0832683 0.0646658 -0.00794902)
(0.0787862 0.118021 -0.0109875)
(0.0727718 0.184688 -0.0189382)
(0.0449822 0.251153 -0.0130073)
(-0.005666 0.295829 -0.000144838)
(-0.0628665 0.335319 -0.00449574)
(-0.131153 0.369604 -0.00601483)
(-0.190179 0.404355 -0.00821298)
(-0.250035 0.441794 -0.00842367)
(-0.309501 0.478904 -0.00657642)
(-0.366533 0.509264 -0.00322967)
(-0.421841 0.541885 0.00359002)
(-0.468929 0.572488 0.00890608)
(-0.5114 0.605369 0.0067512)
(-0.546226 0.638914 0.0105429)
(-0.559783 0.681406 0.0108357)
(-0.580012 0.712983 0.00857391)
(-0.518226 0.738297 0.0270933)
(-0.338976 0.69339 0.0468032)
(-0.274537 0.670993 0.0535731)
(-0.280451 0.62726 0.0706987)
(-0.279805 0.581895 0.0749662)
(-0.289018 0.54241 0.0766998)
(-0.283533 0.498172 0.0737848)
(-0.277071 0.45778 0.0691777)
(-0.261253 0.411069 0.0663934)
(-0.251352 0.373135 0.0476645)
(-0.242651 0.331688 0.0371238)
(-0.231576 0.300059 0.0239834)
(-0.219965 0.275304 0.0112691)
(-0.222194 0.257833 0.00222437)
(-0.231298 0.235532 -0.0125038)
(-0.175285 0.190722 -0.0125212)
(-0.0909614 0.159037 -0.0141892)
(-0.0395899 0.13263 -0.0113931)
(-0.00379901 0.100224 -0.00623671)
(0.00340607 0.0432827 0.00248422)
(0.00828973 -0.0156371 0.000181714)
(0.0397912 0.00261648 -0.00888437)
(0.0826262 0.0399017 -0.00912495)
(0.104524 0.0931933 -0.00873823)
(0.104481 0.147511 -0.0100867)
(0.0949417 0.222667 -0.0125297)
(0.0415227 0.261716 -0.0013092)
(-0.0181792 0.306156 0.00376419)
(-0.0617173 0.353004 -0.000381491)
(-0.116656 0.403413 -0.00177141)
(-0.166551 0.452414 -0.0022968)
(-0.215816 0.496135 -0.000528905)
(-0.262635 0.53428 0.00186344)
(-0.308835 0.569834 0.00838061)
(-0.350382 0.602264 0.0135447)
(-0.384292 0.631012 0.0201919)
(-0.413694 0.654977 0.0255836)
(-0.427431 0.676485 0.0295455)
(-0.434097 0.703288 0.0241004)
(-0.453502 0.718869 0.0178875)
(-0.44865 0.73503 0.0260111)
(-0.308618 0.645835 0.0484084)
(-0.228358 0.577434 0.0514477)
(-0.248375 0.527584 0.0658824)
(-0.258233 0.478882 0.0683474)
(-0.281728 0.44335 0.0690347)
(-0.292911 0.405865 0.0652017)
(-0.302139 0.371675 0.05987)
(-0.299826 0.334835 0.048464)
(-0.300771 0.300762 0.035385)
(-0.298658 0.268573 0.0223982)
(-0.289027 0.241342 0.0117753)
(-0.279339 0.22238 0.000911691)
(-0.275458 0.20793 -0.0047031)
(-0.278429 0.211859 -0.0146915)
(-0.224912 0.193566 -0.0195911)
(-0.127113 0.16447 -0.0208324)
(-0.0561224 0.144053 -0.0164231)
(-0.00981609 0.108883 -0.00948946)
(0.00354687 0.0474299 0.000988339)
(0.00905099 -0.00624904 -5.44676e-05)
(0.0470417 0.0231888 -0.0128967)
(0.0994899 0.0716385 -0.0137306)
(0.123742 0.125037 -0.0098528)
(0.130712 0.184083 -0.0116451)
(0.102138 0.245997 -0.00896852)
(0.0417208 0.27727 0.0017623)
(0.00371263 0.335375 0.00597314)
(-0.0349118 0.382537 0.00262225)
(-0.0818115 0.436411 0.00390153)
(-0.122851 0.479873 0.00554597)
(-0.164365 0.517086 0.0108921)
(-0.199261 0.549415 0.0175195)
(-0.22899 0.577776 0.0229855)
(-0.25964 0.601711 0.0277485)
(-0.286102 0.618967 0.0321595)
(-0.31044 0.630476 0.0343395)
(-0.324611 0.637617 0.035261)
(-0.336164 0.63374 0.028502)
(-0.357544 0.624228 0.0181415)
(-0.394371 0.618007 0.0140687)
(-0.316047 0.564994 0.0316302)
(-0.228045 0.457616 0.0326941)
(-0.236985 0.424505 0.0431616)
(-0.25663 0.383349 0.0481188)
(-0.287046 0.359213 0.0502945)
(-0.309845 0.331643 0.050738)
(-0.329182 0.304413 0.0460054)
(-0.337278 0.27491 0.0382429)
(-0.34525 0.243983 0.0180481)
(-0.347912 0.212446 0.0118481)
(-0.338839 0.187719 0.00259539)
(-0.325872 0.172958 -0.00450245)
(-0.310131 0.167772 -0.00872844)
(-0.316359 0.184961 -0.0176058)
(-0.272954 0.195548 -0.0203686)
(-0.160834 0.170549 -0.022045)
(-0.0737811 0.152765 -0.0178104)
(-0.0146515 0.116661 -0.00989414)
(0.00476691 0.0505253 0.00143966)
(0.00714036 0.00471269 -0.00478075)
(0.0539617 0.0536104 -0.0194269)
(0.117658 0.108929 -0.0186875)
(0.147817 0.162935 -0.0130614)
(0.152168 0.221649 -0.0143746)
(0.11521 0.262139 -0.0071887)
(0.0640769 0.310991 -0.000331499)
(0.0314675 0.366123 0.00641107)
(0.00337335 0.405591 0.0127399)
(-0.0306883 0.446904 0.0123077)
(-0.0703295 0.484097 0.0165592)
(-0.100189 0.511512 0.02201)
(-0.125136 0.533625 0.0285101)
(-0.14997 0.545624 0.032874)
(-0.174978 0.549936 0.0345266)
(-0.198807 0.548233 0.0355741)
(-0.223111 0.540708 0.0347253)
(-0.246997 0.533463 0.0320087)
(-0.274727 0.521718 0.0246992)
(-0.304291 0.503269 0.012542)
(-0.352063 0.485661 0.00263187)
(-0.336931 0.471703 0.008784)
(-0.258007 0.374901 0.0166989)
(-0.23667 0.345131 0.0199458)
(-0.26344 0.319904 0.0273639)
(-0.296067 0.301761 0.032331)
(-0.328775 0.283236 0.0362538)
(-0.355592 0.257213 0.0358137)
(-0.372775 0.231861 0.0230632)
(-0.389328 0.1972 0.0106965)
(-0.393409 0.172235 0.000803196)
(-0.381459 0.149339 -0.00426874)
(-0.366299 0.135002 -0.0106942)
(-0.34078 0.137867 -0.0168304)
(-0.327242 0.147424 -0.0202631)
(-0.298897 0.187785 -0.0264213)
(-0.19712 0.17255 -0.026069)
(-0.0899765 0.161667 -0.0241066)
(-0.0199951 0.126262 -0.0130285)
(0.00532615 0.0560343 -0.000450973)
(0.00824582 0.021134 -0.00837456)
(0.06133 0.0938815 -0.0272173)
(0.13459 0.153733 -0.0267924)
(0.170327 0.206013 -0.0164674)
(0.167466 0.25127 -0.0140628)
(0.135281 0.28665 -0.00988917)
(0.100612 0.338992 -0.00232382)
(0.0700204 0.385006 0.0127243)
(0.0386101 0.422098 0.0179635)
(0.0149564 0.448876 0.0271916)
(-0.0109976 0.469531 0.0255227)
(-0.0397392 0.483365 0.0340051)
(-0.0626639 0.489439 0.0388216)
(-0.0846832 0.481892 0.0420333)
(-0.109459 0.467081 0.0397083)
(-0.135643 0.446605 0.0362427)
(-0.162758 0.421724 0.0314513)
(-0.188193 0.404243 0.025812)
(-0.225089 0.390802 0.0163263)
(-0.270745 0.379595 0.00658955)
(-0.321637 0.373369 -0.00317599)
(-0.344935 0.380459 -0.00417388)
(-0.291242 0.338237 0.00619739)
(-0.24518 0.298787 0.00540413)
(-0.266158 0.279465 0.0135905)
(-0.300556 0.265221 0.0216538)
(-0.338843 0.243907 0.0286331)
(-0.372643 0.223113 0.0289918)
(-0.397204 0.190881 0.0224047)
(-0.413165 0.162627 0.00904575)
(-0.41789 0.133476 0.011305)
(-0.415171 0.11229 0.0178139)
(-0.395687 0.0926511 0.0158959)
(-0.373536 0.0940495 0.00903087)
(-0.350058 0.108084 -0.0113598)
(-0.320005 0.15334 -0.0232862)
(-0.225755 0.171168 -0.0238732)
(-0.106252 0.160912 -0.0217062)
(-0.0253054 0.134373 -0.0123687)
(0.00654754 0.0596103 0.000508567)
(0.00865979 0.0399657 -0.0111521)
(0.0686196 0.134489 -0.0332891)
(0.150363 0.198938 -0.0317205)
(0.186005 0.241723 -0.0171813)
(0.184167 0.277274 -0.0131291)
(0.165206 0.314419 -0.0111409)
(0.1389 0.35754 -0.00132582)
(0.109479 0.392937 0.00678339)
(0.0847556 0.422051 0.0145483)
(0.0576361 0.442006 0.0293527)
(0.0302866 0.448234 0.0378894)
(0.0132673 0.448292 0.0466094)
(-0.00858686 0.435219 0.0474595)
(-0.0362085 0.413118 0.0482002)
(-0.0638601 0.386964 0.0417734)
(-0.0958504 0.357237 0.0332041)
(-0.125192 0.32577 0.025427)
(-0.15354 0.30736 0.0161257)
(-0.194362 0.287973 0.007567)
(-0.237041 0.283437 0.00354308)
(-0.284539 0.294337 -0.00273226)
(-0.320425 0.316975 -0.0054969)
(-0.298315 0.322163 0.000401279)
(-0.258239 0.285721 -0.000152076)
(-0.262498 0.254054 0.00526648)
(-0.298439 0.235514 0.0144516)
(-0.339166 0.213247 0.0211314)
(-0.378289 0.188814 0.0241105)
(-0.406918 0.159672 0.0152016)
(-0.428754 0.127734 0.0295669)
(-0.442051 0.0926748 0.0308622)
(-0.443841 0.0635166 0.0196036)
(-0.431864 0.0506272 0.0140027)
(-0.398797 0.046271 0.00847746)
(-0.359541 0.0626788 0.000956629)
(-0.326016 0.102702 -0.0195089)
(-0.24766 0.15027 -0.0280514)
(-0.125265 0.157467 -0.0231347)
(-0.0280917 0.138042 -0.0150288)
(0.00485576 0.0635553 -0.000736655)
(0.00913801 0.0622328 -0.0119169)
(0.0736782 0.17863 -0.0372596)
(0.158313 0.243454 -0.0349989)
(0.198108 0.276916 -0.0184542)
(0.206308 0.307986 -0.0105944)
(0.195107 0.339168 -0.005575)
(0.174571 0.37052 -0.00480687)
(0.148502 0.394245 0.00971123)
(0.122751 0.412732 0.0132454)
(0.0996019 0.421185 0.0261079)
(0.0775214 0.423328 0.0356171)
(0.0508359 0.412286 0.0522043)
(0.0244779 0.386675 0.0541972)
(0.0019835 0.353223 0.0539551)
(-0.028227 0.321139 0.0408211)
(-0.0663348 0.290235 0.0280081)
(-0.0971396 0.261601 0.0176188)
(-0.128996 0.245488 0.00555613)
(-0.170321 0.227094 -0.000342381)
(-0.202024 0.229097 -0.000904355)
(-0.236507 0.247033 -0.000413707)
(-0.27093 0.283527 -0.00149557)
(-0.27695 0.302551 0.000537045)
(-0.263754 0.279393 -0.000990562)
(-0.263131 0.235427 0.00049861)
(-0.284726 0.204663 0.00780262)
(-0.326065 0.178717 0.0140768)
(-0.365668 0.152966 0.0132159)
(-0.400247 0.124015 0.0330232)
(-0.431498 0.0879292 0.0424223)
(-0.45161 0.053476 0.0414585)
(-0.452637 0.027125 0.0523876)
(-0.444545 0.00285553 0.0414853)
(-0.430496 -0.00169912 0.033045)
(-0.394273 0.0091591 0.0248008)
(-0.344559 0.0532131 0.00281998)
(-0.257737 0.107072 -0.0243811)
(-0.138188 0.146425 -0.0245133)
(-0.0338908 0.135656 -0.0140694)
(0.0062272 0.0671407 -0.000910282)
(0.00837271 0.0761916 -0.0125829)
(0.0737529 0.212548 -0.0408498)
(0.161062 0.280067 -0.0394599)
(0.208695 0.309661 -0.0208192)
(0.226924 0.332359 -0.00740157)
(0.222851 0.353283 0.000201014)
(0.204449 0.375884 0.00448735)
(0.180064 0.388519 0.00636179)
(0.160077 0.39877 0.0149245)
(0.13813 0.400732 0.0261204)
(0.112622 0.392394 0.0343634)
(0.0867967 0.374681 0.0415554)
(0.0556103 0.346799 0.0524561)
(0.0256069 0.312218 0.052416)
(-0.0029883 0.270741 0.0394507)
(-0.0422537 0.243963 0.02141)
(-0.0742562 0.219764 0.0107168)
(-0.10872 0.205944 -0.00247185)
(-0.14491 0.192172 -0.00489458)
(-0.159756 0.20244 -0.00230427)
(-0.174702 0.219713 0.0023576)
(-0.207422 0.245478 0.00232055)
(-0.239484 0.267069 0.00398046)
(-0.254557 0.25416 0.00165884)
(-0.259577 0.214672 0.000801313)
(-0.271118 0.166727 0.00413983)
(-0.301267 0.137058 0.0090085)
(-0.340801 0.111644 0.0206393)
(-0.381392 0.0788916 0.0348707)
(-0.417907 0.0475259 0.0420575)
(-0.438967 0.0143559 0.0636149)
(-0.462894 -0.0244202 0.0467627)
(-0.470841 -0.0669732 0.0359869)
(-0.451496 -0.0887447 0.017302)
(-0.411623 -0.0761591 0.00322866)
(-0.365098 -0.0266593 0.0118795)
(-0.279263 0.0570249 -0.00321455)
(-0.150707 0.114357 -0.0311493)
(-0.0388979 0.128035 -0.014423)
(0.00692884 0.0667187 -0.00262215)
(0.00736153 0.090381 -0.0114101)
(0.073325 0.244705 -0.0432698)
(0.163046 0.316697 -0.0443203)
(0.216574 0.342627 -0.0243703)
(0.243457 0.356115 -0.00554472)
(0.24731 0.364127 0.00627181)
(0.232278 0.374528 0.0112276)
(0.210104 0.382389 0.0154455)
(0.19227 0.387158 0.01734)
(0.170461 0.381113 0.0215045)
(0.147956 0.366281 0.0240154)
(0.116931 0.342044 0.0356909)
(0.0822706 0.310064 0.0363432)
(0.0456109 0.277017 0.0409635)
(0.0150904 0.242944 0.0330815)
(-0.018385 0.210527 0.0137451)
(-0.0514739 0.197355 0.00419925)
(-0.0849946 0.178708 -0.0079471)
(-0.108963 0.181191 -0.00527325)
(-0.110288 0.191107 -0.00207836)
(-0.125458 0.19665 0.00428279)
(-0.149641 0.200481 0.0106772)
(-0.186714 0.212307 0.0108849)
(-0.22589 0.213922 0.00651883)
(-0.25197 0.188847 0.00252557)
(-0.255341 0.141299 0.00181294)
(-0.266876 0.101759 0.00465743)
(-0.304031 0.072808 0.0212094)
(-0.343945 0.0397013 0.0318294)
(-0.38031 0.00924737 0.0541066)
(-0.425784 -0.0345684 0.0419064)
(-0.466769 -0.0899186 0.036387)
(-0.484229 -0.134407 0.0243641)
(-0.473295 -0.167475 0.0138172)
(-0.432358 -0.171057 -0.00278589)
(-0.367796 -0.128771 -0.00712872)
(-0.285582 -0.026367 0.000905295)
(-0.170035 0.0742956 -0.0168453)
(-0.0433764 0.116539 -0.0188449)
(0.00671253 0.0692655 -0.00186874)
(0.00449404 0.0871876 -0.0122439)
(0.0683391 0.258762 -0.0445311)
(0.160055 0.335967 -0.0464648)
(0.220391 0.360497 -0.0260215)
(0.253805 0.36664 -0.00554041)
(0.262117 0.364764 0.00863477)
(0.255664 0.367116 0.0163009)
(0.239273 0.36973 0.0191403)
(0.221325 0.367955 0.021409)
(0.198161 0.357969 0.0225726)
(0.171909 0.341745 0.0226427)
(0.141285 0.315239 0.0197458)
(0.105966 0.284393 0.0182286)
(0.0708347 0.249854 0.0187639)
(0.0329482 0.222647 0.0200132)
(0.0019581 0.19182 0.00687279)
(-0.0273789 0.18155 -0.00427656)
(-0.0531043 0.172333 -0.00791965)
(-0.0619674 0.183751 -0.00489346)
(-0.0696699 0.186391 -0.000351909)
(-0.0845468 0.179165 0.00885634)
(-0.104898 0.172518 0.0156919)
(-0.13194 0.165523 0.0197942)
(-0.176641 0.166311 0.0124658)
(-0.221879 0.157708 0.00608776)
(-0.239021 0.128008 0.00663092)
(-0.241181 0.0733754 0.0117669)
(-0.265815 0.0403213 0.0230365)
(-0.300917 0.00672303 0.0402726)
(-0.347744 -0.0349507 0.035397)
(-0.402047 -0.0902617 0.0351007)
(-0.446689 -0.144753 0.0267281)
(-0.475391 -0.199965 0.016958)
(-0.478592 -0.242194 0.00317971)
(-0.445336 -0.262107 -0.0113437)
(-0.379847 -0.229364 -0.0185021)
(-0.286279 -0.141563 -0.0198189)
(-0.171875 0.00635763 3.67764e-05)
(-0.0517252 0.0878154 -0.0273942)
(0.00649247 0.0659445 -0.00399767)
(0.00503144 0.0910488 -0.00539926)
(0.0672178 0.274065 -0.0404251)
(0.15809 0.355544 -0.0431066)
(0.223143 0.376853 -0.0235489)
(0.262801 0.374972 -0.000627729)
(0.280916 0.367073 0.0113202)
(0.280853 0.364599 0.0165385)
(0.264808 0.360045 0.0184012)
(0.24767 0.354545 0.0183252)
(0.22707 0.339934 0.0169689)
(0.202665 0.31869 0.0136497)
(0.167201 0.289112 0.00999875)
(0.127484 0.255432 0.00639948)
(0.0898956 0.226975 0.00182623)
(0.0538413 0.209073 0.00523107)
(0.0266249 0.203053 -0.00286259)
(0.00719351 0.198149 -0.00604462)
(-0.0075364 0.204403 -0.00403308)
(-0.0177114 0.206836 0.000461361)
(-0.0325759 0.193526 0.00505767)
(-0.0515741 0.178213 0.0124092)
(-0.0707642 0.159587 0.016224)
(-0.0949001 0.142302 0.0189315)
(-0.130362 0.126798 0.017864)
(-0.179593 0.124535 0.00853505)
(-0.220212 0.104651 0.00816464)
(-0.224915 0.0655577 0.0095583)
(-0.229468 0.0128312 0.0160435)
(-0.265922 -0.0247747 0.0208453)
(-0.314525 -0.076515 0.0254642)
(-0.367503 -0.127568 0.0242546)
(-0.418101 -0.185962 0.0214521)
(-0.453964 -0.245842 0.0137694)
(-0.468785 -0.300817 0.00159222)
(-0.44527 -0.333573 -0.0137163)
(-0.386739 -0.322153 -0.0294961)
(-0.285736 -0.240116 -0.0330525)
(-0.173021 -0.0865179 -0.021544)
(-0.0544364 0.0493965 -0.0185144)
(0.00850679 0.060724 -0.00952022)
(-0.00197627 0.0912404 -0.0142238)
(0.0540339 0.279954 -0.0453542)
(0.146564 0.36795 -0.0493195)
(0.218123 0.389875 -0.0290627)
(0.268436 0.386338 -0.00400878)
(0.296741 0.372316 0.00664223)
(0.303425 0.35871 0.0123692)
(0.291443 0.344777 0.0122092)
(0.27236 0.329977 0.00963091)
(0.2456 0.313961 0.00654373)
(0.216971 0.300967 0.00457947)
(0.182657 0.287688 0.00240915)
(0.15026 0.275342 0.00115511)
(0.125629 0.263439 0.00121388)
(0.101289 0.257004 0.00299105)
(0.0750893 0.253404 -0.00956732)
(0.052902 0.241469 -0.00674735)
(0.0341855 0.233071 -0.00598933)
(0.00858104 0.216653 -0.00279339)
(-0.0130483 0.192708 0.00462282)
(-0.0295554 0.167543 0.010033)
(-0.0489585 0.143274 0.0136336)
(-0.0700772 0.120771 0.0156253)
(-0.0959967 0.0997319 0.018732)
(-0.140732 0.0889079 0.0104432)
(-0.186741 0.0758102 0.00294797)
(-0.211537 0.0538243 0.00201029)
(-0.221322 0.00813388 0.00286161)
(-0.240594 -0.0429971 0.00624148)
(-0.282907 -0.0906018 0.0117218)
(-0.329819 -0.149692 0.0150116)
(-0.376864 -0.216178 0.0132293)
(-0.415426 -0.288035 0.00730425)
(-0.438339 -0.360559 -0.00363235)
(-0.42874 -0.413352 -0.0193473)
(-0.379258 -0.423768 -0.0360636)
(-0.287735 -0.357255 -0.0554812)
(-0.17618 -0.200265 -0.0395503)
(-0.0537665 -0.00236724 -0.0100144)
(0.00778282 0.0553507 -0.0107686)
(-0.00690553 0.107208 -0.013483)
(0.0437159 0.308298 -0.0373357)
(0.136695 0.403545 -0.0447103)
(0.214607 0.424859 -0.0265081)
(0.271984 0.41714 -0.00980589)
(0.305187 0.393974 0.00178815)
(0.315836 0.372514 0.00736172)
(0.303533 0.363001 0.00919754)
(0.291663 0.375515 0.00972186)
(0.282767 0.384846 0.00662749)
(0.270355 0.387381 0.0028663)
(0.241439 0.376776 -0.00199148)
(0.203749 0.361548 -0.00336235)
(0.167486 0.33558 -0.00471945)
(0.133066 0.307749 -0.000541597)
(0.0947037 0.280009 -0.00884416)
(0.0672661 0.257035 -0.00939003)
(0.0483515 0.22434 -0.00740164)
(0.0246903 0.198095 -0.00375473)
(0.00309835 0.174168 0.00203806)
(-0.0149481 0.146084 0.00867141)
(-0.0304077 0.120817 0.0118329)
(-0.0504216 0.0981607 0.0127067)
(-0.0721814 0.075951 0.0164061)
(-0.110081 0.0597523 0.00655309)
(-0.155243 0.0457937 -0.00093582)
(-0.182595 0.0308528 0.00262317)
(-0.203076 0.00490027 0.000337654)
(-0.224468 -0.0377627 -0.00330922)
(-0.260843 -0.0934643 -0.00554278)
(-0.31019 -0.14907 -0.000592891)
(-0.3569 -0.21146 0.00347739)
(-0.395367 -0.284206 0.00385872)
(-0.417851 -0.361781 -0.00267269)
(-0.408194 -0.429048 -0.0152576)
(-0.363835 -0.463699 -0.0355134)
(-0.272077 -0.434303 -0.0586735)
(-0.157107 -0.296501 -0.0614662)
(-0.0392488 -0.0898602 -0.026925)
(0.010704 0.0323195 -0.00865604)
(-0.0128632 0.231817 -0.01922)
(0.0299549 0.454599 -0.0362465)
(0.117449 0.55668 -0.0443068)
(0.195942 0.585227 -0.0260145)
(0.261236 0.575411 -0.0129393)
(0.305412 0.548859 0.00152888)
(0.338719 0.515462 0.00838465)
(0.366676 0.502855 0.00766022)
(0.37051 0.508706 0.00108415)
(0.339222 0.501372 -0.00515514)
(0.297901 0.478238 -0.00893349)
(0.252082 0.438903 -0.0108551)
(0.206432 0.395418 -0.0105904)
(0.166105 0.348338 -0.00740591)
(0.13399 0.305863 -0.00437157)
(0.108107 0.265683 0.000253992)
(0.0787129 0.238436 -0.00574638)
(0.0560773 0.208211 -0.00617109)
(0.0400731 0.178427 -0.00372725)
(0.0166997 0.151965 -0.000972888)
(-0.00162807 0.128734 0.00636811)
(-0.0160066 0.10142 0.00995376)
(-0.0341578 0.0786488 0.0107259)
(-0.0527024 0.0579428 0.0150794)
(-0.0865337 0.0352302 0.00484163)
(-0.125882 0.0229566 0.00487949)
(-0.153946 0.010099 0.00502998)
(-0.179006 -0.00581667 0.00614635)
(-0.210463 -0.0292526 0.00287673)
(-0.243763 -0.0720471 0.00191701)
(-0.269719 -0.127628 -0.00570773)
(-0.306953 -0.207976 -0.0156377)
(-0.34658 -0.306536 -0.0223967)
(-0.376349 -0.40992 -0.0321866)
(-0.383278 -0.493681 -0.0492674)
(-0.363975 -0.55634 -0.0763784)
(-0.293221 -0.543754 -0.0923188)
(-0.196467 -0.417132 -0.090102)
(-0.0628245 -0.153977 -0.0499934)
(0.0148337 0.0352555 -0.0109696)
(-0.0130718 0.27457 -0.0129337)
(0.0246763 0.517977 -0.041345)
(0.111147 0.632495 -0.0512742)
(0.193687 0.679066 -0.0415673)
(0.261145 0.676785 -0.0312393)
(0.305467 0.65371 -0.0192285)
(0.34165 0.616231 -0.0100403)
(0.370557 0.582632 -0.00631782)
(0.368294 0.546731 -0.00761573)
(0.335506 0.507742 -0.00751574)
(0.295794 0.467384 -0.00681614)
(0.250382 0.423754 -0.00688692)
(0.206464 0.377566 -0.00537406)
(0.169618 0.332756 -0.0047725)
(0.138236 0.289471 -0.00273458)
(0.11084 0.250342 -0.0008219)
(0.091228 0.215138 0.00353264)
(0.0687634 0.187834 -0.00124011)
(0.0476634 0.160249 -0.00355415)
(0.0314836 0.13294 -0.000378288)
(0.0110373 0.109553 0.00222407)
(-0.00529806 0.0854589 0.00867958)
(-0.0192372 0.0603733 0.00913605)
(-0.0404677 0.0391382 0.0122516)
(-0.0676029 0.0166654 0.00685557)
(-0.098478 0.00395723 0.00815146)
(-0.122084 -0.00793012 0.0109159)
(-0.141733 -0.0176097 0.0098042)
(-0.173646 -0.0333544 0.00654688)
(-0.219658 -0.0538787 0.00442632)
(-0.278932 -0.0956431 0.00444407)
(-0.333268 -0.165285 0.00613716)
(-0.361507 -0.256534 0.00277293)
(-0.358126 -0.388069 -0.0109632)
(-0.346796 -0.527999 -0.0273925)
(-0.323256 -0.647501 -0.0488156)
(-0.253886 -0.694131 -0.0779056)
(-0.144053 -0.601356 -0.0849841)
(-0.0320945 -0.322251 -0.0755108)
(0.0128947 -0.0221673 -0.00536273)
(0.000387714 0.253884 0.000135554)
(0.0370355 0.488512 -0.034148)
(0.10806 0.610558 -0.0435996)
(0.187242 0.662319 -0.0385748)
(0.253536 0.662525 -0.0248664)
(0.302044 0.639042 -0.0167356)
(0.342194 0.60273 -0.0070192)
(0.373622 0.564558 -0.00291464)
(0.373012 0.52476 -0.00312697)
(0.339448 0.488189 -0.00255944)
(0.296945 0.449219 -0.00202833)
(0.249358 0.406928 -0.00144372)
(0.204874 0.361051 -0.00127313)
(0.167333 0.316635 4.02885e-06)
(0.138854 0.272586 -0.000448427)
(0.11821 0.233415 0.00159212)
(0.0977903 0.196102 0.0018549)
(0.0807301 0.164229 0.00384347)
(0.0626786 0.138778 0.00408816)
(0.041095 0.114366 -0.00110766)
(0.0237662 0.0918102 0.00280338)
(0.00603555 0.071 0.00564379)
(-0.0101039 0.0470493 0.00930837)
(-0.0256715 0.025638 0.0104994)
(-0.048914 0.0066778 0.00807935)
(-0.0740414 -0.00687294 0.0109011)
(-0.092582 -0.0168505 0.0119773)
(-0.111715 -0.0307359 0.0127633)
(-0.139381 -0.0467019 0.0112623)
(-0.177239 -0.0640089 0.01012)
(-0.223387 -0.0844313 0.00856329)
(-0.277147 -0.113803 0.00611048)
(-0.342553 -0.16307 0.00332795)
(-0.389615 -0.25532 0.00131514)
(-0.389892 -0.376252 -0.00383801)
(-0.364836 -0.513703 -0.0148663)
(-0.291922 -0.609444 -0.0284906)
(-0.177817 -0.598245 -0.0550698)
(-0.0238056 -0.366239 -0.0533875)
(0.0416994 -0.00721552 -0.0250702)
(0.00213526 0.255565 0.00347592)
(0.0396722 0.468866 -0.0254153)
(0.10696 0.592161 -0.0349261)
(0.18132 0.648341 -0.0327492)
(0.246186 0.654696 -0.0172979)
(0.295234 0.631991 -0.0117102)
(0.336824 0.594701 -0.00202735)
(0.366698 0.55305 0.00132939)
(0.367441 0.504862 0.00118442)
(0.337496 0.464645 0.00167464)
(0.294868 0.423309 0.00203494)
(0.246303 0.380704 0.00230467)
(0.203088 0.337494 0.00252817)
(0.168902 0.29657 0.00234998)
(0.141756 0.256048 0.00247944)
(0.119154 0.217125 0.00403164)
(0.104291 0.177994 0.00662381)
(0.0907794 0.146408 0.00837965)
(0.0741166 0.117816 0.00851627)
(0.0578897 0.09679 0.0105688)
(0.0384833 0.0758062 0.0046979)
(0.0188965 0.0570597 0.00569992)
(0.00344675 0.0363387 0.010661)
(-0.0125336 0.0182757 0.00871029)
(-0.0302188 -0.00274836 0.00887301)
(-0.0489275 -0.0146435 0.00967037)
(-0.06743 -0.029077 0.0107901)
(-0.0847586 -0.0443216 0.0120834)
(-0.107219 -0.0630947 0.0131041)
(-0.138224 -0.0831383 0.0137041)
(-0.180974 -0.105409 0.0139258)
(-0.225324 -0.13915 0.0146163)
(-0.274302 -0.179692 0.0157552)
(-0.307604 -0.236102 0.0143099)
(-0.331684 -0.314351 0.00832283)
(-0.346815 -0.439421 0.000241882)
(-0.320589 -0.537213 -0.0150683)
(-0.225136 -0.566184 -0.0389714)
(-0.0598362 -0.357552 -0.0520069)
(0.0254096 0.0191477 -0.0174671)
(0.00734952 0.232777 0.000685019)
(0.0450133 0.425007 -0.021771)
(0.105133 0.554166 -0.0301134)
(0.177412 0.613457 -0.0289138)
(0.240859 0.627579 -0.016536)
(0.289919 0.607512 -0.00893339)
(0.33374 0.571241 -0.000295294)
(0.360446 0.528139 0.00345172)
(0.36148 0.477638 0.00410801)
(0.335219 0.434442 0.00453727)
(0.291821 0.391645 0.0053451)
(0.245164 0.351038 0.0060898)
(0.205259 0.312223 0.00602409)
(0.17203 0.274328 0.00624033)
(0.14567 0.235705 0.00644235)
(0.125218 0.199942 0.00785576)
(0.110023 0.164746 0.00878648)
(0.100587 0.132651 0.00971174)
(0.0896492 0.100973 0.00971188)
(0.0722047 0.0771711 0.00820809)
(0.0542617 0.0620598 0.00886227)
(0.034862 0.0450196 0.0084508)
(0.0184361 0.0282936 0.00563092)
(0.00265712 0.0111521 0.00768119)
(-0.0132297 -0.00641788 0.00862795)
(-0.0291886 -0.021551 0.00907314)