/*--------------------------------*- C++ -*----------------------------------*\
| =========                 |                                                 |
| \\      /  F ield         | OpenFOAM: The Open Source CFD Toolbox           |
|  \\    /   O peration     | Version:  v1806                                 |
|   \\  /    A nd           | Web:      www.OpenFOAM.com                      |
|    \\/     M anipulation  |                                                 |
\*---------------------------------------------------------------------------*/
FoamFile
{
    version     2.0;
    format      ascii;
    class       volScalarField;
    location    "0.131";
    object      p;
}
// * * * * * * * * * * * * * * * * * * * * * * * * * * * * * * * * * * * * * //

dimensions      [0 2 -2 0 0 0 0];


internalField   nonuniform List<scalar> 
64000
(
0.000214663
-0.00616091
0.00823651
0.168857
0.415197
0.693484
1.01462
1.35053
1.71887
2.12509
2.55429
3.18724
3.90054
4.55043
5.23094
5.86998
6.589
7.18415
7.85369
8.35833
9.02408
9.09971
9.60503
9.7623
10.2153
10.456
10.8008
10.9663
11.1514
11.2446
11.3003
11.2898
11.2209
11.1641
11.0464
10.9902
10.9067
10.8671
10.8274
10.818
-0.222337
-0.295556
-0.200037
0.00266436
0.276617
0.561089
0.888794
1.22132
1.629
1.93906
2.5761
3.22396
3.89318
4.55349
5.24583
5.88055
6.52941
7.25021
7.94063
8.51618
9.05605
9.15582
9.65444
9.86638
10.307
10.5449
10.8594
11.0111
11.2019
11.2465
11.3594
11.3165
11.2579
11.2111
11.0774
11.0195
10.9229
10.8706
10.8173
10.8058
-0.657734
-0.654637
-0.477572
-0.24459
0.0391399
0.338423
0.654134
0.975546
1.34383
1.89869
2.4089
3.04527
3.63851
4.41221
5.15377
5.812
6.57119
7.20088
7.89182
8.42021
8.91342
8.90328
9.38516
9.55023
9.9626
10.1709
10.4614
10.625
10.8104
10.937
11.0098
11.1175
11.087
11.0938
10.9912
10.9582
10.8649
10.8185
10.7668
10.7472
-1.1708
-1.07429
-0.857363
-0.624028
-0.391001
-0.1175
0.223788
0.517901
1.04594
1.53748
2.02668
2.81015
3.52936
4.20451
4.95727
5.65303
6.40556
7.04176
7.73227
8.25992
8.7316
8.63298
9.09025
9.23873
9.63467
9.84797
10.1459
10.3276
10.5548
10.7006
10.8433
10.9362
10.9628
11.0057
10.9123
10.9304
10.8304
10.7601
10.6882
10.6628
-1.87208
-1.69627
-1.44525
-1.24697
-0.950188
-0.689646
-0.316413
0.0269092
0.558219
1.08616
1.63668
2.28902
3.01597
3.77224
4.5787
5.30719
6.12038
6.78931
7.49774
8.06013
8.55762
8.41302
8.86709
8.99875
9.39016
9.60925
9.91032
10.1221
10.3515
10.5358
10.6968
10.8171
10.849
10.9069
10.8446
10.7874
10.7143
10.6284
10.5953
10.5493
-2.67505
-2.52148
-2.29002
-1.96778
-1.68679
-1.3646
-0.949208
-0.588043
-0.0409312
0.436829
0.993198
1.67271
2.47316
3.27532
4.13672
4.92853
5.79152
6.42286
7.30958
7.96122
8.46109
8.3571
8.83428
8.98497
9.3657
9.58989
9.8717
10.064
10.2828
10.4591
10.6373
10.7967
10.8669
10.9418
10.7742
10.7197
10.6722
10.5143
10.4736
10.4438
-3.47327
-3.39741
-3.24915
-3.00329
-2.61661
-2.37109
-1.85902
-1.7032
-1.17894
-0.619895
0.112783
0.904741
1.77801
2.67334
3.61907
4.52481
5.45342
6.25816
6.94364
7.79189
8.47177
8.37989
8.91367
9.07556
9.43745
9.66043
9.89288
10.0703
10.2506
10.4144
10.5596
10.7182
10.7927
10.9004
10.8234
10.6435
10.6025
10.422
10.3578
10.3136
-4.28
-4.21303
-4.14761
-3.96055
-3.82156
-3.4933
-3.16992
-2.83905
-2.1847
-1.54594
-0.745736
0.102762
1.03716
2.01382
3.04555
4.04364
5.06336
5.96168
6.86608
7.55542
8.62234
8.47472
9.04676
9.25024
9.57395
9.80063
9.99756
10.138
10.2663
10.4126
10.5437
10.647
10.7195
10.79
10.7518
10.528
10.459
10.3042
10.1892
10.162
-5.13384
-5.11519
-4.98827
-4.90926
-4.66501
-4.51332
-4.07989
-3.85396
-3.21427
-2.48215
-1.66673
-0.735228
0.278366
1.32085
2.43251
3.52835
4.64025
5.65832
6.72967
7.42405
8.67679
8.84409
9.23162
9.53682
9.77583
10.0132
10.1481
10.2589
10.368
10.4679
10.5019
10.5892
10.6268
10.6594
10.7101
10.4256
10.3497
10.163
10.0081
9.97
-6.05736
-6.00175
-5.93296
-5.85927
-5.67043
-5.56414
-5.09582
-4.64373
-4.32875
-3.49521
-2.55649
-1.56731
-0.472354
0.678689
1.88305
3.10075
4.32697
5.48566
6.64886
7.41302
8.77343
9.24399
9.48493
9.87158
10.0365
10.2615
10.3622
10.4216
10.485
10.4803
10.5029
10.4884
10.5223
10.5307
10.5053
10.3426
10.098
9.96974
9.79886
9.73208
-7.06177
-6.97411
-6.94044
-6.87658
-6.75931
-6.6183
-6.16034
-5.68614
-5.07231
-4.60533
-3.55378
-2.41491
-1.2087
0.0705977
1.40326
2.76364
4.12873
5.44074
6.72528
7.61634
9.06522
9.63945
9.85087
10.2731
10.3775
10.6227
10.6111
10.6858
10.6012
10.578
10.5265
10.4887
10.4054
10.3663
10.3714
10.1969
9.91117
9.71033
9.50659
9.41902
-8.09976
-8.01697
-7.99573
-7.95375
-7.93677
-7.71415
-7.2708
-6.74192
-6.1112
-5.34769
-4.62678
-3.35284
-1.95417
-0.519965
0.968543
2.48089
4.00992
5.48877
6.91401
7.9761
9.50186
10.0585
10.3133
10.7168
10.7999
10.9404
10.9466
10.8678
10.8124
10.7036
10.463
10.3518
10.2689
10.1521
10.0794
9.97277
9.63587
9.3966
9.20645
9.09049
-9.2095
-9.12388
-9.10803
-9.16093
-9.10297
-8.88761
-8.43772
-7.89331
-7.16556
-6.33746
-5.39818
-4.33578
-2.73661
-1.10413
0.543321
2.22212
3.928
5.60077
7.12122
8.57664
10.068
10.5115
10.8942
11.2343
11.3153
11.4969
11.4354
11.2355
10.9143
10.6833
10.5692
10.347
10.1472
9.94844
9.78889
9.62919
9.33038
9.00221
8.7495
8.62465
-10.3426
-10.2506
-10.2803
-10.3409
-10.2838
-10.0352
-9.59419
-9.01408
-8.28161
-7.35073
-6.25486
-5.27431
-3.56113
-1.73412
0.120673
1.90043
3.82539
5.78416
7.59699
9.24449
10.6376
10.8186
11.4705
11.7544
11.8078
11.7707
11.5839
11.4925
11.3184
11.0172
10.6456
10.2705
9.90841
9.6179
9.3547
9.15844
8.89136
8.56591
8.32706
8.19157
-11.5219
-11.4594
-11.485
-11.5502
-11.4968
-11.311
-10.819
-10.2413
-9.42069
-8.47035
-7.242
-6.05613
-4.28363
-2.48745
-0.235616
1.86924
3.98418
6.11724
8.12171
9.79228
11.2955
12.0627
12.4522
12.794
12.8001
12.663
12.5848
12.2707
11.8408
11.329
10.7983
10.2582
9.74353
9.27178
8.92417
8.57742
8.31598
8.03047
7.68613
7.52475
-12.6422
-12.6097
-12.6494
-12.7079
-12.6647
-12.4984
-12.0827
-11.5198
-10.6868
-9.6284
-8.28491
-6.88877
-4.83824
-2.69641
-0.496506
1.71773
3.97138
6.31965
8.56343
10.7966
12.2796
13.0988
13.5724
14.0331
14.1234
13.9757
13.2956
12.8834
12.2931
11.6379
10.9157
10.191
9.50328
8.88837
8.37056
7.97068
7.64754
7.39785
7.27877
6.9527
-13.9427
-13.9181
-13.9464
-14.0135
-13.9809
-13.8843
-13.5083
-12.967
-12.0727
-10.8192
-9.17784
-7.22824
-5.23546
-3.02785
-0.638942
1.7616
4.15407
6.76175
9.38648
11.7715
13.5658
14.3571
15.0518
15.439
15.4012
15.0353
14.4521
13.599
12.7303
11.9364
10.9664
10.0331
9.15152
8.38263
7.7581
7.26505
6.85274
6.50079
6.26466
6.31589
-14.6425
-14.7145
-14.7962
-14.8748
-14.914
-14.9449
-14.6577
-14.1785
-13.2359
-11.8639
-10.0187
-7.82636
-5.87564
-3.51007
-0.872208
1.83869
4.51979
7.1459
10.0153
12.8823
14.675
15.7893
16.5776
16.9743
16.8882
16.4131
15.5615
14.4261
13.5065
12.0692
10.9449
9.96741
8.91158
7.90894
7.05711
6.43075
5.95914
5.69946
5.42843
5.28466
-16.2291
-16.2338
-16.2336
-16.3399
-16.3472
-16.4416
-16.2282
-15.8613
-14.8876
-13.3486
-10.9091
-8.84926
-6.51893
-3.89907
-1.03378
1.83492
4.91542
7.79085
11.0602
14.1616
15.6191
17.0645
18.0182
18.4858
18.2523
17.6295
16.7113
15.3857
13.8958
12.4765
11.0367
9.55768
8.24332
7.15257
6.29484
5.57615
5.11977
4.55397
4.39679
4.2462
-15.9189
-16.1843
-16.217
-16.4626
-16.6367
-17.0059
-17.1937
-17.0803
-16.0417
-14.3068
-11.9112
-9.86561
-7.28561
-4.3769
-1.12333
2.41484
5.8098
9.11387
12.3302
15.345
16.7668
17.9692
18.8933
19.5285
19.5373
18.9197
17.6748
15.9605
14.4998
12.6351
11.065
9.6903
8.17314
6.81181
5.66962
4.78163
4.14817
3.76826
3.34163
3.23065
-18.1052
-17.8102
-17.7922
-17.9152
-18.1191
-18.477
-18.8196
-18.7266
-17.737
-16.0299
-13.5766
-11.3182
-8.10096
-4.74205
-0.897539
2.99529
6.9316
10.5331
13.6985
16.6587
18.017
19.0669
19.7448
20.1191
20.0446
19.2131
17.6883
15.8659
13.9042
11.7644
10.1975
9.08232
7.571
6.07672
4.81209
3.89529
3.17358
2.82856
2.4863
2.32754
-18.2928
-18.3149
-18.4328
-18.6275
-19.015
-19.4858
-19.8108
-19.7402
-18.8479
-17.3406
-14.7969
-12.2638
-8.65391
-4.91075
-0.841032
3.68952
7.90528
11.9668
15.2388
18.0198
19.5836
20.6379
21.1973
21.1911
20.8051
19.8992
18.1138
15.8412
13.4461
10.9777
8.73646
7.0855
5.62817
4.58241
3.62074
2.80742
2.09363
1.68825
1.49308
1.16317
-18.8398
-18.8107
-18.9803
-19.2506
-19.6771
-20.2884
-20.5109
-20.3848
-19.5753
-18.104
-15.921
-13.0215
-9.19757
-5.13156
-0.811732
4.22235
8.90676
13.3699
16.8976
19.5049
21.1349
22.2432
22.7874
22.7122
21.9731
20.7396
18.8737
16.4571
13.7658
11.1071
8.61873
6.83007
4.66394
2.75821
1.83386
1.21682
0.657168
0.337693
0.272837
0.130864
-18.6816
-18.8923
-19.0242
-19.3595
-19.8216
-20.4849
-20.6874
-20.4473
-19.6466
-18.2323
-16.5268
-13.3666
-9.53958
-5.31301
-0.733254
4.59714
9.93421
14.4444
18.4019
21.2009
22.797
23.9888
24.4575
24.3045
23.4837
21.9042
19.677
17.1529
14.2458
11.3009
8.50271
6.28858
4.41795
2.4478
1.40789
0.525181
-0.233573
-0.7354
-0.930043
-1.07948
-18.2114
-18.3215
-18.6317
-19.0326
-19.522
-20.1748
-20.2959
-19.915
-19.0786
-17.8025
-16.445
-13.3976
-9.57697
-5.26011
-0.509001
5.18626
10.7652
15.7002
19.6076
22.8498
24.5733
25.941
26.3441
25.9954
25.0074
23.301
20.8406
17.9792
14.851
11.7688
8.68711
6.1226
3.88881
2.53826
1.32445
0.382985
-0.424824
-0.918535
-1.19794
-1.25291
-17.3529
-17.4422
-17.7531
-18.1593
-18.6669
-19.1771
-19.1783
-18.6442
-17.7909
-16.674
-15.276
-13.0668
-9.02185
-4.79081
0.0235069
5.75019
11.6957
16.9891
21.3157
24.5685
26.6539
28.31
28.613
28.0773
26.7489
24.708
21.9628
18.8295
15.4316
12.1529
8.79725
5.68322
3.54053
2.40014
1.0228
0.0259625
-0.841805
-1.36966
-1.80871
-2.03426
-16.12
-16.2413
-16.4599
-16.9009
-17.2946
-17.5722
-17.4134
-16.7549
-15.9087
-14.8468
-13.4091
-11.8675
-7.92501
-3.81384
0.873273
6.37199
12.4761
17.9366
22.5691
26.2383
29.01
31.0598
31.3148
30.3216
28.5665
26.1129
23.0563
19.6971
16.0993
12.7281
9.21646
5.96479
3.81931
2.97491
1.53157
0.514203
-0.439494
-1.06728
-1.61346
-1.8391
-14.4117
-14.5956
-14.5696
-15.0518
-15.3038
-15.2539
-14.9125
-14.1868
-13.3055
-12.1863
-10.7535
-9.03362
-6.43068
-2.14643
2.68955
8.24788
14.4162
20.1253
25.1263
28.9281
30.6993
31.9346
32.4674
31.9023
30.122
27.2212
23.7324
20.0679
16.2311
12.7029
8.98553
5.5322
3.09247
2.20802
0.657882
-0.365794
-1.33074
-1.89978
-2.478
-2.71314
-12.4418
-12.6828
-12.6671
-12.836
-12.9388
-12.5823
-11.8652
-11.0054
-9.9505
-8.71509
-7.25683
-5.27754
-3.37007
0.30397
6.03681
11.9421
17.5929
22.7079
27.1637
30.4345
31.3848
32.4219
32.7028
31.8037
30.005
27.4375
23.9738
20.3424
16.4588
12.9697
9.60211
6.30419
3.98575
2.5546
0.981096
-0.151625
-1.24601
-1.88799
-2.51697
-2.72764
-9.89431
-10.2757
-10.3174
-10.077
-10.0621
-9.30697
-8.50672
-7.52131
-6.33885
-4.86412
-3.04424
-0.93508
1.46411
4.54076
8.86168
14.1081
19.171
23.6231
27.7741
30.9364
31.2346
32.4279
32.4464
31.6107
29.4751
26.5915
23.3645
19.8852
15.9931
12.542
9.25568
6.65626
4.20485
2.50374
0.891797
-0.184248
-1.23961
-1.69093
-2.08479
-2.10134
-7.85097
-7.98271
-7.92531
-7.50661
-7.07523
-6.03325
-4.94688
-3.70652
-2.36037
-0.714108
1.26128
3.56717
6.3478
8.44662
11.7943
15.7808
19.7758
24.2867
28.1234
31.0442
31.0355
32.1115
31.8636
31.0228
29.1239
26.0767
22.6774
19.3621
15.5735
12.0561
8.68535
6.67342
4.51751
2.64514
0.785168
-0.255319
-1.29928
-1.55994
-1.84228
-1.75248
-5.57252
-5.48284
-5.22795
-4.73192
-3.9548
-2.58284
-1.16313
0.233332
1.79592
3.5928
5.73885
7.93528
10.0398
11.8744
13.9631
17.5192
21.6243
25.2625
28.3094
31.0484
31.2521
31.8158
31.3138
30.318
28.3992
25.5721
21.7804
18.6474
14.375
11.0742
8.21736
6.425
4.65237
2.29684
0.445804
-0.550135
-1.53191
-1.52544
-1.71716
-1.3746
-3.31428
-3.07558
-2.75163
-2.07208
-1.17119
0.605959
2.35665
3.89073
5.56533
7.59632
9.207
11.0049
13.068
15.2949
17.1573
19.4968
22.7128
26.0735
28.9782
30.8678
31.1862
31.638
30.7688
29.7001
27.6202
24.9473
20.9871
18.1834
13.2239
10.0871
7.5414
6.12168
3.95853
2.44569
0.052437
-0.989085
-1.92609
-1.66113
-1.77281
-1.12897
-0.994883
-0.604024
-0.0911175
0.674925
1.67288
3.70462
5.67931
7.40774
9.07301
10.3965
11.9695
13.8617
16.0081
18.214
20.4413
22.491
25.1591
27.5052
29.3282
30.9653
31.1618
31.4809
30.2172
28.8583
26.6762
24.0219
20.3843
17.7736
12.5071
9.24296
6.83855
5.73246
3.34362
1.93955
-0.124273
-1.07548
-2.40173
-1.76449
-1.88564
-0.747666
0.889007
1.38395
2.07579
2.94335
4.28598
6.25723
8.30286
9.68112
11.1327
12.7445
14.5613
16.6125
18.701
20.8369
23.0031
24.9887
27.1084
29.0624
30.4505
31.7247
30.3471
30.8807
29.3744
27.896
25.821
23.2743
19.6645
17.2409
11.9239
8.52324
5.76136
4.80802
2.90655
1.23129
-0.27405
-1.61295
-2.76687
-2.237
-2.15514
-0.41387
2.79765
3.42501
4.12202
5.234
6.4996
8.43919
10.4083
11.6546
13.3571
15.2764
17.2077
19.2111
21.2714
23.2778
25.2866
27.084
28.7663
30.3897
31.4012
32.1786
29.5261
30.7105
28.7703
27.1616
25.0053
22.8487
18.8002
16.6892
11.2325
7.95183
5.36625
3.67831
2.12512
1.22739
-0.997087
-1.09301
-3.25986
-2.05998
-2.45895
0.479291
4.8971
4.95633
5.82248
6.68206
8.11568
9.65674
11.9922
13.4363
15.2641
17.2224
19.1575
21.1402
23.0834
25.0472
26.9447
28.6858
30.0191
31.3512
31.9844
32.3214
29.3439
29.5767
28.4268
26.5496
24.1314
21.7461
18.3969
16.2782
10.5671
7.29972
4.64022
2.97581
1.16783
0.320077
-1.09265
-1.77822
-2.93401
-2.60433
-2.37485
1.70035
6.44488
7.26262
7.48711
8.68215
9.72577
11.269
13.1115
15.1383
17.0049
18.9318
20.7698
22.6997
24.5181
26.3227
27.9466
29.494
30.7362
31.7519
32.2234
32.2504
29.3254
28.9182
27.6604
25.6025
23.7108
21.379
18.3574
15.8276
10.0162
6.59558
3.76645
2.4313
0.51839
0.0312408
-1.68191
-1.41304
-2.71331
-0.528968
-1.46824
6.13603
7.56128
7.71064
8.50031
9.20487
10.4516
11.9738
14.1141
15.8421
17.938
20.0644
21.9569
23.8376
25.5503
27.1988
28.6331
30.014
31.118
32.0381
32.4457
32.1101
29.3456
28.2419
26.9884
25.2374
23.4029
21.3259
18.4219
15.6732
9.65514
6.01574
3.06425
2.04375
0.220692
-0.354926
-2.08296
-1.57093
-3.10675
0.0026731
1.31025
11.1212
5.66847
8.8111
9.16291
10.2132
11.2155
12.7909
14.714
16.7268
18.565
20.5879
22.516
24.4281
26.1181
27.6773
28.9728
30.2361
31.309
32.1131
32.5003
32.0466
29.5932
28.155
26.8445
25.2425
23.4266
21.4642
18.4283
15.1796
9.33751
5.57093
2.65198
1.69608
0.145956
-0.207489
-1.80072
-0.7903
-1.31432
4.09014
9.01722
24.1024
-0.0747587
-0.0451893
0.0113829
0.174705
0.427114
0.71737
1.0431
1.37659
1.73051
2.15954
2.60455
3.3098
3.96183
4.61633
5.28973
5.91025
6.6147
7.22533
7.75491
8.45345
8.92845
9.05475
9.48646
9.71424
10.1424
10.3799
10.6904
10.8535
11.0501
11.1192
11.2373
11.23
11.1757
11.1581
11.0081
10.9884
10.888
10.8715
10.8284
10.823
-0.334848
-0.31151
-0.198194
-0.00788149
0.287763
0.581394
0.913053
1.26907
1.55822
2.0852
2.57115
3.26588
3.94084
4.57542
5.284
5.92603
6.65612
7.29618
7.96606
8.48976
8.93942
9.05664
9.49658
9.72961
10.1385
10.3653
10.6606
10.8195
11.001
11.093
11.1533
11.2438
11.1989
11.2067
11.0419
10.9966
10.9134
10.8667
10.8188
10.8099
-0.697627
-0.667766
-0.542384
-0.235629
0.0267931
0.314245
0.69676
0.901213
1.31751
1.92105
2.44235
3.09866
3.76559
4.45668
5.1813
5.84096
6.60212
7.23196
7.9128
8.36853
8.75699
8.76552
9.16363
9.34792
9.75235
9.96178
10.2457
10.4173
10.6167
10.7532
10.8892
11.0004
10.9896
11.0732
10.9599
10.9659
10.8494
10.7978
10.7561
10.7272
-1.16223
-1.15294
-0.861313
-0.642078
-0.401291
-0.120455
0.195378
0.581537
1.05315
1.58613
2.16271
2.83338
3.54514
4.21785
4.96329
5.66127
6.43125
7.06391
7.75625
8.18681
8.52609
8.47057
8.83877
9.03312
9.42409
9.65134
9.95321
10.1609
10.4184
10.5966
10.7577
10.8815
10.9395
10.999
10.9253
10.8477
10.8597
10.7264
10.6779
10.6491
-1.74026
-1.58442
-1.41785
-1.21078
-0.884957
-0.721535
-0.315565
0.0580615
0.577753
1.12766
1.71475
2.33549
3.03215
3.78339
4.57861
5.31768
6.1164
6.77907
7.49235
7.98827
8.35994
8.26387
8.66957
8.83988
9.24058
9.48144
9.78604
9.99689
10.2696
10.4876
10.68
10.818
10.8352
10.9154
10.8229
10.772
10.7023
10.6229
10.5692
10.5318
-2.54931
-2.4028
-2.18085
-1.94131
-1.61993
-1.40747
-0.983971
-0.576272
-0.0588356
0.432744
0.995365
1.67395
2.46539
3.27934
4.13168
4.94381
5.81541
6.54307
7.34986
7.92345
8.2904
8.23855
8.62582
8.83124
9.22195
9.47799
9.78164
10.0249
10.2945
10.4693
10.6722
10.8227
10.9104
10.9431
10.7648
10.7123
10.6281
10.5234
10.4573
10.4217
-3.40603
-3.33014
-3.14835
-2.9215
-2.50255
-2.34844
-1.90212
-1.68141
-1.19463
-0.603264
0.126205
0.916318
1.78881
2.6741
3.63923
4.57771
5.49362
6.31008
7.11809
7.78366
8.33679
8.31583
8.75995
8.98198
9.34631
9.57641
9.83077
10.0385
10.2695
10.4383
10.6338
10.7753
10.8603
10.9442
10.8169
10.6473
10.5659
10.426
10.3559
10.2934
-4.2386
-4.1872
-4.08229
-3.95362
-3.66461
-3.53627
-3.22289
-2.82491
-2.19437
-1.52848
-0.733933
0.149025
1.0742
2.0724
3.10474
4.10441
5.13361
6.053
6.98155
7.71659
8.50598
8.49783
8.95711
9.1994
9.52363
9.73003
9.96431
10.153
10.3285
10.4788
10.5884
10.7318
10.7837
10.8836
10.773
10.5472
10.4458
10.2931
10.2007
10.144
-5.11269
-5.07868
-4.99136
-4.91442
-4.64471
-4.56877
-4.23437
-3.82372
-3.20609
-2.46974
-1.63253
-0.687184
0.325301
1.40564
2.52732
3.63018
4.74639
5.78591
6.847
7.69076
8.6453
8.84391
9.21145
9.49876
9.74938
9.92114
10.1191
10.2876
10.3944
10.4818
10.5175
10.5145
10.6031
10.6518
10.781
10.4385
10.3345
10.1516
10.0212
9.95467
-6.05453
-6.03138
-5.95367
-5.90438
-5.67447
-5.66881
-5.25796
-4.77374
-4.18369
-3.46147
-2.54398
-1.52331
-0.422781
0.752965
1.99205
3.2182
4.44999
5.61838
6.76151
7.72089
8.78311
9.25426
9.51201
9.85306
10.0287
10.1864
10.3476
10.4296
10.5418
10.4044
10.465
10.5247
10.5225
10.5907
10.5069
10.4256
10.1224
9.95671
9.81202
9.72672
-7.09352
-7.03378
-7.01761
-6.93479
-6.72868
-6.70165
-6.34988
-5.96719
-5.20408
-4.39403
-3.49417
-2.38105
-1.15515
0.146202
1.50572
2.89449
4.26206
5.57376
6.82219
7.89875
9.04424
9.66602
9.89248
10.2708
10.3663
10.5746
10.632
10.7347
10.4452
10.5048
10.4565
10.2274
10.2632
10.197
10.3229
10.1599
9.94467
9.69525
9.50712
9.40578
-8.13072
-8.08925
-8.06777
-7.9955
-7.98805
-7.80125
-7.44562
-6.9425
-6.43584
-5.57241
-4.42814
-3.22463
-1.88809
-0.427615
1.08283
2.62968
4.16535
5.63845
7.0187
8.2319
9.44847
10.1051
10.3722
10.7426
10.8652
10.9951
11.0093
10.6979
10.7325
10.4489
10.3178
10.4323
10.2939
10.2764
10.1005
9.9162
9.67649
9.40567
9.20532
9.0842
-9.25268
-9.21253
-9.20536
-9.24929
-9.15994
-8.92308
-8.63109
-8.11507
-7.42265
-6.68382
-5.59412
-4.11833
-2.58766
-0.979581
0.691853
2.4096
4.12226
5.77777
7.31453
8.7093
9.97236
10.5537
10.9305
11.2998
11.4341
11.5837
11.2897
11.3249
10.8833
10.9079
10.7572
10.4248
10.1797
9.94422
9.87904
9.65161
9.2662
9.07578
8.74889
8.593
-10.4034
-10.3648
-10.4116
-10.4793
-10.3827
-10.1146
-9.70302
-9.21725
-8.6391
-7.73016
-6.77785
-5.09322
-3.31426
-1.54708
0.302752
2.18442
4.09809
5.97975
7.71938
9.27563
10.5336
11.0279
11.5475
11.9823
12.1542
11.9827
11.8028
11.571
11.596
11.2862
10.7979
10.4273
10.0548
9.70698
9.40143
9.2194
8.89415
8.53625
8.42007
8.17157
-11.6123
-11.6123
-11.6675
-11.7432
-11.6509
-11.4381
-10.9255
-10.3758
-9.54956
-8.96833
-7.81813
-6.09211
-3.99097
-2.05623
-0.01712
2.05452
4.16465
6.25912
8.19844
9.89557
11.2115
12.0034
12.453
12.8733
12.8581
12.9446
12.9078
12.5935
12.1257
11.5278
10.9732
10.3775
9.84258
9.38027
8.96082
8.62608
8.33715
7.93982
7.62367
7.47836
-12.7736
-12.7776
-12.83
-12.8943
-12.8378
-12.6862
-12.2949
-11.7272
-10.8592
-9.83043
-8.61709
-7.04417
-4.71449
-2.55914
-0.358517
1.8678
4.14651
6.47491
8.617
10.5698
12.0814
13.3247
13.8822
14.2128
14.3685
14.2656
13.8405
13.2878
12.5838
11.8538
11.0484
10.2802
9.57178
8.95272
8.44615
8.01013
7.76534
7.38649
7.1938
7.01819
-14.0795
-14.0716
-14.1299
-14.2183
-14.1681
-14.1039
-13.7553
-13.2095
-12.3148
-11.0445
-9.46133
-7.49888
-5.34773
-3.07359
-0.600045
1.88904
4.29791
6.695
9.06787
11.5243
13.776
14.5989
15.2283
15.631
15.6482
15.3655
14.7982
14.0046
13.109
12.1284
11.1092
10.1279
9.21186
8.4215
7.76399
7.26703
6.85871
6.61745
6.16155
6.08939
-14.8923
-14.9875
-15.0935
-15.2417
-15.2064
-15.2882
-14.9837
-14.509
-13.5976
-12.239
-10.5472
-8.14523
-5.833
-3.63089
-0.945179
1.83358
4.46923
6.9284
9.776
13.2252
14.8266
15.9736
16.7755
17.1663
17.0914
16.655
15.849
14.8209
13.6756
12.4097
11.1767
10.0107
8.89892
7.91258
7.09968
6.48269
6.02058
5.70186
5.51832
5.18539
-16.386
-16.3497
-16.44
-16.4897
-16.6025
-16.74
-16.5365
-16.1705
-15.2305
-13.7458
-11.9174
-9.22277
-6.30355
-3.98766
-1.14957
1.87659
4.86181
7.60816
11.4311
14.4776
15.9119
17.3084
18.2227
18.654
18.4981
17.9055
16.8945
15.5984
14.1488
12.658
11.1578
9.72894
8.39002
7.23958
6.29595
5.59011
5.00462
4.56172
4.3382
4.04303
-16.3722
-16.4623
-16.6726
-16.7469
-17.0634
-17.4319
-17.5404
-17.4606
-16.5207
-14.9931
-13.0014
-10.3887
-7.07104
-4.39789
-1.2397
2.35222
5.84082
9.21298
12.8787
15.6867
17.2653
18.497
19.3142
19.7459
19.6644
18.9673
17.699
16.1842
14.5147
12.734
11.0698
9.54207
8.05429
6.72856
5.61051
4.75739
4.11551
3.58016
3.32276
3.07024
-17.9791
-17.8899
-18.0146
-18.0781
-18.4234
-18.8888
-19.1246
-19.1392
-18.2914
-16.7808
-14.6498
-11.9804
-8.06861
-4.8605
-1.09246
3.14411
7.17848
10.9011
14.2069
17.1284
18.6516
19.6583
20.3551
20.5871
20.3681
19.4166
17.6289
15.8832
13.8571
11.8665
10.1118
8.68172
7.16631
5.72646
4.5253
3.67003
3.01913
2.49311
2.23502
1.97025
-18.5085
-18.5655
-18.7396
-19.0276
-19.3513
-19.985
-20.2505
-20.3216
-19.6435
-18.2319
-16.07
-13.3045
-8.97744
-5.25699
-0.920915
3.96201
8.58438
12.5839
15.6778
18.6759
20.095
21.074
21.5831
21.3864
21.2163
20.3932
18.3203
15.698
13.3026
11.1274
8.84486
6.96892
5.33637
4.09907
3.1028
2.33304
1.7036
1.22079
1.1166
1.03467
-19.2525
-19.1513
-19.338
-19.6881
-20.0603
-20.8396
-21.1433
-21.1979
-20.6382
-19.3504
-17.2786
-14.4291
-10.0453
-5.80957
-1.07639
4.55589
9.83583
14.4632
17.6089
20.1381
21.6143
22.668
23.0987
22.7585
22.0302
21.1381
19.1628
16.4921
13.5812
10.83
8.55226
6.43521
4.3193
2.63134
1.5314
0.915226
0.336551
0.0404246
-0.180074
-0.161517
-19.0779
-19.1229
-19.391
-19.7975
-20.2466
-21.1342
-21.4993
-21.4847
-20.9859
-19.8202
-17.9555
-15.0567
-11.1311
-6.38148
-1.21191
4.93966
10.7546
15.7594
19.0355
21.6284
23.2816
24.3771
24.6766
24.3161
23.4461
21.9834
19.9147
17.2297
14.2015
11.0178
8.2449
6.04916
3.97696
2.20749
0.989289
0.145785
-0.600436
-1.0704
-1.33007
-1.43447
-18.5213
-18.6206
-19.0206
-19.5095
-20.0978
-20.9522
-21.3067
-21.2043
-20.6912
-19.6323
-18.0071
-15.3838
-11.8436
-6.64498
-1.21631
5.17292
11.3284
16.6017
20.5765
23.1536
24.9503
26.3448
26.5903
26.0493
25.0894
23.4497
20.9772
18.0566
14.9127
11.5567
8.06901
5.94615
3.77592
2.20263
0.911639
-0.0290353
-0.854329
-1.32094
-1.54744
-1.58729
-17.6307
-17.7194
-18.083
-18.6199
-19.2687
-20.0252
-20.3309
-20.1279
-19.5724
-18.5845
-17.1595
-14.928
-11.5117
-6.59413
-0.865738
5.47948
11.9125
17.5662
22.1034
25.2414
26.9293
28.7299
29.049
28.4027
27.0883
25.0886
22.3029
19.0508
15.5471
12.0769
8.2491
5.66619
3.59576
2.02777
0.67144
-0.331839
-1.17959
-1.68938
-2.10252
-2.1365
-16.4362
-16.623
-16.771
-17.2483
-17.8471
-18.4304
-18.6385
-18.3145
-17.6768
-16.7216
-15.4209
-13.4968
-10.3034
-6.08694
0.185364
6.21189
12.768
18.8221
23.5385
26.9848
29.4727
31.5647
31.9823
30.9884
29.2402
26.7082
23.5282
20.0275
16.3162
12.7027
8.84779
5.95262
4.10727
2.51177
1.111
0.109858
-0.818326
-1.52311
-2.02851
-2.07196
-14.7178
-14.9271
-14.965
-15.341
-15.729
-16.0183
-16.0585
-15.5824
-14.8503
-13.8738
-12.6044
-10.8222
-8.08254
-4.00953
1.44492
8.17739
14.8122
21.0844
25.7566
29.5725
31.4247
32.3215
32.8247
32.5508
30.8699
27.8961
24.2652
20.4386
16.5186
12.7925
8.76635
5.72548
3.45022
1.76565
0.263964
-0.76313
-1.68732
-2.3487
-2.82683
-3.02242
-12.7743
-12.9691
-12.9569
-13.1049
-13.2793
-13.2011
-12.8322
-12.1792
-11.3162
-10.2335
-8.86247
-7.04762
-4.57873
-0.742912
4.76115
11.2964
17.8023
23.1091
27.63
31.0301
32.2821
32.8323
33.0171
32.3399
30.8207
27.9742
24.4299
20.6646
16.708
13.1373
9.44183
6.10973
3.8917
2.10914
0.500341
-0.578472
-1.66533
-2.32422
-2.6532
-2.93727
-10.4704
-10.6275
-10.5724
-10.444
-10.3561
-9.92654
-9.15185
-8.27748
-7.22914
-5.91541
-4.30203
-2.30797
0.24165
3.74202
8.43882
13.7338
19.2025
24.06
28.2612
31.4701
32.4368
32.9952
33.0077
31.988
29.856
27.1418
23.7453
20.1453
16.2664
12.745
9.21683
6.43852
3.95241
2.08036
0.380811
-0.627123
-1.68684
-2.15684
-2.37569
-2.42209
-8.23553
-8.27867
-8.09865
-7.76434
-7.31714
-6.49867
-5.36852
-4.16187
-2.90093
-1.33914
0.523653
2.72507
5.2997
8.16622
11.7735
15.8831
20.3256
24.7693
28.721
31.6685
32.2312
32.785
32.629
31.3864
29.279
26.3942
22.9972
19.5767
15.7674
12.2154
8.68469
6.42897
4.37653
2.23434
0.302972
-0.639214
-1.74399
-1.98634
-2.15931
-2.00953
-5.75972
-5.67868
-5.35061
-4.84969
-4.1012
-2.78139
-1.36703
0.121095
1.5599
3.26432
5.24172
7.43224
9.78239
12.1253
14.8639
18.263
22.2191
26.0328
29.3269
31.7021
32.1793
32.5967
32.3179
30.8366
28.6613
25.719
22.2177
18.9172
14.569
11.1878
8.19127
5.97539
4.07384
2.51704
0.089824
-0.899448
-2.01687
-1.99769
-2.23224
-1.82874
-3.37242
-3.18077
-2.78784
-2.16421
-1.14631
0.518263
2.29044
3.92964
5.59542
7.25787
9.03655
11.0625
13.2868
15.6081
17.9347
20.7997
24.1354
27.2552
29.8547
31.8742
32.144
32.3738
31.6089
30.1561
27.9186
24.9877
21.4043
18.3758
13.4087
10.1072
7.50707
5.55158
3.38866
2.31503
0.258001
-1.52692
-2.44536
-2.21448
-2.58875
-1.85973
-0.877252
-0.562348
-0.190195
0.64732
1.73985
3.60426
5.6937
7.40991
8.96147
10.5886
12.1531
14.0967
16.327
18.6811
21.0255
23.5573
26.2356
28.5402
30.4465
32.0367
31.6696
31.7565
30.8821
29.3597
27.0826
24.2329
20.6686
17.8601
12.5678
9.23424
6.65177
5.06501
2.78845
1.51972
-0.15405
-1.12696
-3.16197
-2.39479
-3.19345
-1.88638
1.17771
1.46873
2.15492
2.84552
4.20045
5.95244
8.2763
9.87162
11.5009
13.1702
14.9389
16.9685
19.265
21.5762
23.883
25.8928
27.7688
29.6361
31.4165
32.4843
31.1069
31.0541
29.9452
28.3621
26.132
23.4343
19.8619
17.2337
11.8081
8.43062
5.58418
4.31151
2.15026
0.85935
-1.06937
-1.735
-3.17088
-3.15413
-3.86936
-2.00641
3.03334
3.63021
4.26131
5.38244
6.53583
8.14006
10.4085
12.0487
13.7137
15.6268
17.7945
20.0477
22.096
24.3508
26.2616
27.8265
29.4821
31.1899
32.354
32.701
30.5337
30.4332
29.1483
27.44
25.0283
22.7
19.1586
16.5996
11.1223
7.70203
4.85542
3.37914
1.51576
0.518232
-1.52977
-1.82334
-3.73565
-2.85421
-4.47899
-1.35075
5.034
5.12726
5.92304
6.85565
8.28971
9.76297
12.0032
13.7781
15.6769
17.7772
19.7365
21.6467
23.529
25.4764
27.378
29.0455
30.4735
31.7827
32.451
32.5476
30.0285
29.6447
28.374
26.5537
24.1135
21.8744
18.727
16.0693
10.5571
7.00754
4.29049
2.58155
0.620742
-0.0572204
-2.03645
-2.22141
-4.03097
-3.11179
-4.44398
0.34453
6.6914
7.3917
7.67004
8.80532
9.95785
11.468
13.5529
15.5579
17.4521
19.3991
21.1721
23.101
24.9165
26.7157
28.3033
29.8413
31.1077
32.2593
32.7591
32.5785
29.8766
29.0008
27.6173
25.7559
23.8104
21.534
18.5323
15.6429
9.98016
6.36106
3.37048
1.87865
-0.119636
-0.533794
-2.30884
-1.93746
-3.44419
-1.52965
-1.92107
5.80097
7.92863
7.89509
8.60376
9.3366
10.8244
11.9468
14.3772
16.481
18.51
20.5904
22.3922
24.1729
25.829
27.5061
28.9717
30.3946
31.4272
32.5086
32.816
32.352
29.7338
28.3856
27.0083
25.2686
23.4839
21.4585
18.4976
15.3809
9.54574
5.84703
2.80207
1.73651
-0.245574
-0.788176
-2.54981
-2.15361
-3.29044
-0.132287
2.03354
13.283
5.93424
9.06672
9.42923
10.4598
11.482
12.9791
15.0263
17.2082
19.1861
21.2505
23.1099
24.9487
26.5894
28.0971
29.4137
30.6612
31.5993
32.5341
32.8067
32.2665
29.9579
28.3979
26.9944
25.3053
23.4837
21.6041
18.5106
15.0431
9.2168
5.34213
2.32743
1.3343
-0.362128
-0.69064
-2.15446
-1.24744
-1.28617
4.42687
11.8499
29.7293
-0.127141
-0.0624287
0.0442489
0.226062
0.472241
0.778861
1.096
1.40805
1.74724
2.26507
2.83671
3.42118
4.06066
4.65364
5.32321
5.93972
6.67541
7.29294
7.96467
8.51636
9.01043
8.99367
9.50583
9.71136
10.137
10.3889
10.7295
10.9332
11.1327
11.2079
11.2864
11.3335
11.1979
11.1584
11.0376
10.9929
10.8817
10.869
10.8377
10.8304
-0.28689
-0.241172
-0.125077
0.0650079
0.35699
0.635683
0.998237
1.23241
1.60434
2.23721
2.75822
3.37495
4.01889
4.65418
5.35987
6.02818
6.7744
7.39485
8.09193
8.55048
8.96943
8.98873
9.37858
9.60104
10.0168
10.2759
10.6038
10.7871
10.9839
11.0491
11.143
11.1599
11.1525
11.1758
11.0327
11.0051
10.912
10.8744
10.8254
10.7982
-0.624311
-0.571031
-0.4408
-0.184257
0.0448802
0.343461
0.662921
1.03718
1.45536
2.00337
2.57313
3.19368
3.85674
4.51878
5.22525
5.9108
6.6756
7.29883
7.99506
8.36894
8.71609
8.63204
8.97694
9.15821
9.55492
9.79735
10.1194
10.3455
10.528
10.7292
10.8239
10.9454
10.9692
10.9925
10.9452
10.9494
10.8414
10.8068
10.7562
10.7491
-1.1108
-1.03806
-0.83409
-0.581215
-0.423813
-0.0756398
0.291333
0.662985
1.14139
1.6835
2.27408
2.90998
3.59426
4.24404
4.9743
5.69669
6.4612
7.09534
7.77823
8.12693
8.40518
8.29368
8.60259
8.7968
9.19959
9.45972
9.8
9.95537
10.2683
10.4725
10.7153
10.8463
10.9004
10.956
10.877
10.8557
10.7654
10.7469
10.6684
10.655
-1.52968
-1.46165
-1.35192
-1.15466
-0.892157
-0.614637
-0.237927
0.149748
0.66586
1.21322
1.79819
2.37796
3.04501
3.76944
4.56577
5.31155
6.12125
6.77807
7.49397
7.83096
8.16395
8.03495
8.41341
8.59386
9.00345
9.27733
9.5965
9.86596
10.1625
10.4099
10.6131
10.7649
10.8452
10.9118
10.7877
10.7737
10.6797
10.6167
10.5658
10.5374
-2.30605
-2.19009
-2.08757
-1.85071
-1.58815
-1.29816
-0.90258
-0.500589
-0.00950347
0.457541
1.00236
1.6734
2.46094
3.25862
4.1185
4.94186
5.76559
6.52885
7.3071
7.77173
8.13601
8.05025
8.411
8.62396
9.02283
9.28898
9.59909
9.8513
10.061
10.342
10.5152
10.7572
10.8723
10.9147
10.7176
10.6975
10.6079
10.5263
10.4573
10.4214
-3.15082
-3.11931
-2.96908
-2.75587
-2.46928
-2.20317
-1.82807
-1.62776
-1.18603
-0.591158
0.132412
0.91925
1.79494
2.67423
3.61072
4.49123
5.49159
6.31559
7.13248
7.73638
8.21372
8.17614
8.56987
8.79421
9.14597
9.38794
9.5187
9.85479
10.1109
10.2856
10.5198
10.693
10.7685
10.8922
10.7841
10.6528
10.5671
10.4276
10.3501
10.2906
-4.03088
-4.00565
-3.94072
-3.82142
-3.61408
-3.41218
-3.19429
-2.80364
-2.19353
-1.52374
-0.737963
0.139583
1.10941
2.14043
3.15073
4.14051
5.15544
6.09669
7.03061
7.73704
8.41944
8.39465
8.80652
9.05717
9.37242
9.58644
9.73645
9.95917
10.011
10.4236
10.5993
10.6469
10.7206
10.802
10.6465
10.5904
10.4462
10.3141
10.1978
10.1393
-4.93219
-4.92614
-4.88447
-4.82377
-4.66608
-4.55563
-4.2492
-3.82131
-3.20964
-2.46491
-1.63471