/*--------------------------------*- C++ -*----------------------------------*\
| =========                 |                                                 |
| \\      /  F ield         | OpenFOAM: The Open Source CFD Toolbox           |
|  \\    /   O peration     | Version:  v1806                                 |
|   \\  /    A nd           | Web:      www.OpenFOAM.com                      |
|    \\/     M anipulation  |                                                 |
\*---------------------------------------------------------------------------*/
FoamFile
{
    version     2.0;
    format      ascii;
    class       volVectorField;
    location    "0.131";
    object      U;
}
// * * * * * * * * * * * * * * * * * * * * * * * * * * * * * * * * * * * * * //

dimensions      [0 1 -1 0 0 0 0];


internalField   nonuniform List<vector> 
64000
(
(-0.0141025 -0.00887155 -0.0121255)
(0.00991276 -0.00797903 -0.0105402)
(0.0111533 0.00100962 -0.00152618)
(0.0127605 0.0015662 0.000139888)
(0.0110641 0.00111985 0.000560089)
(0.0103665 -0.000174798 0.000910507)
(0.00987644 -0.00168361 0.000640602)
(0.00726031 -0.00269302 0.00159328)
(0.00613486 -0.00399709 0.00216692)
(0.000661501 -0.00355649 0.002871)
(-0.00435514 -0.00597983 0.00323039)
(-0.0156159 -0.00893809 0.00556833)
(-0.026651 -0.013511 0.00442021)
(-0.0446574 -0.0187348 0.00355851)
(-0.0613449 -0.0205153 0.00319976)
(-0.0898307 -0.0213481 0.00198569)
(-0.101616 -0.00687233 -0.000401678)
(-0.136264 -0.0107839 -0.004233)
(-0.121196 -0.016019 0.00300075)
(-0.167281 -0.0338637 -0.0162999)
(-0.112833 -0.0210883 -0.0135326)
(-0.043234 -0.0227544 -0.0320643)
(-0.0799848 -0.00352244 -0.0158888)
(-0.0758989 -0.00322989 -0.032843)
(-0.101756 0.00361924 -0.0430109)
(-0.0918618 0.0115688 -0.0538628)
(-0.0821176 0.0228274 -0.0583409)
(-0.045905 0.0347919 -0.0551445)
(-0.0150908 0.0434045 -0.0502152)
(0.0350082 0.058312 -0.0328784)
(0.0854524 0.0448362 -0.0353083)
(0.122714 0.0385213 -0.0244064)
(0.136114 0.0281535 -0.01102)
(0.133265 0.0133052 -0.00433193)
(0.115332 0.00522748 0.00302783)
(0.0912795 -0.00296984 0.00503874)
(0.0681076 -0.00609515 0.00912975)
(0.0443644 -0.0055465 0.00926277)
(0.0245028 -0.00348745 0.00823309)
(0.00522042 -0.00223496 0.00626101)
(-0.0106232 0.0198419 -0.00858151)
(6.50938e-05 -0.00181976 -0.00935457)
(0.00946651 0.00313836 -0.00482545)
(0.0167569 0.00456213 -0.00275801)
(0.0201864 0.00674724 -0.00303233)
(0.020877 0.00713808 -0.00277661)
(0.0201502 0.00936552 -0.00426832)
(0.0138852 0.0103729 -0.00379634)
(0.00766742 0.0151331 -0.00668271)
(-0.0100513 0.0165353 -0.0058545)
(-0.0334448 0.0204244 -0.00953753)
(-0.0677306 0.0265978 -0.000746732)
(-0.107378 0.0355695 -0.00623472)
(-0.154341 0.0506846 -0.00859788)
(-0.201891 0.0627114 -0.0134584)
(-0.252322 0.0707988 -0.0195045)
(-0.310483 0.0772088 -0.0460117)
(-0.402357 0.0766221 -0.0616412)
(-0.434992 0.0824821 -0.0787717)
(-0.500808 0.0845365 -0.0912614)
(-0.417428 0.116956 -0.0822384)
(-0.321133 0.139942 -0.120488)
(-0.344942 0.18902 -0.122737)
(-0.329129 0.207416 -0.13809)
(-0.327502 0.231566 -0.150567)
(-0.284572 0.252429 -0.158931)
(-0.239181 0.274284 -0.161458)
(-0.167548 0.29119 -0.151353)
(-0.096212 0.300591 -0.131003)
(-0.0304536 0.307339 -0.108104)
(0.0378771 0.289184 -0.0659906)
(0.112358 0.252965 -0.0469634)
(0.142327 0.202873 -0.0355038)
(0.1555 0.153548 -0.0251323)
(0.146913 0.105502 -0.00970549)
(0.122478 0.0654653 -0.00244553)
(0.098753 0.0387975 0.00229501)
(0.0698609 0.0246014 0.00310369)
(0.041609 0.0159343 0.00372738)
(0.0106558 0.0088362 0.0047527)
(-0.00228784 0.0234068 -0.000264281)
(0.00586386 0.00221717 -0.00518349)
(0.0144996 0.00511178 -0.00519436)
(0.0220188 0.0111214 -0.00597639)
(0.0232145 0.0188603 -0.00744448)
(0.0214333 0.0276182 -0.00816479)
(0.0153593 0.0390354 -0.0101691)
(0.00265387 0.0531148 -0.00882812)
(-0.0169919 0.0708039 -0.00384581)
(-0.0502873 0.0864475 -0.00643207)
(-0.0843243 0.111294 -0.00946728)
(-0.132484 0.137805 -0.0137928)
(-0.18287 0.167957 -0.019854)
(-0.254276 0.194604 -0.0328783)
(-0.334155 0.21344 -0.0381791)
(-0.422328 0.225423 -0.04578)
(-0.490334 0.229666 -0.0641554)
(-0.566163 0.244653 -0.0833721)
(-0.591265 0.278241 -0.101162)
(-0.643948 0.3161 -0.111617)
(-0.540014 0.350581 -0.0930432)
(-0.415548 0.397019 -0.121868)
(-0.421534 0.451559 -0.114262)
(-0.394109 0.47995 -0.11773)
(-0.384 0.510958 -0.122807)
(-0.335706 0.530248 -0.123402)
(-0.289592 0.544195 -0.119375)
(-0.222076 0.545707 -0.104918)
(-0.161238 0.537248 -0.0823613)
(-0.0963951 0.515541 -0.0588161)
(-0.0452485 0.49266 -0.0377473)
(0.000504269 0.437186 -0.0242774)
(0.0386959 0.365842 -0.00949261)
(0.0658765 0.293225 -0.0075636)
(0.0721944 0.219432 -0.00726271)
(0.0719775 0.156882 -0.00836792)
(0.0689707 0.110022 -0.00361765)
(0.0551705 0.0770454 -0.00153211)
(0.0381586 0.0513901 0.00155327)
(0.0118658 0.0276245 0.00460157)
(-0.00156928 0.0263625 4.82343e-05)
(0.00625511 0.0084193 -0.00423943)
(0.0153676 0.0152311 -0.00633201)
(0.019673 0.0299276 -0.00865982)
(0.0190981 0.0499969 -0.00921087)
(0.0138001 0.0721337 -0.0106429)
(0.00370464 0.100203 -0.00647252)
(-0.0170682 0.132671 -0.00770846)
(-0.0486258 0.166601 -0.0112594)
(-0.0902327 0.203539 -0.0141645)
(-0.136189 0.243497 -0.0205744)
(-0.199217 0.279089 -0.0263543)
(-0.271486 0.30622 -0.0295768)
(-0.354066 0.318297 -0.0307082)
(-0.427732 0.335494 -0.0341366)
(-0.497881 0.354023 -0.0406011)
(-0.550439 0.382739 -0.0575812)
(-0.611595 0.410755 -0.0681404)
(-0.623779 0.458452 -0.0788681)
(-0.667934 0.506609 -0.0747056)
(-0.545456 0.532592 -0.0312218)
(-0.398459 0.571624 -0.0436256)
(-0.396045 0.607044 -0.0286594)
(-0.367655 0.611707 -0.0248545)
(-0.35906 0.62416 -0.0243241)
(-0.3198 0.621426 -0.0211825)
(-0.2851 0.612686 -0.0178699)
(-0.233946 0.590331 -0.0104173)
(-0.189631 0.562969 0.00129161)
(-0.143824 0.527925 0.00848686)
(-0.115025 0.487163 0.0132128)
(-0.0859499 0.444451 0.0116466)
(-0.0619819 0.388219 0.00563794)
(-0.0340415 0.323987 -0.00170514)
(-0.012125 0.258482 -0.00418824)
(0.00696723 0.198363 -0.00441673)
(0.0249766 0.14646 -0.005348)
(0.0289748 0.112619 -0.00499221)
(0.0281241 0.0770166 -0.000234488)
(0.0107058 0.0403574 0.00390859)
(-0.00238976 0.0304973 -0.00202526)
(0.00639868 0.0232679 -0.00705316)
(0.0203918 0.0400867 -0.0110232)
(0.0272936 0.0699331 -0.0109129)
(0.023486 0.102866 -0.0118187)
(0.0143304 0.144873 -0.0142964)
(-0.00097071 0.191769 -0.0110121)
(-0.0309488 0.242133 -0.00853288)
(-0.070322 0.294192 -0.00947616)
(-0.119332 0.339136 -0.0122128)
(-0.173524 0.373698 -0.0159712)
(-0.244993 0.393213 -0.0187506)
(-0.317751 0.410718 -0.0197965)
(-0.386307 0.427782 -0.0222842)
(-0.442423 0.452637 -0.0238094)
(-0.501697 0.479814 -0.027264)
(-0.540847 0.508545 -0.0325005)
(-0.583355 0.539146 -0.0312079)
(-0.574384 0.597694 -0.0254674)
(-0.604961 0.645219 -0.0263371)
(-0.479532 0.667833 0.0213858)
(-0.324778 0.682897 0.0202231)
(-0.322777 0.686503 0.0392514)
(-0.303641 0.654212 0.0400926)
(-0.309025 0.63896 0.0394652)
(-0.288971 0.610305 0.0427493)
(-0.27431 0.579157 0.0458884)
(-0.241513 0.539397 0.0511679)
(-0.217345 0.498008 0.0442344)
(-0.190207 0.456239 0.0349286)
(-0.170252 0.411163 0.0242388)
(-0.156099 0.377426 0.0148801)
(-0.146916 0.341491 0.00869187)
(-0.124145 0.310539 -0.00211332)
(-0.0989602 0.270059 -0.00919032)
(-0.0675796 0.207131 -0.0110783)
(-0.0248267 0.15948 -0.00970288)
(0.000112879 0.130342 -0.00926168)
(0.0130719 0.0955016 -0.00168449)
(0.00905399 0.0476494 0.0037196)
(-0.000326215 0.0385576 -0.00319772)
(0.013361 0.0455985 -0.0104204)
(0.0325734 0.0785422 -0.0124049)
(0.0362984 0.127556 -0.0126771)
(0.0325877 0.178337 -0.0188662)
(0.0241517 0.237037 -0.0171873)
(0.004917 0.302125 -0.0114904)
(-0.0270214 0.358131 -0.00571402)
(-0.0769389 0.401852 -0.007246)
(-0.141328 0.430348 -0.0099672)
(-0.209441 0.451484 -0.012709)
(-0.274671 0.467701 -0.0129079)
(-0.328153 0.489675 -0.0114474)
(-0.379889 0.512913 -0.00853324)
(-0.417452 0.53618 -0.00349985)
(-0.458659 0.558688 -0.000112853)
(-0.475469 0.586302 0.00218743)
(-0.488945 0.615681 0.00448821)
(-0.472212 0.669971 0.00290397)
(-0.490495 0.707444 0.0120324)
(-0.368672 0.713268 0.0563511)
(-0.236158 0.682115 0.0590021)
(-0.252962 0.653651 0.0791407)
(-0.253624 0.588844 0.0837179)
(-0.271452 0.553468 0.0835994)
(-0.270661 0.510241 0.0808561)
(-0.271296 0.471904 0.0774447)
(-0.258588 0.429884 0.0688031)
(-0.24629 0.385591 0.0629586)
(-0.233241 0.346319 0.0436012)
(-0.224142 0.305179 0.0303154)
(-0.207682 0.272236 0.0172037)
(-0.193353 0.248972 0.00345528)
(-0.174082 0.237669 -0.00379665)
(-0.172203 0.223526 -0.0154602)
(-0.140955 0.184857 -0.0125581)
(-0.0667084 0.150883 -0.0104849)
(-0.0201431 0.12848 -0.0095834)
(0.00450654 0.0995344 -0.00354936)
(0.00573756 0.0475619 0.00511519)
(0.00292528 0.0467546 -0.00391046)
(0.02713 0.0650269 -0.0127207)
(0.0589217 0.10679 -0.0156255)
(0.0679097 0.166776 -0.0180173)
(0.0597156 0.231911 -0.0254205)
(0.0506255 0.301002 -0.0210258)
(0.0216561 0.366797 -0.0121043)
(-0.0354312 0.399756 -0.0030144)
(-0.100849 0.430874 -0.00700085)
(-0.160745 0.456054 -0.00815117)
(-0.208333 0.484378 -0.00829038)
(-0.255168 0.514495 -0.00623852)
(-0.294608 0.543868 -0.00249254)
(-0.332362 0.568333 0.00182273)
(-0.358765 0.592486 0.00712747)
(-0.381863 0.609731 0.0118566)
(-0.381531 0.632871 0.0206526)
(-0.384881 0.640788 0.0237547)
(-0.352212 0.658055 0.0244396)
(-0.36544 0.673842 0.0198826)
(-0.295317 0.664602 0.0551612)
(-0.184244 0.569303 0.0617725)
(-0.202122 0.534315 0.0775198)
(-0.216578 0.465516 0.0832384)
(-0.245232 0.434439 0.0819518)
(-0.261375 0.397382 0.0801218)
(-0.277449 0.369764 0.0760089)
(-0.282023 0.338133 0.0656837)
(-0.283889 0.30621 0.0494152)
(-0.282877 0.272961 0.0315613)
(-0.280453 0.241951 0.0151221)
(-0.268042 0.215342 0.00154458)
(-0.250414 0.195128 -0.0067176)
(-0.223235 0.183362 -0.0108985)
(-0.214469 0.184145 -0.0158711)
(-0.183865 0.178599 -0.0179638)
(-0.100577 0.155125 -0.0161733)
(-0.0337803 0.13415 -0.0135245)
(0.000656324 0.105591 -0.00677107)
(0.00638184 0.0510346 0.00365682)
(0.00459021 0.0581161 -0.00578592)
(0.0353811 0.0859811 -0.0164683)
(0.0782546 0.131914 -0.0173659)
(0.0934405 0.190597 -0.0144286)
(0.0899591 0.252003 -0.0183667)
(0.0723303 0.326601 -0.0112686)
(0.018015 0.36016 -0.00148448)
(-0.0403219 0.39177 -0.000580355)
(-0.0858787 0.434064 -0.00254684)
(-0.134026 0.47225 -0.00190078)
(-0.175678 0.507171 -0.00126416)
(-0.214405 0.534452 0.00327329)
(-0.243746 0.556143 0.00894001)
(-0.267771 0.571891 0.0156466)
(-0.281096 0.585325 0.0198887)
(-0.294704 0.588059 0.0255166)
(-0.292366 0.59052 0.0295594)
(-0.293588 0.572632 0.0299173)
(-0.267002 0.565541 0.0272509)
(-0.274219 0.530772 0.0127943)
(-0.254453 0.532361 0.0324979)
(-0.16798 0.412815 0.0437309)
(-0.170602 0.392137 0.0527668)
(-0.19828 0.341408 0.0636525)
(-0.231897 0.323877 0.0650516)
(-0.262175 0.299916 0.066993)
(-0.287354 0.284101 0.0664255)
(-0.304903 0.262487 0.0554529)
(-0.319308 0.24144 0.0411724)
(-0.327349 0.214906 0.0165026)
(-0.327961 0.18912 0.00658896)
(-0.313878 0.168351 -0.00525762)
(-0.29652 0.155416 -0.0144363)
(-0.263085 0.149326 -0.016326)
(-0.249845 0.153713 -0.0203281)
(-0.221739 0.175408 -0.0184113)
(-0.135325 0.156179 -0.0174303)
(-0.0510383 0.139356 -0.0121783)
(-0.00229346 0.10905 -0.00694812)
(0.00619632 0.0517698 0.00459751)
(0.00389779 0.0767487 -0.00766177)
(0.0423131 0.117541 -0.0194596)
(0.0980346 0.172251 -0.0199377)
(0.119761 0.228361 -0.0141503)
(0.124397 0.289964 -0.0162782)
(0.08647 0.347036 -0.0107471)
(0.0259337 0.372811 -0.000119058)
(-0.011938 0.412801 0.00361276)
(-0.0561704 0.453027 0.00301268)
(-0.0996965 0.489902 0.005616)
(-0.134862 0.512842 0.00881054)
(-0.166104 0.527439 0.0128616)
(-0.185693 0.536537 0.0211693)
(-0.201967 0.535003 0.0254199)
(-0.21313 0.525512 0.028065)
(-0.222725 0.503846 0.029214)
(-0.223913 0.482358 0.0287671)
(-0.227461 0.445219 0.0248151)
(-0.222673 0.422045 0.0182238)
(-0.223164 0.368292 0.00394127)
(-0.240639 0.373922 0.00378965)
(-0.181926 0.285231 0.0235492)
(-0.153635 0.273692 0.0274588)
(-0.191014 0.248753 0.0420241)
(-0.22594 0.242881 0.0472934)
(-0.265334 0.230318 0.0546473)
(-0.297779 0.221721 0.0571444)
(-0.325602 0.207796 0.0483104)
(-0.349742 0.191445 0.0306989)
(-0.364636 0.167659 0.012959)
(-0.366109 0.14866 0.00268369)
(-0.353893 0.131241 0.00114473)
(-0.335941 0.11859 -0.00604503)
(-0.302783 0.120915 -0.0162951)
(-0.267482 0.126112 -0.0250945)
(-0.242836 0.160495 -0.0260691)
(-0.167721 0.159274 -0.0200206)
(-0.0645426 0.147033 -0.018482)
(-0.00591909 0.114554 -0.00896303)
(0.00790348 0.0554656 0.00284094)
(0.00267492 0.0975068 -0.00889981)
(0.0497644 0.157757 -0.0223653)
(0.117056 0.218766 -0.0231472)
(0.147248 0.271852 -0.0156254)
(0.147215 0.330746 -0.0161788)
(0.102556 0.360851 -0.00952749)
(0.0449792 0.401161 0.000506513)
(0.0128863 0.433388 0.00997884)
(-0.0193923 0.459948 0.0114917)
(-0.0589323 0.485044 0.0166815)
(-0.094336 0.501257 0.01742)
(-0.12024 0.504008 0.026615)
(-0.138411 0.494748 0.0318077)
(-0.154713 0.469351 0.0360056)
(-0.1661 0.437283 0.0357063)
(-0.177825 0.395822 0.0330344)
(-0.186161 0.356543 0.0277202)
(-0.192358 0.310389 0.0212646)
(-0.199412 0.279833 0.0120003)
(-0.198427 0.23878 0.00122919)
(-0.227945 0.234465 -0.00932474)
(-0.185976 0.199535 0.00925828)
(-0.142041 0.193391 0.0121812)
(-0.181501 0.185332 0.0275601)
(-0.215251 0.182775 0.0369665)
(-0.261104 0.176753 0.0481272)
(-0.296491 0.170709 0.0531843)
(-0.33203 0.160543 0.0433532)
(-0.362597 0.144854 0.0319357)
(-0.378455 0.125809 0.0249761)
(-0.386902 0.103975 0.0220336)
(-0.38116 0.0851387 0.0206885)
(-0.362413 0.0699419 0.0162646)
(-0.330119 0.0720169 0.00758964)
(-0.293696 0.0827169 -0.00593617)
(-0.262568 0.121767 -0.0238008)
(-0.190242 0.148133 -0.0205301)
(-0.0866035 0.143162 -0.0149274)
(-0.0111799 0.118523 -0.00811575)
(0.00902236 0.057228 0.00388243)
(0.00338826 0.122294 -0.00975591)
(0.0586792 0.205399 -0.0277248)
(0.136044 0.268218 -0.0272013)
(0.173687 0.319852 -0.0175854)
(0.165902 0.36274 -0.0134654)
(0.122312 0.386526 -0.0108413)
(0.0779594 0.423666 0.000304029)
(0.0411178 0.45142 0.0137299)
(0.0116069 0.46728 0.0217588)
(-0.0211499 0.476342 0.0228373)
(-0.0544163 0.478373 0.0294141)
(-0.0822468 0.469002 0.0367031)
(-0.104237 0.444164 0.0403495)
(-0.123279 0.403444 0.0416946)
(-0.13878 0.355248 0.0400792)
(-0.152896 0.303766 0.0341925)
(-0.166119 0.259308 0.0255645)
(-0.175246 0.216752 0.0169193)
(-0.186429 0.187514 0.00698579)
(-0.188069 0.162698 -0.00379404)
(-0.215311 0.151892 -0.0139231)
(-0.174003 0.146746 0.00123372)
(-0.128587 0.143712 0.00453524)
(-0.166737 0.138796 0.019574)
(-0.197655 0.13522 0.0320573)
(-0.244299 0.128665 0.0437305)
(-0.283914 0.125022 0.048077)
(-0.321784 0.114223 0.0422518)
(-0.355588 0.100382 0.0448037)
(-0.384174 0.0783581 0.0455141)
(-0.40108 0.0556385 0.0455098)
(-0.404321 0.0381158 0.0341367)
(-0.389479 0.0279253 0.0305131)
(-0.357564 0.0270062 0.0201994)
(-0.305613 0.040817 0.00716901)
(-0.268631 0.0758582 -0.0112872)
(-0.206371 0.120488 -0.0226734)
(-0.0977009 0.13504 -0.0161073)
(-0.0126934 0.115297 -0.00838871)
(0.00926797 0.0572316 0.0031517)
(0.0046317 0.145706 -0.00969818)
(0.0650495 0.24879 -0.0303762)
(0.152196 0.315149 -0.0294985)
(0.191263 0.359269 -0.0158778)
(0.180882 0.386427 -0.00925045)
(0.144748 0.411673 -0.00720755)
(0.106503 0.436294 0.00343055)
(0.0704531 0.455496 0.0131821)
(0.0383212 0.464515 0.0210495)
(0.00797878 0.459671 0.0337994)
(-0.0214591 0.448606 0.0376374)
(-0.0536865 0.425782 0.0415699)
(-0.082473 0.389407 0.0442378)
(-0.106135 0.338732 0.0435406)
(-0.125023 0.285714 0.0388647)
(-0.140195 0.231567 0.0321207)
(-0.154286 0.188311 0.0214008)
(-0.163585 0.152211 0.012364)
(-0.173695 0.128022 0.00315711)
(-0.177391 0.11348 -0.00681439)
(-0.197735 0.102384 -0.0137335)
(-0.151533 0.111188 -0.00174939)
(-0.109578 0.103187 0.000836796)
(-0.141346 0.096015 0.0153962)
(-0.169079 0.0880304 0.0277846)
(-0.214007 0.0805634 0.0394212)
(-0.250712 0.0744989 0.0429584)
(-0.292051 0.063957 0.0529561)
(-0.333267 0.0497973 0.0595471)
(-0.365255 0.0314202 0.0665317)
(-0.386358 0.00772357 0.0658194)
(-0.397096 -0.017976 0.0566107)
(-0.399782 -0.0364498 0.0327754)
(-0.379565 -0.0363645 0.0241259)
(-0.340396 -0.0220136 0.0215771)
(-0.29318 0.0190043 0.0149388)
(-0.218795 0.0803548 -0.0145324)
(-0.116505 0.118947 -0.0183259)
(-0.019711 0.112414 -0.00801101)
(0.0120767 0.0583424 0.00261734)
(0.00490949 0.167783 -0.00725822)
(0.0711052 0.290976 -0.0306187)
(0.16326 0.359501 -0.0296938)
(0.203579 0.391215 -0.0131778)
(0.199097 0.410575 -0.00296135)
(0.167395 0.43205 0.00131827)
(0.13177 0.446659 0.00625295)
(0.0972362 0.455033 0.0161438)
(0.0634238 0.456877 0.0249903)
(0.0319695 0.446306 0.0350872)
(0.0017628 0.420885 0.0467718)
(-0.0320026 0.385601 0.0454125)
(-0.0667901 0.340302 0.0439925)
(-0.0966277 0.285121 0.0407233)
(-0.118404 0.229351 0.0348479)
(-0.133711 0.177926 0.027026)
(-0.146658 0.136185 0.0163557)
(-0.153884 0.104582 0.00767615)
(-0.159993 0.0828263 0.000173484)
(-0.162718 0.0710562 -0.00797944)
(-0.168564 0.0614751 -0.010331)
(-0.118581 0.0817841 -0.00269688)
(-0.08511 0.0626319 -0.000389187)
(-0.109635 0.0509301 0.0118914)
(-0.132051 0.0372785 0.0228791)
(-0.172456 0.0326543 0.032078)
(-0.207977 0.0272243 0.050272)
(-0.247497 0.0162406 0.0604261)
(-0.287526 -0.00105109 0.0700724)
(-0.333681 -0.0248938 0.0689932)
(-0.378844 -0.0567768 0.060489)
(-0.412581 -0.0899499 0.0498657)
(-0.416526 -0.119988 0.0356514)
(-0.400286 -0.132664 0.011212)
(-0.353031 -0.117126 -0.000737812)
(-0.300745 -0.068963 0.00196737)
(-0.231663 0.0194135 0.0104773)
(-0.12407 0.0770742 -0.0188299)
(-0.0225615 0.0955627 -0.00584571)
(0.0113401 0.0516408 0.00339051)
(0.00550614 0.179592 -0.00465107)
(0.0722439 0.320479 -0.0304737)
(0.164392 0.389888 -0.0301478)
(0.208547 0.414361 -0.0120459)
(0.214502 0.426918 0.00308471)
(0.188699 0.440133 0.0107339)
(0.150512 0.448023 0.0157563)
(0.117859 0.449426 0.019037)
(0.0857155 0.444437 0.0293727)
(0.0492949 0.426193 0.0373944)
(0.0157329 0.394025 0.0461905)
(-0.020675 0.347201 0.0485573)
(-0.0598122 0.295297 0.0406745)
(-0.0934267 0.238407 0.0344735)
(-0.117321 0.182859 0.0282689)
(-0.131623 0.133191 0.0204757)
(-0.141162 0.0939147 0.0110774)
(-0.144075 0.0638839 0.00390762)
(-0.144187 0.0417103 -0.00154394)
(-0.140702 0.0308209 -0.00657643)
(-0.123708 0.021591 -0.00562658)
(-0.0775258 0.0373811 -0.00426359)
(-0.061117 0.0115491 -0.00141276)
(-0.073378 -0.000822734 0.00834331)
(-0.0857101 -0.0133932 0.015231)
(-0.114573 -0.0213408 0.0306819)
(-0.148563 -0.031794 0.0439173)
(-0.193543 -0.046844 0.0559981)
(-0.245312 -0.0682971 0.0596549)
(-0.299518 -0.097797 0.058373)
(-0.353447 -0.127009 0.0528931)
(-0.394766 -0.158014 0.0420163)
(-0.418181 -0.185948 0.0262444)
(-0.409756 -0.206489 0.0138766)
(-0.374105 -0.201603 -0.00854644)
(-0.309036 -0.162245 -0.00752288)
(-0.241829 -0.0690647 -0.00595519)
(-0.1466 0.0442204 -0.002437)
(-0.0264062 0.0781168 -0.0167293)
(0.0141989 0.0510778 0.00329329)
(0.0059793 0.189117 0.000312955)
(0.0723797 0.343126 -0.0279238)
(0.162934 0.415307 -0.0301467)
(0.212518 0.436987 -0.0106946)
(0.228201 0.44171 0.00906187)
(0.206777 0.443778 0.0219788)
(0.17123 0.446662 0.0283425)
(0.137899 0.445814 0.0312336)
(0.101531 0.434257 0.0329537)
(0.0629513 0.409993 0.0366721)
(0.0233355 0.372223 0.0436378)
(-0.0164245 0.319571 0.0451505)
(-0.0560607 0.260689 0.0363888)
(-0.092525 0.199428 0.0253293)
(-0.118279 0.144506 0.0197261)
(-0.131136 0.0976686 0.014973)
(-0.135483 0.0597857 0.00733696)
(-0.134131 0.0293547 0.00173168)
(-0.125088 0.00715171 -0.00150719)
(-0.113191 -0.011931 -0.00511724)
(-0.0832168 -0.0191889 -0.000841827)
(-0.0418348 -0.0245043 -0.00228273)
(-0.0296678 -0.0512284 0.000128794)
(-0.0296711 -0.0656985 0.00416221)
(-0.039848 -0.084028 0.012944)
(-0.0687783 -0.0944356 0.0265405)
(-0.100588 -0.107076 0.0393768)
(-0.141229 -0.124558 0.0464079)
(-0.189829 -0.142053 0.0506997)
(-0.247064 -0.162667 0.0504299)
(-0.306115 -0.188521 0.0461098)
(-0.361495 -0.220529 0.0372632)
(-0.399232 -0.254168 0.0247126)
(-0.411192 -0.281045 0.00758251)
(-0.38218 -0.290893 -0.00883556)
(-0.32204 -0.255339 -0.0213215)
(-0.232236 -0.178151 -0.0152974)
(-0.143506 -0.0297109 0.000149101)
(-0.0440702 0.047066 -0.00647221)
(0.0130814 0.0408653 0.00118829)
(0.00374568 0.177448 0.00107042)
(0.0656292 0.342752 -0.027519)
(0.15542 0.421022 -0.029656)
(0.209691 0.444378 -0.0102544)
(0.233881 0.445262 0.012572)
(0.223219 0.442286 0.026379)
(0.192781 0.441988 0.0347341)
(0.156004 0.43339 0.0391051)
(0.114801 0.416002 0.0386242)
(0.0703732 0.385354 0.0359444)
(0.0252017 0.339859 0.0336325)
(-0.0206367 0.282211 0.0337328)
(-0.0651144 0.21834 0.0244239)
(-0.0999694 0.157091 0.0171224)
(-0.119684 0.105908 0.0117832)
(-0.129238 0.0627394 0.00771508)
(-0.130846 0.0276365 0.00279332)
(-0.121702 -0.00102454 -0.00129629)
(-0.110671 -0.0322088 -0.00436347)
(-0.087052 -0.0601259 -0.00152696)
(-0.0484485 -0.0721928 -0.00145294)
(-0.017347 -0.0959776 -0.00528006)
(-0.0034909 -0.119902 -0.00313683)
(-0.000605048 -0.139499 0.00265007)
(-0.00230032 -0.158169 0.0113033)
(-0.0161074 -0.169795 0.0183552)
(-0.0460237 -0.177985 0.0248081)
(-0.0836671 -0.186632 0.0347806)
(-0.128011 -0.200793 0.0398806)
(-0.182967 -0.22006 0.0430737)
(-0.24475 -0.243051 0.042034)
(-0.306963 -0.275043 0.0372971)
(-0.358517 -0.312176 0.0259611)
(-0.388595 -0.350456 0.0106934)
(-0.380313 -0.370066 -0.0087995)
(-0.335537 -0.357221 -0.0238846)
(-0.246696 -0.277821 -0.0288869)
(-0.153621 -0.140885 -0.0138266)
(-0.0472182 0.0119988 -0.0116003)
(0.0120809 0.0284988 0.00254912)
(0.00592926 0.164121 0.00848303)
(0.0660155 0.337837 -0.0190231)
(0.152721 0.42205 -0.0229293)
(0.212827 0.443521 -0.00218189)
(0.247567 0.441 0.0207692)
(0.245791 0.433717 0.0308442)
(0.215173 0.426323 0.039661)
(0.173341 0.412655 0.0422582)
(0.124763 0.393131 0.0411953)
(0.0718213 0.360618 0.0354985)
(0.0189402 0.315498 0.0298113)
(-0.0297749 0.252505 0.0258234)
(-0.0709086 0.189704 0.0177109)
(-0.100199 0.132627 0.0107276)
(-0.117565 0.0816099 0.00395891)
(-0.123582 0.0361241 0.000257541)
(-0.119745 -0.00189812 -0.0031681)
(-0.11598 -0.0388448 -0.00621019)
(-0.103523 -0.0758968 -0.00172428)
(-0.0680026 -0.109226 0.000123498)
(-0.0304085 -0.137071 -0.00660155)
(0.00193922 -0.166706 -0.00682768)
(0.0221339 -0.189507 -0.00218438)
(0.0306497 -0.208143 0.00103252)
(0.0334117 -0.221058 0.00503381)
(0.0233373 -0.233 0.00989734)
(0.00514319 -0.240093 0.0161857)
(-0.0285312 -0.244222 0.0206833)
(-0.0729655 -0.251767 0.0291919)
(-0.12122 -0.265057 0.0349031)
(-0.180056 -0.287172 0.0376935)
(-0.244892 -0.320736 0.0357637)
(-0.304589 -0.360629 0.0285933)
(-0.348453 -0.407837 0.0148462)
(-0.359082 -0.441529 -0.00337611)
(-0.329015 -0.444011 -0.0203406)
(-0.251122 -0.383056 -0.0306506)
(-0.143835 -0.245892 -0.0253397)
(-0.0439948 -0.0572637 0.00277666)
(-0.000445734 0.0161372 0.00552735)
(-0.00124324 0.143315 0.00300118)
(0.0498336 0.321583 -0.0215562)
(0.135601 0.413151 -0.0272163)
(0.204695 0.440939 -0.00385425)
(0.25484 0.439036 0.0119412)
(0.265453 0.425645 0.0283291)
(0.240721 0.410621 0.0359077)
(0.196518 0.392777 0.0365641)
(0.142008 0.369514 0.0327509)
(0.0810947 0.335828 0.0264545)
(0.0148736 0.28244 0.0211977)
(-0.0422865 0.221877 0.0213083)
(-0.080182 0.16247 0.00853664)
(-0.108224 0.105324 -0.000408325)
(-0.12404 0.0535226 -0.00687128)
(-0.12772 0.00806179 -0.0102428)
(-0.124579 -0.0370455 -0.0115298)
(-0.114626 -0.0797242 -0.00694337)
(-0.098519 -0.11483 -0.00204744)
(-0.0638921 -0.156971 -0.00658272)
(-0.0202954 -0.188545 -0.00948132)
(0.0169636 -0.221734 -0.00634786)
(0.0423208 -0.247579 -0.00287106)
(0.0567393 -0.26629 -0.000197337)
(0.0654106 -0.280507 0.00182177)
(0.0638745 -0.293016 0.0042022)
(0.0515026 -0.298117 0.00662799)
(0.0262487 -0.3037 0.0106673)
(-0.00942356 -0.303836 0.0160547)
(-0.0580118 -0.313362 0.0215893)
(-0.116472 -0.326373 0.0288704)
(-0.178207 -0.3554 0.0322358)
(-0.241343 -0.397322 0.0284052)
(-0.295382 -0.454401 0.0174842)
(-0.3209 -0.50836 -0.00242147)
(-0.315417 -0.539894 -0.0226535)
(-0.261633 -0.498599 -0.0381854)
(-0.163082 -0.360057 -0.0332279)
(-0.0414228 -0.154354 -0.0117451)
(0.011968 -0.0101699 0.000962079)
(-0.00458669 0.138153 0.00949753)
(0.0375151 0.33075 -0.00826297)
(0.121646 0.428287 -0.0140021)
(0.197062 0.454378 0.000243019)
(0.256581 0.446628 0.0107771)
(0.275777 0.422172 0.0266297)
(0.256419 0.406367 0.0339771)
(0.211086 0.398854 0.0348171)
(0.149934 0.385103 0.0307877)
(0.0731216 0.354909 0.0244915)
(-0.00073751 0.30286 0.0257989)
(-0.0518498 0.250569 0.0249787)
(-0.089432 0.192854 0.00912655)
(-0.11493 0.131154 -0.00184317)
(-0.125981 0.0723333 -0.0103881)
(-0.129942 0.00935413 -0.0169064)
(-0.126442 -0.0464662 -0.016961)
(-0.113477 -0.097335 -0.0122266)
(-0.0997653 -0.142398 -0.0117915)
(-0.0603166 -0.184054 -0.0150006)
(-0.0142494 -0.214737 -0.0126631)
(0.022771 -0.249511 -0.00744252)
(0.0568958 -0.282057 -0.00490231)
(0.0777808 -0.311115 -0.00385886)
(0.0894905 -0.328976 -0.00285974)
(0.0934702 -0.340113 -0.000344019)
(0.0905676 -0.344282 0.0012483)
(0.074184 -0.349547 0.00270605)
(0.0430752 -0.351861 0.00578355)
(0.005119 -0.361416 0.0109489)
(-0.0441811 -0.374122 0.0141454)
(-0.108817 -0.401867 0.0165847)
(-0.179193 -0.443778 0.0172494)
(-0.246922 -0.513087 0.0102059)
(-0.294372 -0.59051 -0.00353307)
(-0.299041 -0.65254 -0.0208035)
(-0.24407 -0.643817 -0.0401804)
(-0.160642 -0.505158 -0.0473371)
(-0.0467343 -0.273788 -0.0186301)
(0.0117553 -0.0609987 0.00770205)
(-0.0159865 0.226136 -0.00154658)
(0.0139572 0.451686 -0.0182029)
(0.0929904 0.558614 -0.0203188)
(0.169799 0.590658 -0.00786984)
(0.238129 0.581992 0.00649294)
(0.280738 0.547194 0.0248536)
(0.291797 0.521776 0.0320769)
(0.25681 0.502687 0.029956)
(0.181583 0.474471 0.0223144)
(0.0842889 0.429917 0.0161883)
(-0.00059463 0.376598 0.0178706)
(-0.060577 0.319641 0.0160292)
(-0.106943 0.250678 0.000430232)
(-0.137643 0.175213 -0.0122328)
(-0.158393 0.0954666 -0.0234751)
(-0.162906 0.0197198 -0.0276219)
(-0.149827 -0.0461951 -0.0312695)
(-0.130351 -0.106889 -0.0253212)
(-0.106425 -0.156424 -0.0251738)
(-0.0586444 -0.193434 -0.027511)
(-0.00994824 -0.223851 -0.025098)
(0.0237167 -0.253263 -0.0153324)
(0.0539293 -0.284753 -0.00856694)
(0.0833132 -0.316038 -0.00475181)
(0.112021 -0.338797 -0.00323748)
(0.12837 -0.348807 -0.00275052)
(0.128808 -0.352666 -0.00346198)
(0.116497 -0.360642 -0.0024892)
(0.0927855 -0.368659 0.000307953)
(0.0563332 -0.385838 0.00331361)
(0.00868168 -0.413833 0.0086171)
(-0.0476556 -0.458137 0.0108296)
(-0.121263 -0.500099 0.0107326)
(-0.202795 -0.572917 0.00838647)
(-0.263666 -0.656105 -0.000816405)
(-0.292296 -0.744781 -0.0173628)
(-0.245236 -0.767244 -0.0323762)
(-0.170552 -0.67938 -0.0501157)
(-0.0499188 -0.386319 -0.0182042)
(0.0224902 -0.116453 0.0105463)
(-0.013944 0.247615 0.0052686)
(0.00892271 0.484596 -0.0261202)
(0.0818828 0.607016 -0.0321202)
(0.163528 0.658625 -0.0277971)
(0.23174 0.663042 -0.0166979)
(0.281343 0.636422 0.00244741)
(0.297529 0.596718 0.0115434)
(0.250066 0.547097 0.0141456)
(0.16289 0.49432 0.0127155)
(0.0620281 0.440471 0.0116483)
(-0.0232393 0.385008 0.0153273)
(-0.0886731 0.325162 0.0135857)
(-0.144255 0.253056 0.000111797)
(-0.181519 0.173222 -0.0110778)
(-0.194732 0.0933829 -0.0203436)
(-0.187293 0.0201166 -0.0324512)
(-0.17147 -0.0481159 -0.0399971)
(-0.144439 -0.110827 -0.0405402)
(-0.109635 -0.160908 -0.0388434)
(-0.0537835 -0.19924 -0.0390324)
(-0.00236586 -0.231606 -0.0362327)
(0.0318845 -0.258334 -0.029065)
(0.0631951 -0.278188 -0.0208803)
(0.0931075 -0.294555 -0.0133602)
(0.127846 -0.308102 -0.00808466)
(0.154244 -0.312824 -0.0026231)
(0.15937 -0.307719 -0.000328694)
(0.148532 -0.3073 0.00064331)
(0.12334 -0.310433 0.00340452)
(0.0878916 -0.331353 0.00745602)
(0.0419019 -0.363478 0.0133554)
(0.000332575 -0.431811 0.0171773)
(-0.0588393 -0.518408 0.013401)
(-0.138545 -0.635435 0.0091662)
(-0.216365 -0.752595 0.00325597)
(-0.2632 -0.872585 -0.00776972)
(-0.245723 -0.922772 -0.0251177)
(-0.155918 -0.87034 -0.0369044)
(-0.0512045 -0.575753 -0.0434309)
(-0.00154549 -0.1842 0.0292981)
(-0.00685457 0.218903 0.013065)
(0.0159854 0.442921 -0.0178595)
(0.0739346 0.57088 -0.0285885)
(0.147316 0.629098 -0.0245829)
(0.213588 0.637053 -0.0146442)
(0.262513 0.617574 0.00149621)
(0.279338 0.574085 0.0136966)
(0.237391 0.519652 0.0189974)
(0.156013 0.470661 0.0208094)
(0.05465 0.422672 0.0205565)
(-0.0371646 0.377283 0.0230627)
(-0.11207 0.322205 0.0193986)
(-0.176143 0.259132 0.00687276)
(-0.213179 0.188125 -0.00634244)
(-0.227369 0.118585 -0.0235509)
(-0.221045 0.0419347 -0.0384314)
(-0.199278 -0.0310168 -0.0522754)
(-0.16448 -0.0927598 -0.0568055)
(-0.119452 -0.146087 -0.0552974)
(-0.0571641 -0.188576 -0.0515279)
(0.0004038 -0.227427 -0.0453558)
(0.0447889 -0.255207 -0.0380578)
(0.0846181 -0.271821 -0.0319711)
(0.120517 -0.279742 -0.0264975)
(0.162152 -0.279351 -0.0230148)
(0.199985 -0.279048 -0.015028)
(0.210613 -0.270237 -0.00595675)
(0.198233 -0.262075 -0.00116345)
(0.165913 -0.254924 -0.00020174)
(0.120641 -0.263355 0.00515087)
(0.0558824 -0.277996 0.0142782)
(-0.0143985 -0.333058 0.0229543)
(-0.0894943 -0.409082 0.0300944)
(-0.156559 -0.5384 0.0329729)
(-0.205447 -0.701178 0.027539)
(-0.240351 -0.878727 0.0183707)
(-0.231473 -0.999777 0.000515207)
(-0.160509 -1.01505 -0.0221866)
(-0.0248286 -0.795428 -0.0376996)
(0.0331818 -0.336192 -0.00324203)
(-0.00480215 0.194191 0.0130715)
(0.0205406 0.395039 -0.00982347)
(0.076804 0.525447 -0.0205175)
(0.144118 0.589549 -0.0179058)
(0.207719 0.606522 -0.00745988)
(0.253045 0.591903 0.00794248)
(0.263315 0.553151 0.0205502)
(0.220668 0.499848 0.0275437)
(0.140984 0.448631 0.0303977)
(0.0445945 0.399318 0.0314575)
(-0.047563 0.360841 0.0299382)
(-0.128918 0.315765 0.0252438)
(-0.197848 0.265341 0.0145337)
(-0.239414 0.208381 -0.000692139)
(-0.257307 0.141566 -0.0183978)
(-0.253348 0.0700389 -0.0395193)
(-0.223793 -0.00236364 -0.0562741)
(-0.179936 -0.0643107 -0.0702783)
(-0.129655 -0.116908 -0.0685184)
(-0.0630759 -0.163211 -0.0626036)
(-9.86071e-06 -0.205238 -0.0536326)
(0.05454 -0.237872 -0.0459873)
(0.104871 -0.256191 -0.0395458)