/*--------------------------------*- C++ -*----------------------------------*\
| =========                 |                                                 |
| \\      /  F ield         | OpenFOAM: The Open Source CFD Toolbox           |
|  \\    /   O peration     | Version:  v1806                                 |
|   \\  /    A nd           | Web:      www.OpenFOAM.com                      |
|    \\/     M anipulation  |                                                 |
\*---------------------------------------------------------------------------*/
FoamFile
{
    version     2.0;
    format      ascii;
    class       vectorField;
    location    "0.037";
    object      currentcloudofpoints;
}
// * * * * * * * * * * * * * * * * * * * * * * * * * * * * * * * * * * * * * //


2409
(
(0.738049 1.25698 0.999889)
(0.856356 0.795158 0.999839)
(1.19198 1.35729 0.999637)
(1.00043 1.05655 0.730961)
(1.00144 1.0564 1.26958)
(1.06579 1.08347 1.00003)
(0.571064 1.3657 0.999663)
(0.731548 0.636079 1.00052)
(1.27073 1.54066 0.999953)
(0.98142 1.04942 0.551623)
(0.979131 1.05167 1.44543)
(1.18407 1.34066 1.08823)
(1.15733 1.29781 1.16658)
(1.11317 1.23379 1.2276)
(1.05842 1.14799 1.2669)
(1.18848 1.35007 1.04396)
(1.1718 1.31943 1.12774)
(1.13573 1.26647 1.1969)
(1.08534 1.1928 1.24829)
(1.0304 1.10041 1.27091)
(0.865335 0.807529 1.0591)
(0.886644 0.848566 1.11912)
(0.917885 0.909265 1.18238)
(0.958453 0.978566 1.23344)
(0.861257 0.80144 1.02899)
(0.877571 0.82833 1.0867)
(0.902396 0.879539 1.15004)
(0.939791 0.944857 1.20636)
(0.978974 1.01722 1.25131)
(1.18365 1.34085 0.911382)
(1.15682 1.29741 0.833724)
(1.11262 1.23248 0.773628)
(1.05859 1.14687 0.73402)
(1.18829 1.35008 0.955376)
(1.1713 1.31956 0.872258)
(1.13509 1.26557 0.803803)
(1.0853 1.19126 0.753044)
(1.02973 1.10014 0.729907)
(0.958926 0.978335 0.766633)
(0.918329 0.908643 0.817639)
(0.884339 0.847547 0.879698)
(0.865828 0.808708 0.940233)
(0.979029 1.01729 0.749091)
(0.940067 0.944207 0.793165)
(0.901702 0.878622 0.849901)
(0.875888 0.828217 0.911913)
(0.862772 0.802944 0.970684)
(0.933905 1.10437 1.23243)
(0.860026 1.15605 1.18301)
(0.797076 1.20195 1.12049)
(0.753351 1.23989 1.06887)
(0.96945 1.07863 1.24648)
(0.897669 1.12974 1.20923)
(0.828704 1.17959 1.14841)
(0.774573 1.21966 1.09233)
(0.743765 1.24933 1.03529)
(0.7545 1.24002 0.931575)
(0.796117 1.20262 0.878583)
(0.859175 1.15585 0.816243)
(0.932169 1.10408 0.768998)
(0.744954 1.24878 0.965047)
(0.774486 1.22077 0.906826)
(0.82808 1.17886 0.851844)
(0.896046 1.13008 0.790044)
(0.968174 1.0784 0.755174)
(0.781204 0.883341 0.999615)
(0.722195 0.978807 0.999365)
(0.688246 1.0747 1)
(0.693747 1.173 0.999851)
(0.822862 0.840635 1.00007)
(0.753695 0.932214 0.99907)
(0.707941 1.02662 0.999755)
(0.68907 1.12313 0.999976)
(0.715454 1.21473 0.999839)
(0.804621 1.32368 1.00003)
(0.891456 1.36996 1.00071)
(0.993571 1.38938 1.00013)
(1.09666 1.38766 0.999592)
(0.771057 1.2888 0.999864)
(0.847505 1.34654 1.00043)
(0.942914 1.37937 1.0005)
(1.04593 1.38743 0.999854)
(1.14592 1.37614 0.99947)
(0.74115 0.646714 1.09598)
(0.758338 0.669031 1.18801)
(0.787458 0.700913 1.26095)
(0.820376 0.747916 1.32002)
(0.85783 0.807544 1.3665)
(0.89187 0.880241 1.40891)
(0.936204 0.963779 1.4354)
(0.734797 0.640746 1.0484)
(0.751196 0.657781 1.14269)
(0.772511 0.685726 1.22597)
(0.805398 0.723519 1.29048)
(0.83985 0.777805 1.34287)
(0.875854 0.842797 1.3868)
(0.914896 0.922179 1.42102)
(0.959455 1.00764 1.44154)
(1.02752 1.135 1.44295)
(1.08603 1.21403 1.41908)
(1.14419 1.29271 1.38136)
(1.1904 1.36894 1.33086)
(1.2309 1.43539 1.26077)
(1.25276 1.49199 1.17967)
(1.26609 1.52885 1.09224)
(1.00196 1.09424 1.4437)
(1.05698 1.17414 1.43088)
(1.11755 1.25204 1.39929)
(1.16749 1.3309 1.35629)
(1.21223 1.40133 1.2967)
(1.24285 1.4637 1.21989)
(1.26 1.51103 1.13636)
(1.26883 1.53535 1.04633)
(0.740524 0.64652 0.903026)
(0.758826 0.669199 0.813262)
(0.788197 0.699692 0.737804)
(0.817685 0.746456 0.677438)
(0.854999 0.805136 0.630684)
(0.890822 0.879736 0.591133)
(0.935652 0.963423 0.565126)
(0.736613 0.640533 0.951872)
(0.749289 0.6585 0.857243)
(0.774683 0.684178 0.774175)
(0.804008 0.723258 0.707579)
(0.837207 0.775419 0.654679)
(0.873357 0.841271 0.610907)
(0.914554 0.921873 0.580076)
(0.959628 1.0063 0.557379)
(1.26602 1.52896 0.90774)
(1.25291 1.4923 0.820269)
(1.23081 1.43486 0.739453)
(1.1905 1.36839 0.669308)
(1.14443 1.29315 0.617631)
(1.08583 1.21448 0.581133)
(1.02937 1.1344 0.556718)
(1.26873 1.53539 0.953598)
(1.26004 1.5113 0.863635)
(1.24297 1.46371 0.780097)
(1.21214 1.40051 0.703735)
(1.16773 1.33088 0.643194)
(1.11761 1.25259 0.600107)
(1.05711 1.1743 0.569787)
(1.00516 1.09254 0.553888)
(0.578348 1.35915 1.08878)
(0.60322 1.33946 1.17875)
(0.645579 1.30607 1.26265)
(0.703758 1.26157 1.32623)
(0.766164 1.21355 1.36649)
(0.832642 1.16359 1.40142)
(0.908443 1.11261 1.42098)
(0.574419 1.36322 1.04473)
(0.591635 1.34956 1.13529)
(0.624965 1.32315 1.22306)
(0.676486 1.28322 1.29664)
(0.735501 1.23754 1.3473)
(0.800834 1.1884 1.38096)
(0.867835 1.13807 1.41091)
(0.946992 1.08419 1.43575)
(0.580234 1.35803 0.910808)
(0.599911 1.34127 0.822227)
(0.648733 1.30512 0.738024)
(0.701096 1.26274 0.67102)
(0.767688 1.21322 0.635019)
(0.833632 1.16358 0.603325)
(0.910509 1.11087 0.577377)
(0.57751 1.36135 0.95451)
(0.589779 1.35047 0.865213)
(0.625101 1.3235 0.777429)
(0.676495 1.28346 0.702948)
(0.734911 1.23793 0.651439)
(0.802447 1.18834 0.621817)
(0.868692 1.13719 0.592561)
(0.94979 1.08186 0.559408)
(0.649156 0.704663 1.00048)
(0.587783 0.779223 1.00009)
(0.543466 0.865262 0.99966)
(0.514332 0.96042 0.999855)
(0.505167 1.06145 1.00001)
(0.509624 1.16487 0.999941)
(0.530444 1.26772 0.999628)
(0.68925 0.671988 1.00052)
(0.617581 0.741814 1.00037)
(0.565419 0.821668 0.999734)
(0.528282 0.911729 0.999691)
(0.509491 1.00983 0.999922)
(0.507977 1.11219 0.999982)
(0.51978 1.21551 0.999813)
(0.550806 1.3166 0.999609)
(0.629758 1.45069 0.999703)
(0.704741 1.51701 0.999878)
(0.796123 1.56498 1.00035)
(0.898363 1.59055 1.00056)
(0.995734 1.6001 1.00026)
(1.08633 1.59362 0.999893)
(1.17588 1.57248 0.999959)
(0.600659 1.40904 0.99978)
(0.667949 1.48466 0.999754)
(0.750966 1.54195 1.00008)
(0.849015 1.57827 1.00051)
(0.948724 1.59472 1.00046)
(1.04164 1.59545 0.99999)
(1.13018 1.58229 0.999909)
(1.22274 1.55516 0.999956)
(0.981307 1.05667 0.648434)
(0.986277 1.05276 0.595469)
(0.988138 1.05569 0.691277)
(0.983387 1.05542 1.35219)
(0.99078 1.05449 1.31016)
(0.984526 1.05408 1.4023)
(0.781206 0.723505 0.999134)
(0.816144 0.759897 0.999241)
(0.756132 0.67015 1.00015)
(1.23626 1.4411 0.999819)
(1.21242 1.39765 0.999748)
(1.25748 1.48939 0.99986)
(0.800069 1.46544 1.25064)
(0.803584 1.52293 1.17063)
(0.941286 1.30518 1.39701)
(0.994993 1.56724 1.15713)
(0.661602 1.47124 1.07785)
(0.994817 1.23051 1.42975)
(1.16877 1.5497 1.13507)
(1.08373 1.53749 1.21464)
(0.705916 1.46749 1.1704)
(0.898534 1.52745 1.21415)
(0.877877 1.56665 1.11411)
(0.71753 1.37817 1.27895)
(0.989474 1.49818 1.27287)
(1.0783 1.57394 1.12983)
(0.900369 1.44838 1.30603)
(1.12235 1.58172 1.06495)
(1.03699 1.31121 1.40917)
(1.04167 1.59032 1.07342)
(0.627156 1.4169 1.12274)
(0.906365 1.20282 1.4107)
(0.84284 1.28402 1.37778)
(0.985905 1.40298 1.35605)
(1.16114 1.49098 1.23821)
(0.764538 1.53818 1.0828)
(0.651453 1.39046 1.2025)
(0.897666 1.36754 1.35928)
(1.14392 1.42902 1.30774)
(1.07491 1.46588 1.30173)
(0.609054 1.42091 1.05699)
(0.96481 1.15102 1.43519)
(1.20092 1.56 1.05919)
(0.81758 1.38615 1.32597)
(0.767275 1.30737 1.34408)
(1.09351 1.38287 1.35787)
(0.832851 1.57144 1.05015)
(0.962587 1.58867 1.07005)
(1.0086 1.18389 1.43796)
(1.03576 1.22326 1.4293)
(0.971316 1.10217 1.44134)
(0.993571 1.14427 1.44262)
(0.979839 1.191 1.43155)
(1.05986 1.26265 1.41502)
(1.08856 1.29894 1.39402)
(1.01668 1.27161 1.42053)
(1.11823 1.33683 1.36857)
(1.14101 1.3737 1.34231)
(1.0659 1.34603 1.38381)
(1.16694 1.39809 1.31838)
(1.18805 1.43017 1.28305)
(1.11826 1.40572 1.33305)
(1.1968 1.46142 1.24817)
(1.20562 1.48954 1.20772)
(1.1553 1.45878 1.27321)
(1.21012 1.52001 1.15799)
(1.21638 1.53744 1.1137)
(1.16436 1.52166 1.18808)
(1.23331 1.5443 1.07572)
(1.23621 1.54973 1.02982)
(1.18442 1.55471 1.09718)
(1.18848 1.56613 1.02959)
(0.684929 1.4947 1.03896)
(0.645914 1.46186 1.0394)
(0.635318 1.44668 1.068)
(0.619614 1.43637 1.02837)
(0.590239 1.39398 1.02942)
(0.781734 1.55195 1.04176)
(0.736137 1.5281 1.0419)
(0.714538 1.50521 1.08165)
(0.86691 1.58082 1.02577)
(0.814975 1.56855 1.0254)
(0.799269 1.55551 1.06666)
(0.979208 1.5939 1.03538)
(0.931831 1.58893 1.03525)
(0.901616 1.57878 1.06076)
(1.0638 1.59126 1.03703)
(1.019 1.59385 1.03662)
(1.00278 1.58869 1.07208)
(1.14878 1.57658 1.03305)
(1.10422 1.58731 1.03211)
(1.08173 1.58524 1.06949)
(1.16051 1.56984 1.06269)
(0.753742 1.46738 1.21233)
(0.755401 1.49558 1.17213)
(0.802077 1.49519 1.21135)
(0.852111 1.52562 1.19327)
(0.850038 1.49705 1.23366)
(0.73705 1.50402 1.12708)
(0.785034 1.53124 1.12647)
(0.841445 1.54623 1.14256)
(0.889011 1.54839 1.164)
(0.822273 1.55374 1.09902)
(0.972111 1.26963 1.41061)
(0.991924 1.31106 1.40358)
(0.954761 1.21832 1.41651)
(0.924163 1.25456 1.40237)
(0.965139 1.35357 1.3782)
(1.01329 1.35807 1.38321)
(0.891691 1.29454 1.38581)
(0.874129 1.24368 1.39412)
(0.919868 1.33557 1.37793)
(0.870514 1.32586 1.36872)
(0.94241 1.38502 1.35708)
(0.979082 1.57684 1.11335)
(1.01834 1.57774 1.1156)
(0.939236 1.56485 1.13688)
(0.922349 1.5761 1.09294)
(1.03744 1.51666 1.2457)
(0.992589 1.53452 1.21683)
(1.03892 1.55303 1.18634)
(1.03693 1.56999 1.14417)
(1.08103 1.5568 1.17217)
(1.05966 1.5817 1.10134)
(0.948916 1.54652 1.18705)
(0.945095 1.51243 1.24449)
(0.666861 1.44278 1.14808)
(0.644515 1.44479 1.10039)
(0.684911 1.46969 1.12471)
(0.618568 1.41897 1.09022)
(0.603123 1.38827 1.10703)
(0.615616 1.37868 1.1521)
(0.593709 1.39041 1.07325)
(0.627541 1.36497 1.19164)
(0.648974 1.34829 1.23526)
(0.639849 1.4043 1.16358)
(0.681839 1.34215 1.27221)
(0.71195 1.319 1.30551)
(0.684673 1.38498 1.24273)
(0.766932 1.2602 1.35572)
(0.735476 1.28472 1.33522)
(0.744457 1.34207 1.31454)
(0.804438 1.24896 1.37076)
(0.837628 1.22411 1.38697)
(0.805744 1.2952 1.36027)
(0.867808 1.18326 1.40663)
(0.906927 1.15822 1.4144)
(0.938088 1.13263 1.42628)
(0.93859 1.17819 1.41902)
(0.759264 1.42175 1.26696)
(0.80989 1.42572 1.2912)
(0.768713 1.38235 1.30368)
(0.859606 1.41693 1.3168)
(0.852104 1.45658 1.27998)
(0.712889 1.42404 1.22828)
(0.899813 1.48852 1.26221)
(1.14486 1.56572 1.10023)
(0.792664 1.34665 1.3357)
(0.83157 1.33377 1.35307)
(0.858749 1.37654 1.34261)
(0.899827 1.40746 1.33484)
(0.856389 1.56873 1.08193)
(1.12275 1.56138 1.13388)
(1.12586 1.54253 1.17619)
(1.12188 1.51409 1.22919)
(1.09979 1.57678 1.09779)
(1.08026 1.5008 1.26002)
(1.03234 1.48223 1.28844)
(1.11954 1.47645 1.27174)
(0.678944 1.42967 1.18797)
(0.945589 1.47319 1.2899)
(0.944374 1.42478 1.33156)
(0.988777 1.45005 1.31708)
(1.03073 1.4349 1.33031)
(1.04147 1.39454 1.35915)
(1.08524 1.42415 1.33113)
(1.10968 1.44683 1.3061)
(0.638247 0.989996 1.30602)
(0.536441 1.07527 1.16853)
(0.595292 0.839565 1.16461)
(0.636818 0.78012 1.17519)
(0.566765 1.12209 1.22704)
(0.692509 1.05588 1.34575)
(0.687713 0.707881 1.14523)
(0.559425 1.28405 1.13599)
(0.846456 0.977761 1.40463)
(0.573934 1.03538 1.23749)
(0.654283 0.828649 1.25647)
(0.533994 1.17919 1.13986)
(0.630588 1.10232 1.30321)
(0.788014 0.897573 1.37118)
(0.69314 1.16686 1.33964)
(0.624872 1.19368 1.28479)
(0.700306 0.745976 1.22717)
(0.831673 1.07278 1.40452)
(0.615924 0.762844 1.09218)
(0.515198 1.05383 1.09212)
(0.764093 1.00815 1.37784)
(0.57762 1.23385 1.21027)
(0.760587 1.12143 1.37445)
(0.525904 0.957466 1.08511)
(0.717308 0.862494 1.32215)
(0.740531 0.780428 1.29423)
(0.59104 0.926249 1.2277)
(0.656275 0.903972 1.30026)
(0.781061 0.817461 1.33886)
(0.703731 0.950578 1.34126)
(0.552137 0.92078 1.13959)
(0.542813 0.99397 1.16115)
(0.679336 0.687861 1.06816)
(0.904294 1.03731 1.42514)
(0.553493 0.866134 1.07104)
(0.532249 1.25876 1.06327)
(0.512815 1.14277 1.06099)
(0.650848 0.735883 1.11888)
(0.626821 0.771672 1.13449)
(0.66125 0.744226 1.16074)
(0.684265 0.698513 1.10695)
(0.646328 0.72562 1.08074)
(0.667676 0.763505 1.20179)
(0.693817 0.726841 1.18784)
(0.715343 0.678346 1.12133)
(0.723525 0.689034 1.1671)
(0.710688 0.668054 1.08225)
(0.729409 0.708263 1.20854)
(0.873153 0.929628 1.40755)
(0.897153 0.972153 1.41925)
(0.824687 0.853588 1.36896)
(0.844096 0.888449 1.38841)
(0.816969 0.93618 1.38781)
(0.922276 1.00096 1.43177)
(0.944273 1.04541 1.43865)
(0.876584 1.00753 1.41402)
(0.535553 1.12658 1.15577)
(0.551862 1.15077 1.18663)
(0.552731 1.09853 1.19917)
(0.557116 1.20664 1.17754)
(0.573633 1.17736 1.22095)
(0.599263 1.11232 1.26766)
(0.59599 1.1581 1.25758)
(0.628874 1.14754 1.29441)
(0.571018 1.07819 1.23296)
(0.602099 1.06863 1.27239)
(0.601334 1.21408 1.25031)
(0.557167 1.05513 1.20442)
(0.616093 0.809825 1.17001)
(0.605935 0.80126 1.12929)
(0.584099 0.814625 1.08182)
(0.573825 0.852988 1.11889)
(0.601127 0.771375 1.04655)
(0.630602 0.733733 1.04711)
(0.662969 0.696056 1.03457)
(0.570199 0.823057 1.03587)
(0.547688 1.23123 1.14037)
(0.569608 1.25901 1.17518)
(0.533908 1.21869 1.10329)
(0.546308 1.27165 1.10079)
(0.524378 1.10846 1.1169)
(0.523619 1.16068 1.1015)
(0.522665 1.19978 1.06336)
(0.66281 1.13452 1.32136)
(0.660429 1.17989 1.31323)
(0.693751 1.11139 1.34113)
(0.662839 1.07904 1.32485)
(0.63512 1.04611 1.30398)
(0.666521 1.02285 1.32597)
(0.606258 1.01255 1.27453)
(0.820919 0.812779 1.35287)
(0.785401 0.858002 1.35483)
(0.77487 0.952157 1.37372)
(0.803902 0.99248 1.38984)
(0.745408 0.924799 1.35501)
(0.734111 0.979134 1.35967)
(0.753159 0.880796 1.34602)
(0.748525 0.840872 1.3295)
(0.710541 0.906578 1.33077)
(0.698979 1.21391 1.33318)
(0.665616 1.22742 1.30539)
(0.73001 1.19046 1.35254)
(0.763849 1.16734 1.36933)
(0.72805 1.14388 1.35595)
(0.727263 1.08857 1.3591)
(0.637172 1.249 1.27592)
(0.612592 1.26976 1.2389)
(0.869151 1.09253 1.41286)
(0.832435 1.11859 1.40334)
(0.797455 1.09713 1.38941)
(0.797787 1.14248 1.38693)
(0.906391 1.07527 1.4226)
(0.866532 1.05508 1.41228)
(0.837763 1.02524 1.40288)
(0.798792 1.04002 1.38981)
(0.762555 1.06528 1.37497)
(0.625687 0.835347 1.21136)
(0.646222 0.805672 1.21668)
(0.594437 0.88322 1.19683)
(0.622444 0.877291 1.24279)
(0.552504 0.892988 1.10581)
(0.573499 0.879994 1.15246)
(0.573102 0.92408 1.18454)
(0.677255 0.788522 1.24164)
(0.581995 1.31156 1.15891)
(0.569311 1.32148 1.1134)
(0.555873 1.30893 1.07826)
(0.551277 1.31237 1.03168)
(0.591891 1.28606 1.19757)
(0.697743 1.00289 1.34315)
(0.671787 0.970394 1.32354)
(0.613245 0.957311 1.27055)
(0.583213 0.980336 1.23337)
(0.647311 0.946793 1.30298)
(0.622202 0.915017 1.26705)
(0.681112 0.927531 1.31986)
(0.704314 0.662262 1.0345)
(0.54862 0.865655 1.03543)
(0.533229 0.91143 1.03551)
(0.510475 1.05696 1.04594)
(0.515271 1.00565 1.04613)
(0.52022 0.958276 1.04226)
(0.539681 0.91086 1.0783)
(0.520415 1.00459 1.08926)
(0.511194 1.15361 1.03055)
(0.509296 1.10126 1.03052)
(0.514495 1.09753 1.07711)
(0.53112 1.26336 1.03167)
(0.520989 1.21097 1.03233)
(0.743971 0.725234 1.24488)
(0.78167 0.764298 1.30739)
(0.765306 0.741468 1.27824)
(0.721003 0.764064 1.26177)
(0.801688 0.782859 1.33001)
(0.761685 0.798845 1.31632)
(0.728798 1.03235 1.36115)
(0.696236 0.805717 1.27577)
(0.540001 1.03403 1.16559)
(0.560527 1.01463 1.20047)
(0.568996 0.96001 1.19514)
(0.728797 0.821784 1.30802)
(0.685393 0.844608 1.29119)
(0.655003 0.865647 1.2797)
(0.686957 0.88332 1.31064)
(0.527788 1.02325 1.12832)
(0.525395 1.06428 1.13139)
(0.538746 0.938874 1.11289)
(0.534045 0.975418 1.12437)
(0.547884 0.956984 1.15076)
(0.631923 0.885079 0.734185)
(0.600814 1.09368 0.727129)
(0.632083 0.832276 0.776969)
(0.633 0.782473 0.832263)
(0.529669 1.13402 0.854384)
(0.742089 1.01926 0.631245)
(0.544985 1.23234 0.853549)
(0.822973 1.06733 0.598797)
(0.595942 0.910055 0.776098)
(0.555023 1.06629 0.795608)
(0.741203 0.862292 0.666792)
(0.629077 1.19317 0.713486)
(0.666153 1.04555 0.670257)
(0.598767 0.982395 0.736671)
(0.70823 0.961146 0.658055)
(0.563933 1.1602 0.786193)
(0.745225 1.11285 0.630777)
(0.692603 0.74733 0.783414)
(0.845803 0.977716 0.594326)
(0.681928 0.708861 0.864131)
(0.559843 0.833775 0.939267)
(0.518545 1.04113 0.895486)
(0.534013 0.922604 0.913)
(0.613999 0.756864 0.917876)
(0.58998 1.24659 0.77671)
(0.555334 0.964915 0.824152)
(0.697238 0.810246 0.715311)
(0.581086 0.855039 0.850155)
(0.684195 1.15865 0.660614)
(0.516084 1.17455 0.934254)
(0.786217 0.913029 0.626435)
(0.677932 0.687542 0.936279)
(0.548918 1.29281 0.916665)
(0.661022 0.921272 0.68941)
(0.640922 1.12282 0.689135)
(0.902165 1.03571 0.574081)
(0.597623 0.945771 0.755715)
(0.615581 0.933391 0.73495)
(0.614562 0.897528 0.754919)
(0.632816 0.858724 0.755507)
(0.614494 0.871034 0.776394)
(0.645025 0.902547 0.709999)
(0.629264 0.951698 0.711815)
(0.664473 0.820944 0.744781)
(0.663791 0.847541 0.723934)
(0.677964 0.865691 0.702107)
(0.792773 0.997938 0.614353)
(0.783281 1.04245 0.616012)
(0.832876 1.02259 0.597464)
(0.743295 1.06594 0.631453)
(0.785254 1.08999 0.616406)
(0.815298 0.943957 0.609297)
(0.764163 0.966272 0.630204)
(0.725661 0.990149 0.644708)
(0.687146 1.00343 0.665065)
(0.704757 1.03262 0.651485)
(0.705332 1.0791 0.650256)
(0.748057 0.937972 0.644354)
(0.906253 1.07342 0.575403)
(0.944735 1.04328 0.558545)
(0.920845 1.00005 0.568304)
(0.555107 1.19669 0.817116)
(0.547203 1.14752 0.818163)
(0.537954 1.18271 0.852075)
(0.577849 1.20298 0.780123)
(0.567363 1.24021 0.812939)
(0.531192 1.20299 0.892111)
(0.523222 1.15408 0.893381)
(0.595679 1.29374 0.796801)
(0.573637 1.28646 0.83413)
(0.547071 1.26258 0.884061)
(0.574934 1.31757 0.86644)
(0.532491 1.23288 0.923429)
(0.860388 1.05148 0.588942)
(0.874653 1.0069 0.585759)
(0.790502 1.13797 0.619206)
(0.828152 1.11558 0.601787)
(0.86442 1.08909 0.589507)
(0.575846 0.93766 0.799515)
(0.578409 0.973742 0.779072)
(0.607806 0.844199 0.812605)
(0.589756 0.883255 0.812093)
(0.568575 0.909814 0.83655)
(0.872155 0.929249 0.592401)
(0.896297 0.972081 0.581187)
(0.840955 0.895483 0.608729)
(0.600464 1.03763 0.731399)
(0.578214 1.02403 0.76483)
(0.577739 1.07963 0.759713)
(0.556228 1.01461 0.808856)
(0.560231 1.1126 0.789714)
(0.543033 1.10014 0.822879)
(0.583745 1.12629 0.75507)
(0.536969 1.05415 0.84298)
(0.52487 1.08668 0.873754)
(0.536907 1.00256 0.857714)
(0.685549 0.94173 0.674843)
(0.725004 0.911819 0.663934)
(0.701551 0.892551 0.679009)
(0.765402 0.887924 0.648326)
(0.798937 0.835323 0.650552)
(0.779561 0.806523 0.672862)
(0.718828 0.836941 0.689818)
(0.758266 0.782133 0.698403)
(0.821575 0.860333 0.629093)
(0.616285 1.14306 0.719919)
(0.598085 1.17648 0.748374)
(0.612012 1.21928 0.743489)
(0.665395 1.22802 0.692022)
(0.641241 1.24817 0.723852)
(0.62073 1.27544 0.756079)
(0.656471 1.17615 0.685439)
(0.693384 1.21036 0.665561)
(0.635377 1.15774 0.700632)
(0.621995 1.10793 0.707719)
(0.662508 1.14081 0.674345)
(0.634352 1.06978 0.697667)
(0.632824 1.01413 0.702364)
(0.66542 0.98377 0.682)
(0.715917 1.13565 0.646419)
(0.67536 1.10183 0.665935)
(0.653939 1.08409 0.679617)
(0.756873 1.16305 0.634222)
(0.726237 1.18623 0.648197)
(0.661664 0.79012 0.779838)
(0.662437 0.76544 0.807314)
(0.632923 0.807822 0.804065)
(0.656814 0.745855 0.847706)
(0.687477 0.729235 0.822958)
(0.726604 0.70948 0.797758)
(0.740995 0.724955 0.759425)
(0.7207 0.690588 0.838503)
(0.696125 0.778633 0.748385)
(0.743377 0.757908 0.726823)
(0.518127 1.10627 0.913407)
(0.607309 0.81849 0.841055)
(0.647315 0.733286 0.890801)
(0.623525 0.770203 0.874149)
(0.597087 0.805566 0.883258)
(0.564738 1.32541 0.912802)
(0.561347 1.32868 0.957915)
(0.59948 0.766468 0.958741)
(0.630586 0.730384 0.95877)
(0.662887 0.695707 0.968387)
(0.704579 0.662276 0.96833)
(0.644854 0.722502 0.926795)
(0.550898 0.848686 0.969342)
(0.572878 0.805257 0.969105)
(0.586092 0.794388 0.928321)
(0.522509 0.940184 0.956384)
(0.536634 0.892065 0.955995)
(0.546715 0.877458 0.925965)
(0.515444 0.999333 0.947691)
(0.511119 1.05029 0.947787)
(0.526316 0.980852 0.903478)
(0.512754 1.16949 0.966958)
(0.510957 1.11671 0.96695)
(0.523342 1.22024 0.966387)
(0.540504 1.27994 0.957313)
(0.709722 0.667665 0.919425)
(0.711229 0.678511 0.882935)
(0.67979 0.698013 0.899543)
(0.570156 0.844261 0.894081)
(0.557662 0.887973 0.880901)
(0.545541 0.944214 0.867265)
(0.840288 1.53056 0.821348)
(0.775878 1.47448 0.776135)
(1.0887 1.56465 0.845809)
(0.876147 1.3656 0.641393)
(0.64053 1.43379 0.88467)
(1.1791 1.54672 0.866677)
(0.990058 1.23974 0.570114)
(0.981592 1.35333 0.617718)
(0.72908 1.50357 0.869149)
(0.864361 1.46352 0.721875)
(0.770286 1.39251 0.69866)
(0.832335 1.56552 0.920437)
(0.966256 1.45794 0.685522)
(0.915855 1.29065 0.604401)
(0.944694 1.52621 0.774498)
(0.904602 1.20489 0.58999)
(1.15254 1.51222 0.784471)
(0.850274 1.26152 0.615968)
(0.665922 1.47746 0.939417)
(1.12711 1.58033 0.934022)
(1.02194 1.59113 0.915125)
(1.0496 1.51674 0.749243)
(1.06101 1.32153 0.601746)
(0.685014 1.4106 0.779919)
(0.73736 1.53181 0.945357)
(1.00686 1.563 0.828861)
(1.11057 1.38036 0.646948)
(1.04802 1.42352 0.658005)
(0.614149 1.42026 0.944055)
(1.20386 1.55901 0.940897)
(0.966566 1.15125 0.562462)
(0.924909 1.56787 0.863507)
(0.935864 1.59041 0.939233)
(1.13463 1.44224 0.699288)
(0.698028 1.3469 0.715682)
(0.789875 1.30267 0.644305)
(1.18993 1.56553 0.97042)
(1.23766 1.54934 0.970195)
(1.23476 1.54393 0.92432)
(0.785428 1.51794 0.843309)
(0.75253 1.49054 0.821814)
(0.808568 1.50324 0.797815)
(0.821779 1.4688 0.747589)
(0.853744 1.49811 0.769969)
(0.837293 1.54801 0.871068)
(0.782963 1.53554 0.893451)
(0.905499 1.49426 0.747003)
(0.894709 1.52805 0.796946)
(0.883966 1.54897 0.84165)
(0.880387 1.56549 0.891405)
(0.935394 1.54867 0.818947)
(0.649104 1.46418 0.968992)
(0.686247 1.49801 0.969545)
(0.593468 1.39324 0.970876)
(0.622739 1.43571 0.971923)
(0.640498 1.44927 0.941279)
(0.721639 1.52482 0.97247)
(0.767491 1.54921 0.972567)
(0.70195 1.5054 0.942028)
(0.815198 1.56615 0.960362)
(0.866573 1.57875 0.960098)
(0.785739 1.54985 0.932344)
(0.966474 1.59554 0.969494)
(0.917622 1.59077 0.969848)
(0.88616 1.57734 0.929158)
(1.00907 1.59516 0.957802)
(1.05422 1.59073 0.956822)
(0.979937 1.59003 0.927022)
(1.10667 1.58635 0.967367)
(1.15119 1.57572 0.9665)
(1.07443 1.58404 0.923676)
(1.16435 1.56858 0.936864)
(0.974029 1.10093 0.554231)
(0.940913 1.13147 0.570758)
(0.995474 1.14405 0.555023)
(0.620243 1.38853 0.851611)
(0.610977 1.3963 0.896016)
(0.628268 1.42688 0.913754)
(0.59791 1.38916 0.926918)
(0.64332 1.37603 0.798648)
(0.661978 1.42396 0.830977)
(0.698275 1.49093 0.903832)
(0.654281 1.45579 0.911943)
(0.6851 1.46956 0.875353)
(0.707511 1.45883 0.822664)
(1.13295 1.55453 0.854537)
(1.11964 1.53926 0.81335)
(1.16531 1.52964 0.825252)
(1.20129 1.49983 0.803306)
(1.21574 1.51906 0.84319)
(1.15235 1.56381 0.899826)
(1.19125 1.55299 0.903735)
(1.10745 1.572 0.889409)
(1.22195 1.53652 0.887334)
(0.66711 1.35806 0.756025)
(0.700358 1.3043 0.691699)
(0.673858 1.32587 0.726233)
(0.692349 1.37891 0.745874)
(0.779353 1.25771 0.640321)
(0.745366 1.2832 0.65722)
(0.744342 1.32515 0.675267)
(0.842413 1.21292 0.610703)
(0.810057 1.23729 0.628042)
(0.821719 1.28141 0.632047)
(0.907973 1.15791 0.586278)
(0.867824 1.18436 0.597043)
(0.876426 1.23349 0.602531)
(0.939168 1.17898 0.580357)
(0.9738 1.40367 0.650509)
(0.921794 1.41085 0.662337)
(0.929026 1.35885 0.631201)
(0.897174 1.32718 0.623376)
(0.94952 1.32245 0.611509)
(0.88269 1.27637 0.610385)
(0.863737 1.31322 0.628213)
(0.833362 1.33441 0.6436)
(0.81819 1.42787 0.709092)
(0.824924 1.3782 0.668759)
(0.870952 1.41428 0.678087)
(0.916299 1.45954 0.703511)
(0.780187 1.34728 0.667482)
(0.730642 1.44292 0.776205)
(0.774412 1.43326 0.735037)
(0.729228 1.40189 0.736459)
(0.955908 1.26665 0.590372)
(0.989436 1.29779 0.594902)
(1.02654 1.28178 0.583474)
(1.02321 1.33943 0.608215)
(0.910076 1.24849 0.596794)
(0.951083 1.22348 0.582813)
(0.978503 1.19585 0.568039)
(1.03327 1.22867 0.569885)
(1.07359 1.26806 0.590949)
(1.00737 1.18837 0.561374)
(1.01494 1.38771 0.637127)
(1.00801 1.44163 0.671051)
(1.05473 1.37169 0.62903)
(0.734925 1.51783 0.907307)
(0.95605 1.49116 0.728388)
(0.733827 1.37021 0.706389)
(0.93074 1.57812 0.901428)
(0.996835 1.52026 0.761032)
(1.00953 1.48784 0.715569)
(1.05239 1.47164 0.699972)
(1.02714 1.53922 0.788717)
(0.976138 1.54446 0.800985)
(0.966835 1.56533 0.84586)
(1.09462 1.48118 0.720044)
(1.14653 1.4766 0.740984)
(1.10184 1.5138 0.764348)
(1.18261 1.43546 0.721015)
(1.19281 1.4715 0.762868)
(1.06862 1.53984 0.796898)
(1.09162 1.43281 0.676942)
(1.12259 1.41074 0.672886)
(1.07934 1.40158 0.651174)
(1.16206 1.40318 0.685578)
(1.15027 1.37284 0.659885)
(1.05504 1.57783 0.880676)
(1.01441 1.57724 0.87205)
(0.974638 1.57846 0.888407)
(1.04791 1.56324 0.836633)
(1.08576 1.35041 0.624046)
(1.10161 1.30541 0.611204)
(1.12764 1.33641 0.633136)
(0.876291 0.993187 1.19577)
(0.799587 0.904629 1.08356)
(0.725183 1.02139 1.05935)
(0.862762 1.06937 1.19865)
(0.700526 1.12657 1.05435)
(0.813011 1.03368 1.15841)
(0.84651 0.936248 1.14924)
(0.77319 1.00028 1.10849)
(0.749471 1.09911 1.1063)
(0.924573 1.03755 1.22598)
(0.758635 0.925392 1.03549)
(0.808451 1.11356 1.1537)
(0.742293 1.16691 1.09167)
(0.806921 0.857674 1.03646)
(0.71557 1.19973 1.04782)
(0.725414 1.22882 1.0242)
(0.733988 1.21929 1.05761)
(0.746961 1.20269 1.07934)
(0.7694 1.1835 1.1042)
(0.728128 1.18273 1.0696)
(0.82554 0.919696 1.11369)
(0.811554 0.967306 1.12874)
(0.788382 0.953334 1.09564)
(0.7658 0.963754 1.06986)
(0.750197 1.01083 1.08163)
(0.744712 0.974522 1.04645)
(0.780008 0.914791 1.05882)
(0.803956 0.881542 1.0594)
(0.7838 0.891977 1.03593)
(0.86816 0.893806 1.13297)
(0.847146 0.875219 1.09977)
(0.835251 0.857122 1.07058)
(0.837803 0.832191 1.04725)
(0.738461 1.06023 1.08022)
(0.72567 1.11198 1.07764)
(0.713146 1.07292 1.05452)
(0.693017 1.10156 1.02591)
(0.708459 1.0488 1.02943)
(0.74534 1.13241 1.09766)
(0.721351 1.14655 1.07199)
(0.695311 1.1503 1.02787)
(0.707067 1.16271 1.05069)
(0.70345 1.18708 1.02366)
(0.919687 0.98604 1.20923)
(0.941727 1.00815 1.22743)
(0.900987 1.01557 1.21048)
(0.963721 1.04573 1.24369)
(0.894826 1.05355 1.21316)
(0.86969 1.0312 1.19747)
(0.929498 1.07087 1.22883)
(0.89896 1.08708 1.2155)
(0.830787 0.985255 1.15551)
(0.793794 1.01687 1.13214)
(0.76213 1.0499 1.10586)
(0.783302 1.06607 1.12933)
(0.771144 0.904738 1.01736)
(0.742738 0.953129 1.01679)
(0.795142 0.871097 1.01782)
(0.726704 1.00154 1.02835)
(0.899133 0.952685 1.18728)
(0.861705 0.965236 1.17257)
(0.845719 1.01264 1.17851)
(0.88385 0.922681 1.1644)
(0.838635 1.05104 1.17876)
(0.862198 1.11201 1.19121)
(0.802484 1.15735 1.13501)
(0.834901 1.1343 1.16818)
(0.837059 1.09096 1.17663)
(0.775483 1.13906 1.11653)
(0.834158 0.827343 1.01804)
(0.779814 1.10568 1.1276)
(0.810934 1.07356 1.15585)
(0.824665 1.28265 1.09736)
(1.08706 1.35271 1.11464)
(1.03813 1.38088 1.06005)
(1.0377 1.30882 1.15894)
(0.956995 1.2837 1.16585)
(1.01412 1.21651 1.21679)
(0.992809 1.3448 1.12156)
(0.946157 1.36974 1.06702)
(0.937961 1.19231 1.20739)
(1.12404 1.37649 1.05468)
(0.908557 1.32367 1.11725)
(0.881893 1.25454 1.15428)
(0.850331 1.33817 1.0592)
(0.786367 1.29589 1.04848)
(0.989313 1.14001 1.24777)
(0.993119 1.37523 1.06308)
(1.01631 1.36345 1.09124)
(0.97039 1.35766 1.09404)
(0.927502 1.34706 1.09279)
(0.951052 1.33495 1.11942)
(1.04069 1.34753 1.11659)
(1.06262 1.33128 1.13727)
(1.01678 1.327 1.13905)
(1.0639 1.36691 1.08686)
(0.998445 1.29517 1.16068)
(0.975911 1.31528 1.14329)
(0.933969 1.30534 1.14141)
(0.769617 1.26757 1.0584)
(0.761088 1.27629 1.0236)
(0.810695 1.2421 1.10686)
(0.788733 1.25992 1.08085)
(0.804959 1.28881 1.07269)
(1.12244 1.32743 1.13953)
(1.13681 1.34995 1.10231)
(1.10634 1.36521 1.08534)
(1.15525 1.3607 1.07122)
(1.15928 1.36994 1.02739)
(1.03381 1.18182 1.24475)
(1.05872 1.22611 1.22539)
(1.07182 1.2709 1.19054)
(1.09507 1.30572 1.16375)
(1.02601 1.2631 1.18409)
(1.02085 1.14198 1.25879)
(0.995308 1.09745 1.25926)
(1.00178 1.17763 1.23349)
(0.898963 1.17434 1.19691)
(0.936455 1.14711 1.22221)
(0.965859 1.16452 1.22622)
(0.962796 1.12133 1.23946)
(0.910165 1.22441 1.17995)
(0.8705 1.20539 1.16743)
(0.977804 1.20201 1.21003)
(0.94742 1.23837 1.18351)
(0.91928 1.27031 1.16064)
(0.987741 1.24801 1.18509)
(0.794724 1.31046 1.02467)
(0.83977 1.2276 1.13543)
(0.854201 1.26833 1.1223)
(0.837361 1.31011 1.07857)
(0.818112 1.3163 1.05286)
(0.879507 1.33005 1.08689)
(0.866726 1.30298 1.10532)
(0.896158 1.29001 1.13459)
(1.11072 1.38282 1.02697)
(1.08144 1.37801 1.05704)
(1.06772 1.38462 1.03008)
(0.82661 1.33175 1.02941)
(0.870243 1.35552 1.03071)
(0.97014 1.38055 1.03393)
(0.918396 1.3709 1.03379)
(0.897847 1.35415 1.06255)
(1.01591 1.3857 1.02997)
(0.937318 1.20893 0.79861)
(1.10755 1.34521 0.874166)
(0.890403 1.33919 0.917129)
(1.02414 1.22008 0.77823)
(0.909183 1.29508 0.862208)
(1.01203 1.34578 0.876381)
(0.870314 1.21793 0.837105)
(0.987677 1.2833 0.827243)
(0.825512 1.271 0.895184)
(1.05967 1.29881 0.824377)
(1.08543 1.37926 0.938496)
(0.990281 1.14339 0.754583)
(0.971898 1.37853 0.943789)
(0.807908 1.31189 0.951714)
(0.78935 1.25479 0.915158)
(0.810647 1.2367 0.888292)
(0.772056 1.28388 0.976763)
(0.7811 1.27519 0.942416)
(0.816568 1.29097 0.923275)
(0.848465 1.24454 0.870543)
(0.833604 1.20945 0.860292)
(0.864718 1.18665 0.826891)
(0.934885 1.15526 0.781426)
(0.965952 1.17503 0.77801)
(0.962227 1.12283 0.762949)
(1.00737 1.18095 0.765324)
(0.982925 1.21244 0.790903)
(0.948934 1.29016 0.845412)
(0.962919 1.24639 0.814901)
(0.924672 1.25376 0.834343)
(1.00721 1.25142 0.806196)
(0.898238 1.18177 0.805787)
(0.904204 1.21338 0.81723)
(0.890367 1.25725 0.851899)
(0.805696 1.31837 0.975551)
(0.868193 1.28197 0.881351)
(0.858713 1.30448 0.906961)
(0.90087 1.31725 0.890764)
(0.849023 1.3245 0.935957)
(0.995074 1.09895 0.742618)
(1.02149 1.1433 0.742972)
(1.03921 1.18258 0.754297)
(1.03819 1.32277 0.85322)
(1.02424 1.29034 0.827045)
(1.00107 1.31582 0.852539)
(1.04167 1.26045 0.802738)
(0.961372 1.32165 0.869465)
(1.08415 1.32301 0.848907)
(1.06003 1.34471 0.876772)
(1.13282 1.32307 0.854081)
(1.10716 1.30054 0.827128)
(1.08351 1.26621 0.799104)