/*--------------------------------*- C++ -*----------------------------------*\
| =========                 |                                                 |
| \\      /  F ield         | OpenFOAM: The Open Source CFD Toolbox           |
|  \\    /   O peration     | Version:  v1806                                 |
|   \\  /    A nd           | Web:      www.OpenFOAM.com                      |
|    \\/     M anipulation  |                                                 |
\*---------------------------------------------------------------------------*/
FoamFile
{
    version     2.0;
    format      ascii;
    class       volVectorField;
    location    "0.037";
    object      U_0;
}
// * * * * * * * * * * * * * * * * * * * * * * * * * * * * * * * * * * * * * //

dimensions      [0 1 -1 0 0 0 0];


internalField   nonuniform List<vector> 
64000
(
(-0.00609809 -0.00726845 -0.00292179)
(0.0136812 -0.00805826 -0.00111206)
(0.0268744 -0.00478417 0.00204394)
(0.0311464 -0.00449456 0.00213151)
(0.0256633 -0.00327916 0.00295359)
(0.0220971 -0.0027237 0.00425955)
(0.0209899 -0.00350308 0.00403634)
(0.0167581 -0.00371583 0.00406812)
(0.0144269 -0.00469407 0.00519306)
(0.00819941 -0.00386574 0.00469642)
(0.000480773 -0.006489 0.00594324)
(-0.0161067 -0.00938263 0.00698494)
(-0.0380079 -0.0139913 0.00675257)
(-0.0649204 -0.0173912 0.00459841)
(-0.0998617 -0.0161808 0.00538893)
(-0.134851 -0.00874509 0.00393384)
(-0.175104 0.00380558 0.0033215)
(-0.211456 -0.00149272 0.00307429)
(-0.2393 -0.010247 0.00509854)
(-0.270581 -0.0252899 -0.0117823)
(-0.264513 -0.0325125 -0.0357117)
(-0.139018 -0.0256537 -0.0378996)
(-0.0868645 -0.0187139 -0.0332458)
(-0.0963565 -0.00621894 -0.0367391)
(-0.0865585 -0.000661647 -0.0494377)
(-0.091947 0.00968503 -0.0569011)
(-0.071567 0.0187327 -0.0628679)
(-0.0465608 0.0310712 -0.0570707)
(-0.0126915 0.0391419 -0.0491749)
(0.0304542 0.0539603 -0.0303046)
(0.0780408 0.0422056 -0.0307533)
(0.110386 0.0350066 -0.0212676)
(0.12445 0.0242793 -0.00933162)
(0.120173 0.0100802 -0.00260273)
(0.103802 0.0022556 0.00322082)
(0.0813755 -0.00569799 0.00542547)
(0.0577699 -0.00830172 0.00795588)
(0.0351808 -0.0067637 0.00880954)
(0.0178151 -0.00508775 0.00883426)
(0.0033674 -0.00364574 0.00710506)
(-0.00422689 -0.00571446 -0.000849193)
(0.0126317 -0.0173907 -0.000761256)
(0.0349429 -0.0147761 0.000665251)
(0.045747 -0.0109983 -0.000152329)
(0.044365 -0.00556282 0.000643534)
(0.0399737 -0.00166481 -0.000259688)
(0.0373783 0.00273158 -0.00213203)
(0.0295356 0.00515216 -0.00185093)
(0.0219569 0.00989865 -0.00703573)
(0.00404985 0.0170001 -0.00397627)
(-0.0219516 0.0242125 -0.00776229)
(-0.0606044 0.0339394 0.000163823)
(-0.108716 0.0471132 -0.00389452)
(-0.161046 0.0697564 -0.00626297)
(-0.221192 0.0793611 -0.00954495)
(-0.284702 0.0871656 -0.0192093)
(-0.380017 0.092399 -0.0415698)
(-0.477195 0.0967516 -0.0561476)
(-0.550304 0.100554 -0.0742091)
(-0.610097 0.101955 -0.0972133)
(-0.599605 0.115187 -0.114345)
(-0.455187 0.138774 -0.127553)
(-0.385773 0.172323 -0.146)
(-0.380275 0.20812 -0.150703)
(-0.345568 0.231007 -0.161654)
(-0.31629 0.255586 -0.167151)
(-0.25602 0.273864 -0.168935)
(-0.190708 0.29053 -0.158348)
(-0.110837 0.298325 -0.136749)
(-0.0450299 0.305304 -0.111787)
(0.0217063 0.287005 -0.0743551)
(0.0898098 0.257038 -0.0482973)
(0.12234 0.203274 -0.0384945)
(0.135089 0.156851 -0.0274957)
(0.128081 0.10729 -0.0134707)
(0.106335 0.0669352 -0.00565363)
(0.0842426 0.0392604 -0.00110464)
(0.0578673 0.0244917 0.000292136)
(0.0335587 0.0146453 0.00209391)
(0.00944269 0.00563938 0.00400159)
(-0.000153491 -0.0145082 0.00181139)
(0.0174206 -0.0257918 -0.000523039)
(0.0419932 -0.0211107 -0.000808691)
(0.0545567 -0.0101259 -0.000274499)
(0.050898 0.00166765 -0.00266093)
(0.0442316 0.0159987 -0.00406449)
(0.0355486 0.0300315 -0.00594163)
(0.0199006 0.0447487 -0.00821719)
(0.00415083 0.0694606 -0.00119563)
(-0.0250648 0.0936772 -0.00459887)
(-0.0637883 0.123647 -0.00830147)
(-0.116481 0.156497 -0.0125855)
(-0.17467 0.185349 -0.0167778)
(-0.260628 0.206796 -0.0306558)
(-0.367443 0.224583 -0.0326962)
(-0.462582 0.237004 -0.0431236)
(-0.557128 0.244763 -0.0572304)
(-0.637689 0.268964 -0.0726239)
(-0.702592 0.295806 -0.0901555)
(-0.748089 0.329167 -0.110717)
(-0.723403 0.363792 -0.120008)
(-0.55561 0.393138 -0.121324)
(-0.461175 0.441909 -0.131645)
(-0.444724 0.482411 -0.124261)
(-0.402401 0.510967 -0.12548)
(-0.369043 0.534508 -0.12267)
(-0.309204 0.545848 -0.118561)
(-0.247545 0.548243 -0.106346)
(-0.176659 0.538245 -0.0856787)
(-0.112845 0.517205 -0.0625242)
(-0.0567719 0.494263 -0.0402134)
(-0.0180965 0.446909 -0.0275549)
(0.017495 0.378344 -0.0118166)
(0.0451966 0.304836 -0.007085)
(0.0498761 0.229526 -0.0103166)
(0.0524352 0.163759 -0.00987658)
(0.0503365 0.112784 -0.00673997)
(0.0402711 0.074975 -0.00421674)
(0.0276354 0.0483472 -0.000431368)
(0.00914917 0.0202448 0.00300757)
(0.000272735 -0.0212604 0.00154712)
(0.0197915 -0.0303117 -0.00298642)
(0.0475196 -0.0185918 -0.00190997)
(0.058746 0.000535606 -0.00478398)
(0.0541455 0.0255981 -0.00583407)
(0.0426534 0.0573727 -0.00679957)
(0.0262788 0.09326 -0.00648586)
(0.0091186 0.129828 -0.00380011)
(-0.0151358 0.174647 -0.00884583)
(-0.0591321 0.210736 -0.0113015)
(-0.111125 0.243207 -0.0155671)
(-0.186129 0.26768 -0.0221124)
(-0.278427 0.295867 -0.0254269)
(-0.367349 0.310356 -0.0272659)
(-0.452609 0.338168 -0.0291946)
(-0.533441 0.36792 -0.0387605)
(-0.614031 0.399339 -0.0492001)
(-0.68161 0.4329 -0.0565139)
(-0.730054 0.467208 -0.0642452)
(-0.760202 0.508803 -0.0720118)
(-0.723121 0.540502 -0.0643905)
(-0.536004 0.562475 -0.0476815)
(-0.427131 0.596542 -0.0486383)
(-0.411547 0.616424 -0.0314795)
(-0.373741 0.624808 -0.0260799)
(-0.34965 0.627584 -0.0194701)
(-0.30363 0.617123 -0.0161459)
(-0.25882 0.597534 -0.0102839)
(-0.2063 0.571616 0.000448734)
(-0.159464 0.537281 0.00789456)
(-0.123622 0.498973 0.0133922)
(-0.0985186 0.45547 0.0139537)
(-0.0815571 0.411329 0.00913512)
(-0.0584612 0.349801 0.00217126)
(-0.0376549 0.279566 -0.00256794)
(-0.0182241 0.204089 -0.0082435)
(0.00032284 0.144262 -0.0094877)
(0.0107277 0.107332 -0.00677258)
(0.0172797 0.072667 -0.00265918)
(0.00769827 0.0299507 0.00250916)
(0.00184427 -0.0237271 0.000823461)
(0.025621 -0.0245337 -0.0042835)
(0.0563618 -0.00510386 -0.00234424)
(0.0697065 0.0257512 -0.00431229)
(0.0666631 0.0663976 -0.00503256)
(0.0562138 0.117373 -0.0144968)
(0.0333767 0.17919 -0.0114247)
(0.00358092 0.226337 -0.00402163)
(-0.03757 0.265873 -0.00684746)
(-0.102821 0.297074 -0.00909947)
(-0.172395 0.325973 -0.0124296)
(-0.240188 0.34941 -0.0145341)
(-0.309632 0.382339 -0.018671)
(-0.386682 0.41798 -0.0193184)
(-0.461257 0.454945 -0.017382)
(-0.529208 0.489462 -0.0197167)
(-0.592125 0.524877 -0.0191611)
(-0.640541 0.55983 -0.0153169)
(-0.67026 0.595568 -0.0124189)
(-0.689481 0.635637 -0.0193622)
(-0.652053 0.663052 -0.00956655)
(-0.461168 0.674825 0.0143269)
(-0.350592 0.68309 0.0178762)
(-0.341782 0.673436 0.0363068)
(-0.317038 0.651821 0.0386578)
(-0.311247 0.628553 0.0455236)
(-0.287642 0.594765 0.046665)
(-0.261222 0.557741 0.0490801)
(-0.230093 0.517108 0.0435861)
(-0.205009 0.475982 0.036496)
(-0.182031 0.432069 0.0272348)
(-0.165604 0.392101 0.0194606)
(-0.153903 0.358134 0.0131284)
(-0.146388 0.323015 0.00271177)
(-0.141178 0.274539 -0.00925977)
(-0.10998 0.202442 -0.0109853)
(-0.0544117 0.154465 -0.0111341)
(-0.0166126 0.124282 -0.0100013)
(0.00270946 0.0895988 -0.00426015)
(0.00503947 0.0367225 0.0026761)
(0.00507338 -0.0251845 0.000888509)
(0.032928 -0.0170463 -0.00425613)
(0.0676889 0.011294 -0.00483524)
(0.0846115 0.0553639 -0.00685646)
(0.0852391 0.103272 -0.00784434)
(0.0782608 0.169311 -0.016457)
(0.0400227 0.220306 -0.00743251)
(-0.0169557 0.267406 0.00104768)
(-0.0704315 0.305077 -0.0033071)
(-0.131048 0.34554 -0.00579009)
(-0.18773 0.387289 -0.0080874)
(-0.246905 0.429423 -0.00826168)
(-0.306555 0.466831 -0.00665935)
(-0.364248 0.500889 -0.00197287)
(-0.41972 0.535816 0.00373851)
(-0.468713 0.569863 0.00742053)
(-0.515792 0.604661 0.00604762)
(-0.552122 0.643284 0.0109409)
(-0.571578 0.682042 0.0121304)
(-0.584308 0.71515 0.00949564)
(-0.546185 0.738254 0.0212635)
(-0.367084 0.706642 0.0454419)
(-0.272661 0.666155 0.0492128)
(-0.283792 0.630056 0.0677876)
(-0.276928 0.581626 0.0729436)
(-0.28806 0.542058 0.0752358)
(-0.282882 0.49752 0.0720641)
(-0.276652 0.455127 0.068293)
(-0.261559 0.408583 0.0649213)
(-0.250234 0.369045 0.048338)
(-0.242037 0.328713 0.0372639)
(-0.228914 0.295167 0.0241311)
(-0.218567 0.268463 0.0112296)
(-0.20922 0.24487 0.00487028)
(-0.213522 0.223243 -0.00947032)
(-0.174284 0.187929 -0.0120444)
(-0.091201 0.155545 -0.013209)
(-0.0377399 0.129943 -0.0111579)
(-0.00384783 0.097196 -0.00596889)
(0.00422266 0.0388808 0.00270993)
(0.0070662 -0.0219072 -0.000437908)
(0.0410702 -0.00291645 -0.00712015)
(0.0848225 0.033525 -0.00962531)
(0.102706 0.0840771 -0.00754076)
(0.107267 0.137554 -0.00912068)
(0.0860001 0.203873 -0.0101654)
(0.0328147 0.235969 0.00256005)
(-0.0164856 0.287778 0.00269411)
(-0.0628919 0.340381 -0.000177991)
(-0.114382 0.393673 -0.00204937)
(-0.164336 0.443454 -0.00247364)
(-0.211615 0.487593 -0.000529055)
(-0.258949 0.525669 0.00143431)
(-0.305494 0.562497 0.00948321)
(-0.346178 0.595274 0.0122652)
(-0.381565 0.625504 0.0193695)
(-0.409596 0.651057 0.0256427)
(-0.427531 0.680044 0.0276229)
(-0.443851 0.709306 0.0254985)
(-0.458151 0.72597 0.0209265)
(-0.46599 0.73683 0.0253285)
(-0.342231 0.679817 0.0482648)
(-0.24166 0.584619 0.0483132)
(-0.251694 0.535869 0.0619596)
(-0.258956 0.483595 0.0652191)
(-0.281355 0.445836 0.0660398)
(-0.293687 0.407197 0.0624335)
(-0.302968 0.370853 0.057906)
(-0.300915 0.333096 0.0479778)
(-0.299693 0.298827 0.0365323)
(-0.296858 0.26617 0.0228203)
(-0.286194 0.239708 0.0127866)
(-0.276119 0.219529 0.00184085)
(-0.26483 0.208431 -0.00322411)
(-0.26119 0.202003 -0.0121365)
(-0.220301 0.192721 -0.0191572)
(-0.128486 0.16309 -0.0196418)
(-0.055337 0.141546 -0.0160242)
(-0.0100258 0.106378 -0.00844933)
(0.00470112 0.0428846 0.0015286)
(0.00831303 -0.0145595 0.00025201)
(0.0467641 0.0199786 -0.0133704)
(0.0978993 0.0661507 -0.0144648)
(0.12145 0.118369 -0.00982599)
(0.127406 0.178039 -0.0127246)
(0.0918128 0.227132 -0.00598425)
(0.0364314 0.270898 0.00192872)
(0.00469507 0.326126 0.00536864)
(-0.0342671 0.376102 0.00274424)
(-0.0782587 0.430305 0.00378201)
(-0.118862 0.474457 0.00567144)
(-0.159885 0.51115 0.0107781)
(-0.194045 0.54301 0.017615)
(-0.224154 0.571635 0.0217134)
(-0.254617 0.594674 0.0264175)
(-0.281722 0.61202 0.0304148)
(-0.305556 0.624455 0.0335856)
(-0.319926 0.63385 0.0340032)
(-0.342165 0.638573 0.0266665)
(-0.367132 0.630709 0.020952)
(-0.400189 0.620369 0.017022)
(-0.341992 0.594494 0.031759)
(-0.254981 0.487456 0.0325209)
(-0.24609 0.435146 0.0388113)
(-0.260488 0.392647 0.0434583)
(-0.289477 0.362778 0.045679)
(-0.312225 0.334549 0.045824)
(-0.331518 0.304246 0.0430585)
(-0.338105 0.273573 0.0362787)
(-0.34381 0.241762 0.0174163)
(-0.346366 0.210286 0.012516)
(-0.336232 0.185113 0.00249202)
(-0.322216 0.170039 -0.00332461)
(-0.303695 0.166127 -0.00799985)
(-0.299341 0.176252 -0.0152501)
(-0.263213 0.191891 -0.0204607)
(-0.162088 0.17037 -0.021915)
(-0.0726743 0.149909 -0.0178838)
(-0.0145582 0.114973 -0.00970618)
(0.00560721 0.0457594 0.00162512)
(0.00910819 -0.00185343 -0.00357599)
(0.055968 0.0502032 -0.0203411)
(0.116217 0.104481 -0.0197381)
(0.145199 0.158685 -0.013356)
(0.142785 0.210755 -0.0139357)
(0.105349 0.251257 -0.00651413)
(0.0637976 0.306657 0.000419462)
(0.0328563 0.361784 0.00639799)
(0.00546195 0.403082 0.0125768)
(-0.0273139 0.443951 0.0123535)
(-0.0671334 0.479741 0.0163146)
(-0.0961396 0.507492 0.0221282)
(-0.120864 0.528744 0.0281283)
(-0.146403 0.53957 0.0312673)
(-0.171031 0.543102 0.0327564)
(-0.194822 0.539829 0.0332562)
(-0.216639 0.531742 0.0327577)
(-0.237394 0.528598 0.0290476)
(-0.27436 0.514903 0.0206789)
(-0.311638 0.507038 0.0145056)
(-0.349412 0.49362 0.00835751)
(-0.344052 0.495414 0.0131173)
(-0.291676 0.425601 0.0180568)
(-0.261963 0.36795 0.017388)
(-0.27211 0.330127 0.02131)
(-0.302293 0.307204 0.0263557)
(-0.333016 0.285332 0.0295232)
(-0.36005 0.257759 0.0321073)
(-0.374264 0.230476 0.0219173)
(-0.387572 0.19505 0.0107647)
(-0.391378 0.169204 0.00094058)
(-0.379146 0.146934 -0.00404818)
(-0.362055 0.132273 -0.0108962)
(-0.335635 0.135235 -0.0160082)
(-0.311615 0.142442 -0.0184348)
(-0.285464 0.179722 -0.024813)
(-0.197144 0.172907 -0.0253502)
(-0.0901631 0.158954 -0.0234136)
(-0.019605 0.124626 -0.0123692)
(0.00579726 0.0512496 0.000142833)
(0.00789621 0.0165646 -0.00878777)
(0.0601747 0.0910747 -0.0287383)
(0.131867 0.150366 -0.0282799)
(0.161478 0.198728 -0.0163605)
(0.157401 0.240277 -0.0162036)
(0.130797 0.281707 -0.00810181)
(0.101132 0.335766 -0.00283955)
(0.0725613 0.382045 0.0130897)
(0.0409601 0.420127 0.0188011)
(0.0172496 0.446448 0.0266628)
(-0.0077146 0.467064 0.0266471)
(-0.035163 0.48049 0.0335845)
(-0.0586979 0.485096 0.0385573)
(-0.0814397 0.478084 0.0395805)
(-0.106867 0.462961 0.0368203)
(-0.133799 0.441161 0.0322956)
(-0.155398 0.41556 0.0274918)
(-0.182614 0.401307 0.0179464)
(-0.222821 0.379228 0.0122513)
(-0.264791 0.384204 0.00674814)
(-0.307633 0.395268 0.00406506)
(-0.327713 0.413874 0.00487361)
(-0.31953 0.393997 0.0078457)
(-0.295262 0.340855 0.00721604)
(-0.28824 0.290392 0.00752711)
(-0.31144 0.26981 0.0145312)
(-0.345914 0.245597 0.0208491)
(-0.377549 0.223606 0.024634)
(-0.399539 0.191485 0.0201275)
(-0.41312 0.161019 0.00826654)
(-0.416329 0.131742 0.0120222)
(-0.412577 0.110209 0.0173861)
(-0.392806 0.0913514 0.0163173)
(-0.369507 0.0913477 0.00884276)
(-0.338399 0.106059 -0.0109475)
(-0.304636 0.143024 -0.0227482)
(-0.221493 0.170809 -0.0237194)
(-0.106462 0.158631 -0.0217131)
(-0.0245121 0.132655 -0.0124263)
(0.00681263 0.0545189 0.000735732)
(0.00888859 0.0338704 -0.0112287)
(0.0679886 0.132212 -0.0345833)
(0.144098 0.194748 -0.032415)
(0.175806 0.234338 -0.0186121)
(0.176933 0.272662 -0.0146718)
(0.162471 0.311234 -0.0105706)
(0.140017 0.355856 -0.00115453)
(0.11201 0.390801 0.00730901)
(0.0873643 0.420188 0.0149301)
(0.0611469 0.440317 0.0304576)
(0.0340375 0.447628 0.0378352)
(0.0158558 0.446717 0.0458888)
(-0.00522592 0.433374 0.0474435)
(-0.0326537 0.410285 0.0453796)
(-0.0619807 0.385846 0.0375486)
(-0.0947044 0.353348 0.0279123)
(-0.117357 0.323634 0.0194748)
(-0.149772 0.302005 0.00518459)
(-0.185981 0.280933 0.00370515)
(-0.21002 0.296805 0.00379681)
(-0.252108 0.333863 0.00375629)
(-0.293139 0.364939 0.0047456)
(-0.323007 0.367642 0.0041542)
(-0.329 0.335195 0.00332536)
(-0.309447 0.278256 0.00141275)
(-0.314225 0.238718 0.00598684)
(-0.347263 0.216455 0.0120369)
(-0.383586 0.188973 0.0163405)
(-0.410862 0.161705 0.0110478)
(-0.430257 0.127377 0.0280589)
(-0.441363 0.0923962 0.0301822)
(-0.441878 0.0620815 0.0198698)
(-0.429594 0.0499136 0.0135498)
(-0.395684 0.0451108 0.00939646)
(-0.352244 0.061966 0.00144905)
(-0.31075 0.0948008 -0.0172619)
(-0.239501 0.147481 -0.0274287)
(-0.126167 0.156488 -0.0225466)
(-0.0274183 0.136263 -0.0148018)
(0.00476 0.0588857 -6.64128e-05)
(0.00841665 0.0559219 -0.0127522)
(0.0698763 0.17532 -0.0389248)
(0.15015 0.238521 -0.0365947)
(0.188874 0.27313 -0.0206583)
(0.200339 0.305476 -0.0120884)
(0.193239 0.337311 -0.00584863)
(0.175657 0.368953 -0.00500867)
(0.150606 0.392529 0.009532)
(0.125785 0.410852 0.0138392)
(0.103347 0.420282 0.0259834)
(0.0810406 0.422617 0.0350561)
(0.0546212 0.412404 0.0516246)
(0.0271989 0.387924 0.0531891)
(0.00538051 0.354272 0.0513411)
(-0.0272956 0.322007 0.0349569)
(-0.0663797 0.289022 0.0221368)
(-0.0919841 0.265542 0.0100801)
(-0.128163 0.235575 -0.00518673)
(-0.148906 0.234757 -0.00113822)
(-0.148595 0.253 0.00198981)
(-0.186727 0.279726 0.0040584)
(-0.247169 0.313984 0.00593265)
(-0.303436 0.330153 0.0059347)
(-0.335673 0.315642 0.00295919)
(-0.332197 0.271997 0.00119198)
(-0.316569 0.207225 0.00175894)
(-0.336126 0.178388 0.00701158)
(-0.372229 0.151661 0.00804886)
(-0.404414 0.123578 0.0278743)
(-0.435646 0.0883769 0.0385485)
(-0.453246 0.0535524 0.0415364)
(-0.452811 0.0267824 0.0531845)
(-0.44283 0.00219467 0.043096)
(-0.428141 -0.00352453 0.0327848)
(-0.390474 0.00801808 0.0242539)
(-0.33176 0.0492521 0.00246909)
(-0.246396 0.100328 -0.0238196)
(-0.136961 0.14509 -0.0238757)
(-0.0334361 0.133363 -0.0141876)
(0.00655574 0.0620508 -0.000638996)
(0.00705415 0.0691656 -0.0137728)
(0.069581 0.209916 -0.0432907)
(0.153973 0.278117 -0.0418648)
(0.201087 0.309046 -0.0233055)
(0.221723 0.33251 -0.00922527)
(0.221084 0.352489 -0.000582581)
(0.20555 0.375341 0.0035674)
(0.182151 0.387969 0.00593416)
(0.163452 0.39919 0.0129018)
(0.142712 0.401474 0.0253381)
(0.11729 0.393942 0.032705)
(0.091046 0.376785 0.0400863)
(0.0593365 0.349762 0.0493652)
(0.0284299 0.316232 0.0480556)
(-0.00371298 0.274526 0.0316043)
(-0.0390069 0.249005 0.0149572)
(-0.0752556 0.22838 -0.000295119)
(-0.10079 0.206132 -0.0080097)
(-0.10255 0.222075 -0.00403627)
(-0.106739 0.227175 0.000475195)
(-0.134799 0.228623 0.00910292)
(-0.184673 0.243407 0.0123209)
(-0.258219 0.271966 0.00950626)
(-0.316675 0.275853 0.00617769)
(-0.340637 0.25114 0.00338406)
(-0.324115 0.195528 0.00330218)
(-0.313637 0.137627 0.00515061)
(-0.347303 0.114398 0.0133479)
(-0.385298 0.07892 0.0270449)
(-0.420851 0.0473786 0.0368541)
(-0.441328 0.0151376 0.0597084)
(-0.462961 -0.0244987 0.044937)
(-0.470891 -0.0670443 0.0349758)
(-0.449596 -0.0889645 0.0182744)
(-0.407606 -0.076936 0.00361447)
(-0.356146 -0.0272535 0.0127593)
(-0.268468 0.0522093 -0.00299467)
(-0.146765 0.112912 -0.0310456)
(-0.0385858 0.127066 -0.0141771)
(0.00710208 0.0618218 -0.00235268)
(0.00586352 0.0839531 -0.0133705)
(0.0690316 0.24316 -0.0462434)
(0.156579 0.315623 -0.0471454)
(0.20975 0.34283 -0.0272787)
(0.237658 0.356824 -0.00809995)
(0.245014 0.365033 0.00483159)
(0.233848 0.374842 0.00975725)
(0.213254 0.383179 0.0138461)
(0.196528 0.388115 0.0155398)
(0.1751 0.382876 0.0191964)
(0.15224 0.369169 0.0196251)
(0.121374 0.347041 0.0314944)
(0.086078 0.316571 0.0300973)
(0.0493119 0.286023 0.0337094)
(0.0167658 0.25057 0.0239302)
(-0.0141582 0.221704 0.00567508)
(-0.0509558 0.206031 -0.00806343)
(-0.0625489 0.206153 -0.00822169)
(-0.0626911 0.21298 -0.00562173)
(-0.0770197 0.20493 0.00173667)
(-0.101887 0.194873 0.0135977)
(-0.129572 0.189752 0.0221823)
(-0.189226 0.199302 0.0186709)
(-0.266415 0.225369 0.00915052)
(-0.314191 0.214552 0.00540804)
(-0.323843 0.19041 0.00509862)
(-0.30377 0.12053 0.00701231)
(-0.312251 0.0792904 0.015849)
(-0.352496 0.0448405 0.0282606)
(-0.385112 0.00942532 0.0486372)
(-0.42748 -0.0349446 0.0387034)
(-0.467001 -0.0917407 0.0337696)
(-0.482531 -0.137329 0.022951)
(-0.471657 -0.170428 0.011945)
(-0.429571 -0.174116 -0.00203097)
(-0.360273 -0.131953 -0.00742704)
(-0.275378 -0.031493 0.00127819)
(-0.16462 0.0699654 -0.0165517)
(-0.042678 0.116067 -0.0183662)
(0.00645682 0.0639185 -0.00216172)
(0.00274321 0.0790701 -0.0138904)
(0.0638349 0.256864 -0.0470295)
(0.15447 0.334743 -0.0486516)
(0.214957 0.360013 -0.0282764)
(0.249733 0.366164 -0.00774118)
(0.260557 0.365626 0.00634288)
(0.257137 0.367387 0.0125343)
(0.242317 0.371097 0.0156072)
(0.225852 0.372161 0.0173596)
(0.204379 0.364693 0.0180727)
(0.178969 0.350065 0.0166887)
(0.14803 0.322511 0.0145342)
(0.112752 0.290662 0.0102713)
(0.073968 0.257304 0.0139645)
(0.0341659 0.234661 0.0092897)
(0.00639629 0.223287 -0.00225052)
(-0.0120368 0.219214 -0.00816054)
(-0.0219669 0.231161 -0.00537477)
(-0.0327525 0.219998 -0.000702523)
(-0.0499215 0.205266 0.00735273)
(-0.0692358 0.185721 0.0157753)
(-0.0932744 0.170292 0.0205334)
(-0.128213 0.152787 0.026047)
(-0.199892 0.168198 0.0135517)
(-0.265619 0.170494 0.0090831)
(-0.299325 0.157456 0.011662)
(-0.297204 0.117035 0.0126477)
(-0.286642 0.0496325 0.0202043)
(-0.312133 0.0114174 0.03291)
(-0.356521 -0.0319091 0.0303672)
(-0.405717 -0.0898008 0.0303586)
(-0.448484 -0.143964 0.0241219)
(-0.47475 -0.200193 0.0151942)
(-0.475729 -0.243166 0.00239293)
(-0.441473 -0.262371 -0.0117163)
(-0.374399 -0.229939 -0.018074)
(-0.277717 -0.143285 -0.0206034)
(-0.163327 0.00209215 -5.78921e-05)
(-0.0485947 0.0857371 -0.0271952)
(0.00535558 0.0605694 -0.00484937)
(0.00375219 0.0963088 -0.00694598)
(0.0633239 0.281944 -0.0435835)
(0.15278 0.363017 -0.0464218)
(0.21771 0.384389 -0.0267456)
(0.258953 0.382137 -0.00367265)
(0.279721 0.375084 0.00751621)
(0.283144 0.370448 0.0127299)
(0.271987 0.366599 0.0139849)
(0.257155 0.360633 0.0121405)
(0.235356 0.345524 0.00997943)
(0.206685 0.324717 0.00629194)
(0.16855 0.30152 0.00509795)
(0.130495 0.283647 0.00242689)
(0.0985665 0.272362 0.00415091)
(0.0788906 0.270457 -0.00127942)
(0.0562589 0.270014 -0.00726768)
(0.0349527 0.266691 -0.00546035)
(0.0134742 0.260744 -0.00445832)
(-0.011245 0.242767 0.00341572)
(-0.0291077 0.217443 0.00894252)
(-0.0492194 0.19158 0.0143771)
(-0.0698187 0.165967 0.0168994)
(-0.093062 0.140764 0.0224537)
(-0.145085 0.1267 0.0189173)
(-0.214314 0.132868 0.00894803)
(-0.257898 0.1191 0.00380689)
(-0.282324 0.103081 0.000443026)
(-0.277185 0.0511147 0.00742803)
(-0.280744 -0.00860708 0.0103463)
(-0.323308 -0.0669277 0.0177803)
(-0.371197 -0.123664 0.0187905)
(-0.417717 -0.187342 0.0161724)
(-0.452184 -0.250989 0.0097696)
(-0.464885 -0.306271 -0.00139589)
(-0.440314 -0.339901 -0.0159346)
(-0.380367 -0.326815 -0.0311924)
(-0.280854 -0.244386 -0.0366449)
(-0.16841 -0.089326 -0.0230933)
(-0.0510634 0.0474542 -0.0181534)
(0.00870212 0.0578379 -0.0100773)
(-0.00668581 0.0855061 -0.0198685)
(0.0455905 0.282086 -0.0505554)
(0.140082 0.372004 -0.0539061)
(0.212367 0.394809 -0.034443)
(0.264627 0.390956 -0.00935742)
(0.293405 0.377358 2.84271e-05)
(0.302652 0.363066 0.00687783)
(0.29371 0.350364 0.00655707)
(0.27522 0.348067 0.00477032)
(0.251221 0.352101 0.00352456)
(0.230145 0.357997 0.0034061)
(0.210535 0.35878 0.00292713)
(0.18871 0.353642 0.00113633)
(0.160602 0.343055 0.0034213)
(0.123505 0.330805 -0.00426494)
(0.0866049 0.309721 -0.0110596)
(0.0576161 0.286736 -0.00925619)
(0.0328434 0.261303 -0.00559506)
(0.00546185 0.239046 -0.000331752)
(-0.0158427 0.208773 0.00762688)
(-0.0317769 0.180718 0.0116112)
(-0.0521764 0.15376 0.0138486)
(-0.0725492 0.127684 0.0177588)
(-0.109116 0.103636 0.0202035)
(-0.169507 0.0973232 0.0101369)
(-0.217733 0.0851563 0.00387644)
(-0.243265 0.0705562 -0.000466245)
(-0.263528 0.0486709 0.000427851)
(-0.280033 -0.00721469 -0.00139353)
(-0.303681 -0.0700659 0.00107737)
(-0.344053 -0.132699 0.00599763)
(-0.386911 -0.200146 0.00861411)
(-0.417481 -0.277833 0.00460578)
(-0.434747 -0.355849 -0.00539073)
(-0.422338 -0.410404 -0.0200481)
(-0.370585 -0.417638 -0.0374643)
(-0.277648 -0.353275 -0.0576614)
(-0.166667 -0.203668 -0.0439459)
(-0.0474435 -0.00588845 -0.0106207)
(0.00941703 0.0477429 -0.0111225)
(-0.00510524 0.165988 -0.0129529)
(0.0450215 0.36902 -0.0370064)
(0.134908 0.463377 -0.043877)
(0.210488 0.484661 -0.0264407)
(0.268185 0.475314 -0.00887392)
(0.302922 0.452848 0.0016842)
(0.3174 0.43 0.00753903)
(0.323426 0.430469 0.0102482)
(0.332797 0.450082 0.00704532)
(0.328762 0.461809 0.00194627)
(0.305967 0.464506 -0.0035904)
(0.262946 0.448259 -0.00680594)
(0.214675 0.419411 -0.00652942)
(0.171445 0.377334 -0.00391258)
(0.135 0.337893 -0.000181962)
(0.0959711 0.303552 -0.00678104)
(0.0670265 0.2771 -0.00738956)
(0.0466365 0.241906 -0.00505318)
(0.0189546 0.215372 -0.00135485)
(-0.00274756 0.18868 0.00613771)
(-0.0182153 0.157412 0.0107637)
(-0.03583 0.131256 0.0126749)
(-0.0550665 0.106459 0.0148866)
(-0.0850968 0.0825665 0.0174667)
(-0.138838 0.0684391 0.00684973)
(-0.184292 0.0542513 -5.75838e-05)
(-0.208456 0.0426782 0.00245087)
(-0.231271 0.0249873 0.00361189)
(-0.258996 -0.00459595 0.000720377)
(-0.287721 -0.0526277 -0.00303942)
(-0.317383 -0.124056 -0.0100523)
(-0.362916 -0.208125 -0.0119346)
(-0.404845 -0.28367 -0.00886695)
(-0.420669 -0.356903 -0.0110615)
(-0.401035 -0.426143 -0.0226976)
(-0.356272 -0.463941 -0.0480348)
(-0.277159 -0.436611 -0.0695631)
(-0.161095 -0.288809 -0.0640203)
(-0.0375697 -0.0863588 -0.0318347)
(0.0100775 0.0370385 -0.00912995)
(-0.0194504 0.285053 -0.0285672)
(0.0195142 0.513302 -0.0458627)
(0.111951 0.617215 -0.0524934)
(0.191129 0.649624 -0.0354371)
(0.25844 0.641572 -0.0210255)
(0.302203 0.617614 -0.00846739)
(0.345982 0.584892 0.00113226)
(0.38434 0.574655 -0.000350704)
(0.38131 0.567961 -0.00425833)
(0.346798 0.542823 -0.00752263)
(0.305512 0.504546 -0.00815914)
(0.260636 0.457196 -0.00806919)
(0.214797 0.410919 -0.006699)
(0.172926 0.363869 -0.00263314)
(0.137901 0.322547 -0.000638079)
(0.109489 0.2821 0.0038264)
(0.0774329 0.254997 -0.0030081)
(0.0521613 0.22384 -0.00385863)
(0.0339533 0.192032 -0.000782442)
(0.00797191 0.166562 0.00263677)
(-0.00794138 0.137697 0.0103973)
(-0.0222977 0.110814 0.0114842)
(-0.0404083 0.0861281 0.0132908)
(-0.0651178 0.0635716 0.0158133)
(-0.112989 0.0442473 0.00540841)
(-0.15327 0.0330359 0.00491895)
(-0.173865 0.0221294 0.00520162)
(-0.19963 0.00624472 0.00618879)
(-0.228887 -0.0115065 0.0067737)
(-0.27263 -0.0387167 0.00354826)
(-0.321426 -0.090922 0.00362244)
(-0.340684 -0.168186 -0.00160384)
(-0.345297 -0.274712 -0.0205676)
(-0.367167 -0.403236 -0.0392267)
(-0.376968 -0.505077 -0.057902)
(-0.355232 -0.577655 -0.080937)
(-0.27275 -0.567391 -0.0948169)
(-0.18202 -0.432773 -0.0984474)
(-0.0581018 -0.165494 -0.0541677)
(0.020521 0.0276989 -0.0147974)
(-0.00424461 0.277926 -0.00406986)
(0.0356401 0.524595 -0.038314)
(0.116441 0.643054 -0.0484117)
(0.196287 0.692193 -0.0402137)
(0.262451 0.691863 -0.0293301)
(0.305629 0.669405 -0.0188564)
(0.344742 0.635622 -0.00917217)
(0.379171 0.596163 -0.0047599)
(0.377893 0.557824 -0.00453679)
(0.347101 0.519825 -0.00335271)
(0.307101 0.481006 -0.00279025)
(0.260487 0.438057 -0.00234696)
(0.214379 0.391541 -0.000978026)
(0.174681 0.345725 -0.000299913)
(0.141124 0.30177 0.00171957)
(0.112298 0.262732 0.00329571)
(0.090449 0.22728 0.0073148)
(0.064309 0.200629 0.00133714)
(0.0412338 0.17236 -0.000626441)
(0.0211713 0.144254 0.00282298)
(0.00269009 0.120819 0.00777591)
(-0.0121016 0.0924901 0.0105363)
(-0.0275376 0.0692904 0.0116585)
(-0.0515342 0.0460193 0.0143289)
(-0.0915586 0.0244874 0.00469717)
(-0.124017 0.0153615 0.00787639)
(-0.145561 0.001482 0.0090654)
(-0.164074 -0.0105694 0.0123287)
(-0.186746 -0.0232478 0.0107087)
(-0.227374 -0.0421944 0.00825966)
(-0.280539 -0.0649962 0.00605901)
(-0.346161 -0.110521 0.00293987)
(-0.406698 -0.197207 0.00303027)
(-0.406456 -0.328737 -0.00325835)
(-0.367403 -0.467643 -0.0201159)
(-0.323759 -0.591301 -0.0389531)
(-0.2465 -0.649582 -0.0713544)
(-0.131125 -0.576799 -0.0790304)
(-0.0190061 -0.301355 -0.0765153)
(0.017745 -0.00889363 -0.0074395)
(0.00126994 0.281453 -0.000293256)
(0.0390231 0.506371 -0.0324881)
(0.111587 0.626834 -0.0408909)
(0.189458 0.677067 -0.0355345)
(0.255336 0.677053 -0.0205476)
(0.303329 0.652404 -0.0130449)
(0.345796 0.61825 -0.00253361)
(0.381265 0.577784 0.000111925)
(0.38113 0.537109 0.000220291)
(0.348987 0.499404 0.00116411)
(0.306915 0.458937 0.00176707)
(0.258696 0.415895 0.00241877)
(0.212403 0.368828 0.00328213)
(0.172884 0.323377 0.0046618)
(0.142466 0.279022 0.00495125)
(0.119645 0.239428 0.00642296)
(0.0972028 0.203253 0.00689999)
(0.0770824 0.171489 0.00777929)
(0.0553671 0.146624 0.00768169)
(0.0318127 0.122256 0.00217014)
(0.0134007 0.101057 0.00708341)
(-0.00245267 0.0769056 0.00912076)
(-0.0163253 0.0528251 0.0106816)
(-0.0389126 0.028861 0.0103707)
(-0.0705874 0.0118177 0.00793507)
(-0.0994595 0.00108793 0.00968752)
(-0.116512 -0.00972428 0.0121122)
(-0.13135 -0.0204493 0.0131776)
(-0.153089 -0.0361115 0.0143393)
(-0.185549 -0.0546916 0.0136359)
(-0.231647 -0.0769195 0.0124764)
(-0.281959 -0.108434 0.0108941)
(-0.337502 -0.146816 0.00522784)
(-0.382617 -0.209345 -0.00155023)
(-0.39174 -0.313671 -0.00949386)
(-0.375414 -0.444437 -0.0183077)
(-0.302816 -0.544824 -0.0314061)
(-0.184493 -0.538011 -0.056127)
(-0.0262534 -0.320272 -0.0553332)
(0.0430837 0.0333302 -0.0263136)
(0.00520434 0.267855 0.00508111)
(0.0437307 0.478382 -0.0243956)
(0.11094 0.601821 -0.032959)
(0.185016 0.657683 -0.0306113)
(0.249534 0.664742 -0.0143617)
(0.298894 0.641225 -0.00906322)
(0.340744 0.60537 -2.29089e-05)
(0.372522 0.561391 0.00305835)
(0.375025 0.512088 0.00305475)
(0.346431 0.471104 0.00409216)
(0.304292 0.429017 0.00493938)
(0.255003 0.385452 0.00609581)
(0.209331 0.340331 0.00803355)
(0.173045 0.297481 0.00949404)
(0.144203 0.25686 0.0110183)
(0.121495 0.218979 0.0127177)
(0.104922 0.182366 0.0140489)
(0.0872439 0.152844 0.0139229)
(0.0686073 0.124691 0.0134416)
(0.049267 0.104496 0.0134921)
(0.0284014 0.0823241 0.00717642)
(0.00884038 0.0624417 0.00876063)
(-0.00735886 0.0385641 0.0118187)
(-0.0240262 0.0179109 0.00978717)
(-0.0492095 -5.39083e-05 0.00867253)
(-0.0722188 -0.0092713 0.0105404)
(-0.0882901 -0.0192494 0.0108412)
(-0.103296 -0.0324574 0.0123924)
(-0.120991 -0.049193 0.0138416)
(-0.148931 -0.0698515 0.0150641)
(-0.187077 -0.0933747 0.0164418)
(-0.230811 -0.12509 0.0165133)
(-0.279899 -0.167813 0.0176814)
(-0.309769 -0.226704 0.0172515)
(-0.329218 -0.305852 0.011644)
(-0.343969 -0.422537 0.00304836)
(-0.319901 -0.514429 -0.0137774)
(-0.227929 -0.537721 -0.0373609)
(-0.0665549 -0.331278 -0.0499589)
(0.0228538 0.0463935 -0.0138803)
(0.00922246 0.245447 0.00127965)
(0.047995 0.432293 -0.0201548)
(0.109072 0.561586 -0.0279156)
(0.181673 0.620353 -0.0266254)
(0.244885 0.634487 -0.0144369)
(0.293825 0.613625 -0.00663237)
(0.337127 0.577304 0.00122287)
(0.364787 0.533635 0.00475763)
(0.367656 0.482298 0.00540227)
(0.343037 0.437901 0.00627123)
(0.300198 0.393925 0.00777172)
(0.251986 0.351443 0.0101639)
(0.209382 0.310441 0.0128776)
(0.175953 0.271633 0.0151489)
(0.150488 0.234831 0.0143359)
(0.130326 0.199955 0.0136257)
(0.114068 0.166336 0.0134385)
(0.0995277 0.133328 0.0129686)
(0.0837815 0.0968129 0.0121614)
(0.0628429 0.0790317 0.00994198)
(0.0418783 0.0643976 0.011858)
(0.0223213 0.0476366 0.00854097)
(0.00665967 0.0294015 0.011189)
(-0.00994034 0.0103181 0.00915588)
(-0.0290227 -0.00709094 0.00994335)
(-0.0472972 -0.0162254 0.00981784)
(-0.0639266 -0.0282497 0.0108564)