/*--------------------------------*- C++ -*----------------------------------*\
| =========                 |                                                 |
| \\      /  F ield         | OpenFOAM: The Open Source CFD Toolbox           |
|  \\    /   O peration     | Version:  v1806                                 |
|   \\  /    A nd           | Web:      www.OpenFOAM.com                      |
|    \\/     M anipulation  |                                                 |
\*---------------------------------------------------------------------------*/
FoamFile
{
    version     2.0;
    format      ascii;
    class       vectorField;
    location    "0.082";
    object      currentcloudofpoints;
}
// * * * * * * * * * * * * * * * * * * * * * * * * * * * * * * * * * * * * * //


2409
(
(0.982629 1.42236 0.993532)
(0.754504 1.05327 1.06182)
(1.35631 1.29 0.999098)
(1.05643 1.27098 0.813389)
(1.04686 1.25812 1.16239)
(1.09615 1.11005 1.00017)
(0.936876 1.54842 1.00514)
(0.58437 0.91248 0.988564)
(1.56338 1.41782 0.999073)
(1.17067 1.08916 0.71184)
(1.10583 1.10013 1.21548)
(1.32343 1.28103 1.0648)
(1.23523 1.27721 1.10461)
(1.17015 1.25348 1.11853)
(1.06362 1.22682 1.08391)
(1.34431 1.28798 1.03543)
(1.27816 1.27228 1.08314)
(1.19603 1.28037 1.13099)
(1.12747 1.22647 1.0877)
(1.02787 1.25475 1.1149)
(0.767534 0.989549 1.23001)
(0.78729 1.12089 1.33363)
(0.888104 1.19983 1.34326)
(0.964747 1.23054 1.25731)
(0.77445 0.989278 1.18799)
(0.763579 1.03998 1.28887)
(0.846372 1.17152 1.35395)
(0.92322 1.22387 1.29812)
(1.01457 1.23844 1.20599)
(1.31766 1.28419 0.932738)
(1.23725 1.27013 0.893378)
(1.15782 1.25741 0.884603)
(1.05425 1.22695 0.917647)
(1.33866 1.28709 0.961768)
(1.27739 1.27395 0.914787)
(1.19194 1.26858 0.878446)
(1.11512 1.2394 0.908025)
(1.02712 1.25793 0.886734)
(0.941956 1.2241 0.713855)
(0.851802 1.17545 0.677793)
(0.805873 1.08901 0.707702)
(0.782648 0.99054 0.799869)
(1.01075 1.24464 0.767559)
(0.889526 1.20756 0.691493)
(0.825491 1.13926 0.684749)
(0.816237 1.04049 0.753934)
(0.706757 0.998304 0.865729)
(1.03188 1.35424 1.199)
(1.07409 1.42141 1.25651)
(1.04154 1.42418 1.19768)
(1.00512 1.42183 1.07303)
(1.02723 1.30004 1.18152)
(1.05761 1.38477 1.23605)
(1.06097 1.43469 1.23458)
(1.02473 1.41623 1.12502)
(0.989714 1.42503 1.02422)
(1.00009 1.40736 0.916388)
(1.04037 1.42699 0.774784)
(1.08127 1.44019 0.722795)
(1.03963 1.35633 0.775202)
(0.97846 1.40493 0.96483)
(1.02559 1.41194 0.861598)
(1.05911 1.4497 0.743622)
(1.0741 1.39217 0.735333)
(1.03558 1.30544 0.7937)
(0.752244 1.05405 1.10584)
(0.746654 1.07543 1.10471)
(0.739523 1.1227 1.03124)
(0.833872 1.30007 1.0045)
(0.759164 1.0496 1.11832)
(0.748942 1.06768 1.10372)
(0.747777 1.10644 1.09672)
(0.745367 1.17622 0.986804)
(0.914951 1.32665 1.00534)
(1.14903 1.45974 0.993019)
(1.23099 1.4336 0.993467)
(1.25646 1.38411 0.995789)
(1.30896 1.32342 0.998915)
(1.07863 1.46116 0.989318)
(1.1933 1.44659 0.994293)
(1.24489 1.41361 0.993583)
(1.24677 1.35546 0.997777)
(1.35026 1.31288 0.999002)
(0.508089 1.01856 1.16386)
(0.611077 1.01557 1.30108)
(0.82031 1.05249 1.45387)
(0.90342 1.05288 1.49535)
(0.975927 1.01775 1.36963)
(0.999589 1.08214 1.2488)
(1.04304 1.09353 1.19452)
(0.56486 0.95376 1.10346)
(0.5312 1.02685 1.23378)
(0.721692 1.03233 1.3957)
(0.871164 1.05333 1.48311)
(0.94069 1.04536 1.44401)
(0.998823 1.03903 1.29929)
(1.0162 1.10835 1.19696)
(1.07215 1.09456 1.19647)
(1.19362 1.14614 1.34936)
(1.25948 1.16548 1.34218)
(1.31693 1.20194 1.30694)
(1.37134 1.24011 1.28059)
(1.43593 1.27175 1.23944)
(1.50496 1.33207 1.18162)
(1.55274 1.39542 1.10056)
(1.15867 1.11257 1.28162)
(1.22822 1.15477 1.35129)
(1.28866 1.18208 1.32134)
(1.3421 1.22229 1.28988)
(1.39962 1.25436 1.26074)
(1.46848 1.29667 1.21026)
(1.53089 1.36264 1.14417)
(1.55993 1.40845 1.05069)
(0.518136 1.01755 0.814212)
(0.602266 0.994115 0.716299)
(0.81757 1.03593 0.538779)
(0.907712 1.05426 0.504565)
(0.990804 1.0269 0.625803)
(1.02355 1.07291 0.743038)
(1.08102 1.06016 0.767122)
(0.57361 0.964692 0.864833)
(0.515723 1.05134 0.769713)
(0.716998 1.01693 0.594384)
(0.873643 1.04783 0.51521)
(0.950788 1.05048 0.55451)
(1.01428 1.03774 0.695118)
(1.03618 1.07844 0.779686)
(1.13319 1.06737 0.749494)
(1.55073 1.395 0.899666)
(1.50557 1.33448 0.817816)
(1.43652 1.27466 0.761358)
(1.37207 1.24147 0.720515)
(1.31895 1.20315 0.694217)
(1.26818 1.16508 0.661857)
(1.21479 1.13669 0.646894)
(1.55794 1.40755 0.948177)
(1.53015 1.36392 0.856209)
(1.46957 1.30003 0.78897)
(1.40017 1.25613 0.741165)
(1.34283 1.22422 0.709592)
(1.29331 1.18258 0.682969)
(1.24148 1.15047 0.653275)
(1.19257 1.11507 0.667015)
(0.92368 1.62237 1.19673)
(0.932109 1.57655 1.29796)
(0.908763 1.50077 1.31007)
(0.979431 1.41342 1.39258)
(0.985386 1.29058 1.4467)
(1.05348 1.2116 1.4581)
(1.09764 1.13032 1.25584)
(0.919528 1.62771 1.10457)
(0.934856 1.60064 1.26604)
(0.916004 1.53383 1.30865)
(0.945119 1.46519 1.34149)
(0.976373 1.33932 1.42178)
(1.01805 1.2478 1.44938)
(1.10857 1.17672 1.40935)
(1.09404 1.14332 1.20881)
(0.926111 1.63698 0.786341)
(0.930172 1.57468 0.705385)
(0.918007 1.50493 0.688881)
(0.982026 1.41518 0.609361)
(1.00586 1.27563 0.544555)
(1.05572 1.20609 0.567132)
(1.13062 1.13947 0.697359)
(0.915792 1.632 0.870884)
(0.92816 1.60729 0.7351)
(0.919686 1.53334 0.696128)
(0.938574 1.47305 0.665777)
(0.991798 1.33026 0.562005)
(1.0304 1.23859 0.5613)
(1.08446 1.18149 0.597547)
(1.14892 1.11298 0.734359)
(0.579526 1.00013 0.994299)
(0.615318 1.01063 1.0053)
(0.664388 1.01067 0.992622)
(0.670077 1.1617 1.00479)
(0.718942 1.27206 1.01954)
(0.768711 1.34556 1.00332)
(0.839733 1.44807 1.00322)
(0.57489 0.964566 0.988178)
(0.595243 1.01096 1.00186)
(0.641073 1.00183 1.00223)
(0.66912 1.06606 0.98845)
(0.696789 1.2217 1.02417)
(0.742777 1.30689 1.00929)
(0.798542 1.38815 0.996924)
(0.878296 1.49844 0.99961)
(1.05629 1.56459 1.01919)
(1.14224 1.60201 1.01389)
(1.21146 1.61872 1.01738)
(1.31339 1.5939 1.00467)
(1.39972 1.5791 1.00091)
(1.4636 1.54636 0.998455)
(1.52057 1.49037 0.99943)
(0.995775 1.55882 1.01642)
(1.10862 1.58103 1.01509)
(1.17552 1.6157 1.01753)
(1.26327 1.60511 1.01016)
(1.36575 1.58341 1.00253)
(1.43674 1.55925 0.999036)
(1.49353 1.51299 0.998775)
(1.54632 1.45669 0.999319)
(1.04673 1.17772 0.894171)
(1.13082 1.08169 0.784601)
(1.06582 1.25417 0.855357)
(1.04642 1.18419 1.10404)
(1.05099 1.24259 1.13002)
(1.08607 1.11846 1.17142)
(0.686479 0.867353 1.00987)
(0.747714 0.991456 0.956197)
(0.602789 0.896978 0.987787)
(1.45821 1.32533 0.998175)
(1.41273 1.30966 0.999518)
(1.51096 1.34875 0.998017)
(1.14997 1.5571 1.31777)
(1.19791 1.65215 1.19867)
(1.16506 1.30679 1.35333)
(1.4056 1.54193 1.20477)
(1.06179 1.62831 1.14821)
(1.19967 1.22712 1.35743)
(1.51311 1.45911 1.16292)
(1.43931 1.47755 1.26016)
(1.09286 1.62825 1.25165)
(1.27746 1.60015 1.2646)
(1.30014 1.59761 1.18677)
(1.00402 1.51887 1.31814)
(1.31321 1.48096 1.30228)
(1.4634 1.52987 1.15866)
(1.20981 1.48525 1.3391)
(1.4865 1.52175 1.07796)
(1.2497 1.27671 1.36294)
(1.43559 1.55802 1.09488)
(1.01028 1.62044 1.23591)
(1.14276 1.1938 1.33977)
(1.06807 1.31257 1.40578)
(1.2334 1.40028 1.32659)
(1.45127 1.36307 1.26681)
(1.19483 1.63077 1.13167)
(1.01064 1.58845 1.308)
(1.16308 1.40296 1.35777)
(1.3838 1.31823 1.3095)
(1.34199 1.40852 1.32805)
(0.993809 1.62999 1.12862)
(1.15519 1.14728 1.31069)
(1.53434 1.47085 1.06885)
(1.09828 1.47709 1.35168)
(1.03967 1.40941 1.38609)
(1.31875 1.31016 1.34366)
(1.26818 1.60411 1.0889)
(1.38152 1.5775 1.10921)
(1.19367 1.18958 1.35963)
(1.2314 1.20539 1.36005)
(1.12404 1.11782 1.24251)
(1.1678 1.15389 1.3381)
(1.17823 1.19145 1.34761)
(1.26562 1.22085 1.35223)
(1.29725 1.2356 1.33492)
(1.22832 1.25269 1.35879)
(1.32546 1.25245 1.31527)
(1.35092 1.27269 1.30444)
(1.28677 1.29228 1.3519)
(1.37624 1.27786 1.28861)
(1.40877 1.28933 1.26596)
(1.34993 1.31648 1.3293)
(1.44212 1.31079 1.24545)
(1.47684 1.34183 1.21748)
(1.41618 1.33356 1.2877)
(1.51432 1.39202 1.17732)
(1.53441 1.42568 1.13016)
(1.48745 1.40678 1.22615)
(1.54817 1.43635 1.0855)
(1.55226 1.44576 1.03336)
(1.52377 1.46402 1.11594)
(1.52767 1.48066 1.03494)
(1.10636 1.61122 1.0907)
(1.04748 1.61001 1.09202)
(1.02528 1.62664 1.13987)
(1.0146 1.60196 1.07189)
(0.960362 1.61322 1.07378)
(1.21993 1.61059 1.08523)
(1.17147 1.61429 1.09325)
(1.12692 1.62952 1.14521)
(1.29635 1.59473 1.04889)
(1.24506 1.60659 1.05479)
(1.23626 1.61436 1.11455)
(1.39385 1.57475 1.05357)
(1.35897 1.58263 1.05996)
(1.33625 1.5855 1.11173)
(1.45085 1.54723 1.04691)
(1.42191 1.56336 1.0505)
(1.41232 1.56503 1.1027)
(1.50366 1.50245 1.04013)
(1.47546 1.53088 1.03874)
(1.46309 1.53638 1.08694)
(1.51091 1.49185 1.07618)
(1.12124 1.59328 1.29299)
(1.1359 1.63942 1.228)
(1.16903 1.61703 1.26469)
(1.2344 1.63462 1.2299)
(1.20975 1.58821 1.28817)
(1.13651 1.64528 1.18192)
(1.19947 1.64588 1.16427)
(1.25162 1.63165 1.18471)
(1.29012 1.60641 1.227)
(1.25184 1.61796 1.1524)
(1.19131 1.26416 1.34368)
(1.21201 1.29662 1.34663)
(1.17291 1.20913 1.33573)
(1.15108 1.25675 1.35329)
(1.20152 1.35321 1.33163)
(1.23677 1.33362 1.34086)
(1.11803 1.31446 1.38185)
(1.11039 1.25895 1.39488)
(1.15962 1.3532 1.35556)
(1.11651 1.36591 1.38069)
(1.20001 1.406 1.3318)
(1.39768 1.55654 1.16504)
(1.42698 1.5469 1.15442)
(1.3595 1.55636 1.21262)
(1.34907 1.57464 1.163)
(1.37344 1.47296 1.28231)
(1.3729 1.50617 1.26406)
(1.42883 1.50897 1.23163)
(1.4388 1.53271 1.18313)
(1.46064 1.50431 1.21353)
(1.45111 1.54188 1.12768)
(1.35281 1.5423 1.25441)
(1.30261 1.52346 1.2996)
(1.05199 1.61888 1.25374)
(1.03236 1.62947 1.18823)
(1.07484 1.63403 1.20453)
(0.997713 1.62798 1.18399)
(0.968736 1.6186 1.22302)
(0.979188 1.60218 1.27819)
(0.958383 1.63135 1.16286)
(0.971504 1.58203 1.30358)
(0.954503 1.54224 1.31458)
(1.01585 1.60502 1.28289)
(0.954041 1.51439 1.30772)
(0.974671 1.47592 1.32716)
(1.0094 1.54855 1.32252)
(1.004 1.33662 1.40975)
(1.00965 1.40984 1.38727)
(1.00745 1.47729 1.32936)
(1.02557 1.29632 1.42039)
(1.06561 1.25343 1.4298)
(1.05072 1.35888 1.39557)
(1.11326 1.20622 1.40824)
(1.12822 1.14932 1.30108)
(1.12411 1.13536 1.25403)
(1.1537 1.16263 1.30328)
(1.07032 1.52813 1.32752)
(1.11503 1.51318 1.33626)
(1.03881 1.49797 1.325)
(1.15642 1.48376 1.34918)
(1.18259 1.52124 1.32957)
(1.06107 1.56195 1.31987)
(1.24394 1.53172 1.31497)
(1.50278 1.49003 1.12357)
(1.06896 1.44845 1.36187)
(1.0982 1.40244 1.38096)
(1.13813 1.44116 1.36312)
(1.18302 1.45196 1.34884)
(1.28987 1.59911 1.14466)
(1.49067 1.49239 1.16719)
(1.48176 1.4619 1.22142)
(1.44286 1.42051 1.27666)
(1.47652 1.5205 1.12125)
(1.38525 1.43746 1.29866)
(1.32403 1.45042 1.30864)
(1.40068 1.38194 1.30699)
(1.0575 1.60159 1.2929)
(1.26118 1.4825 1.31907)
(1.22214 1.44522 1.3328)
(1.26677 1.4445 1.32138)
(1.28126 1.40806 1.33064)
(1.27061 1.35706 1.34002)
(1.32338 1.35846 1.34356)
(1.36451 1.36273 1.32935)
(0.797676 1.27262 1.44962)
(0.635693 1.44689 1.22966)
(0.555375 1.21326 1.18121)
(0.601213 1.16667 1.23887)
(0.710799 1.44602 1.26143)
(0.91644 1.25436 1.50668)
(0.523508 1.12243 1.21614)
(0.854757 1.57248 1.28101)
(1.03126 1.12848 1.43404)
(0.654299 1.38239 1.23892)
(0.720326 1.18762 1.3587)
(0.737442 1.52603 1.26799)
(0.830954 1.35855 1.42541)
(0.956998 1.12789 1.52976)
(0.929565 1.3218 1.46477)
(0.861429 1.42888 1.36798)
(0.679443 1.09753 1.33056)
(1.03677 1.1738 1.46488)
(0.515456 1.14659 1.1435)
(0.662414 1.35443 1.12378)
(0.983588 1.18481 1.50683)
(0.808004 1.47518 1.29081)
(0.984795 1.23814 1.46845)
(0.653016 1.26069 1.12483)
(0.894832 1.15768 1.50202)
(0.858728 1.11766 1.4775)
(0.611032 1.29063 1.22872)
(0.80349 1.21052 1.45573)
(0.919905 1.09966 1.52056)
(0.907411 1.1987 1.51888)
(0.55931 1.26699 1.15099)
(0.593114 1.34798 1.18345)
(0.540312 1.04649 1.14142)
(1.05935 1.15077 1.21516)
(0.631192 1.16906 1.10942)
(0.789985 1.55644 1.11065)
(0.762383 1.39094 1.11548)
(0.511378 1.14627 1.18406)
(0.539554 1.1666 1.19065)
(0.582984 1.13987 1.2375)
(0.490895 1.10812 1.17575)
(0.518068 1.10645 1.14867)
(0.643138 1.11441 1.28042)
(0.623291 1.08632 1.27271)
(0.491003 1.07756 1.19381)
(0.559523 1.07858 1.24644)
(0.517538 1.04627 1.15018)
(0.642689 1.05054 1.31594)
(1.04296 1.06785 1.27811)
(1.03213 1.13274 1.20807)
(0.965094 1.095 1.47045)
(0.999673 1.08938 1.42851)
(0.981031 1.13328 1.50564)
(1.0557 1.14307 1.18009)
(1.07936 1.14774 1.18418)
(1.06281 1.09025 1.26654)
(0.68339 1.49311 1.24973)
(0.729431 1.47792 1.26861)
(0.682988 1.45552 1.25478)
(0.779834 1.48945 1.28162)
(0.754796 1.45181 1.26872)
(0.7559 1.37499 1.31511)
(0.767624 1.40515 1.29643)
(0.850587 1.39801 1.4011)
(0.677486 1.41683 1.24454)
(0.746556 1.34948 1.33238)
(0.814742 1.43658 1.30676)
(0.650729 1.41956 1.23434)
(0.576371 1.19224 1.20869)
(0.530228 1.18127 1.16544)
(0.563366 1.166 1.11963)
(0.543552 1.20685 1.1322)
(0.582431 1.10129 1.1166)
(0.572461 1.05759 1.11725)
(0.576932 0.995359 1.08032)
(0.634848 1.09352 1.0794)
(0.799427 1.53711 1.28483)
(0.831851 1.51378 1.29678)
(0.765853 1.57642 1.23361)
(0.829877 1.60299 1.2339)
(0.647396 1.46674 1.1819)
(0.694559 1.52774 1.19399)
(0.765857 1.46343 1.09212)
(0.890077 1.33069 1.45756)
(0.905812 1.37755 1.4238)
(0.921738 1.28703 1.48187)
(0.876265 1.29142 1.4809)
(0.816409 1.31001 1.44588)
(0.867413 1.25498 1.49266)
(0.727467 1.3146 1.34054)
(0.94567 1.07932 1.4822)
(0.944098 1.11431 1.51913)
(0.97514 1.15894 1.51142)
(0.998567 1.15879 1.48693)
(0.947959 1.16564 1.5222)
(0.952158 1.19493 1.52065)
(0.938886 1.1434 1.51717)
(0.916518 1.13146 1.50917)
(0.905291 1.17796 1.50943)
(0.948298 1.35594 1.4268)
(0.935593 1.42525 1.39237)
(0.958786 1.30733 1.4518)
(0.981225 1.26604 1.45313)
(0.950583 1.2823 1.46233)
(0.951744 1.25082 1.47817)
(0.893351 1.4572 1.34096)
(0.857892 1.4809 1.3044)
(1.10686 1.13864 1.37748)
(1.0469 1.19094 1.46325)
(1.0228 1.19576 1.46605)
(1.02003 1.21967 1.46364)
(1.07149 1.14314 1.23105)
(1.09974 1.11212 1.35188)
(1.04373 1.14857 1.43869)
(1.01707 1.17348 1.46577)
(0.994717 1.20578 1.46994)
(0.609987 1.21589 1.24079)
(0.632422 1.1744 1.26959)
(0.584908 1.25441 1.19847)
(0.651615 1.23227 1.28631)
(0.587848 1.22203 1.12479)
(0.548799 1.23836 1.16064)
(0.582484 1.2851 1.18476)
(0.70375 1.1485 1.34275)
(0.891476 1.56818 1.29043)
(0.891601 1.60552 1.24541)
(0.85694 1.61581 1.17493)
(0.857289 1.52904 1.0561)
(0.86369 1.51805 1.30168)
(0.913542 1.22595 1.513)
(0.861258 1.22498 1.49536)
(0.712126 1.27671 1.34089)
(0.632588 1.32992 1.23507)
(0.801977 1.23864 1.45606)
(0.70858 1.24793 1.34455)
(0.864666 1.20133 1.49477)
(0.575425 0.956273 1.07722)
(0.663739 1.07876 1.05174)
(0.673433 1.11214 1.0393)
(0.718357 1.32552 1.08476)
(0.695038 1.27465 1.08902)
(0.679294 1.19246 1.07233)
(0.648722 1.20425 1.12311)
(0.653662 1.3117 1.11963)
(0.76295 1.35863 1.05335)
(0.735866 1.33384 1.05258)
(0.71226 1.37669 1.12091)
(0.839008 1.46029 1.08173)
(0.797307 1.39892 1.0659)
(0.741359 1.08039 1.40506)
(0.887741 1.08339 1.49831)
(0.843226 1.08691 1.46745)
(0.769024 1.11735 1.41724)
(0.913801 1.07538 1.50863)
(0.899741 1.10884 1.50176)
(0.95586 1.22074 1.50375)
(0.792937 1.14981 1.43072)
(0.610903 1.39738 1.20487)
(0.623617 1.37553 1.2134)
(0.6 1.31805 1.19734)
(0.882978 1.1383 1.48806)
(0.822942 1.16955 1.45611)
(0.773333 1.20274 1.41865)
(0.856282 1.18157 1.48467)
(0.606092 1.35748 1.15609)
(0.616102 1.41044 1.17702)
(0.593194 1.26604 1.12906)
(0.591181 1.30804 1.14102)
(0.57716 1.30478 1.16341)
(0.678108 1.23761 0.657631)
(0.731258 1.3598 0.701648)
(0.622009 1.14744 0.741652)
(0.644711 1.12351 0.751957)
(0.683273 1.50566 0.745358)
(0.934933 1.22212 0.484075)
(0.792405 1.54442 0.719835)
(0.999325 1.18606 0.496186)
(0.606479 1.21979 0.77956)
(0.652286 1.41989 0.748253)
(0.89475 1.14066 0.489544)
(0.873742 1.44107 0.623072)
(0.854012 1.27738 0.53372)
(0.640685 1.28709 0.746737)
(0.881099 1.21267 0.500107)
(0.734476 1.45181 0.722801)
(0.967128 1.25681 0.497381)
(0.604875 1.06198 0.722908)
(1.03167 1.11472 0.593425)
(0.529686 1.10958 0.80947)
(0.668668 1.19149 0.80569)
(0.636809 1.38643 0.861414)
(0.613642 1.26098 0.861758)
(0.602542 1.11315 0.817362)
(0.821103 1.48317 0.699671)
(0.560555 1.32189 0.800076)
(0.76038 1.13114 0.558178)
(0.571498 1.19287 0.828178)
(0.925951 1.3262 0.528118)
(0.753165 1.43155 0.909563)
(0.951299 1.13607 0.47444)
(0.56913 1.04904 0.843458)
(0.843734 1.62148 0.792833)
(0.794974 1.2114 0.543608)
(0.857814 1.35734 0.567405)
(1.09445 1.11921 0.75641)
(0.615547 1.25645 0.768191)
(0.676206 1.26349 0.684918)
(0.623926 1.22179 0.737471)
(0.623987 1.19853 0.715862)
(0.622093 1.17976 0.75271)
(0.74254 1.21763 0.588738)
(0.7436 1.26866 0.606423)
(0.642686 1.16961 0.661723)
(0.718911 1.17649 0.598749)
(0.788378 1.17111 0.542102)
(0.973651 1.17194 0.489589)
(0.975985 1.19986 0.493096)
(1.00002 1.1583 0.520989)
(0.949869 1.24129 0.493512)
(0.98892 1.21545 0.506834)
(0.979772 1.13268 0.510061)
(0.947823 1.17688 0.47942)
(0.910393 1.21755 0.492224)
(0.867561 1.24537 0.519383)
(0.898598 1.25085 0.505645)
(0.916474 1.27212 0.507074)
(0.926076 1.17434 0.482288)
(1.11657 1.12545 0.722119)
(1.12622 1.09816 0.763655)
(1.08051 1.09687 0.788122)
(0.761848 1.48649 0.715512)
(0.718504 1.47222 0.721442)
(0.741318 1.52373 0.72586)
(0.775432 1.45954 0.713727)
(0.804183 1.50313 0.708777)
(0.751188 1.56937 0.782862)
(0.703579 1.53139 0.821763)
(0.872267 1.52189 0.697341)
(0.85533 1.54102 0.70788)
(0.818158 1.58472 0.747654)
(0.885286 1.58406 0.726241)
(0.773001 1.57745 0.843137)
(1.04421 1.14749 0.577757)
(1.08036 1.10726 0.69947)
(1.00687 1.22485 0.530571)
(1.02402 1.1945 0.533259)
(1.05529 1.16281 0.575172)
(0.576572 1.26787 0.806443)
(0.594461 1.29906 0.797269)
(0.619546 1.16478 0.774351)
(0.588865 1.20552 0.80376)
(0.553968 1.2459 0.825979)
(1.04965 1.08188 0.726335)
(1.05732 1.10962 0.780319)
(1.01889 1.07816 0.60564)
(0.695588 1.31841 0.711078)
(0.622612 1.34527 0.785339)
(0.6636 1.39148 0.768726)
(0.603712 1.37701 0.774732)
(0.692723 1.43804 0.739377)
(0.672286 1.45726 0.732621)
(0.709497 1.40956 0.747279)
(0.612286 1.43177 0.763087)
(0.633723 1.47201 0.801444)
(0.562099 1.36323 0.811645)
(0.84417 1.21336 0.517907)
(0.890462 1.17598 0.494187)
(0.84916 1.17781 0.507527)
(0.931829 1.1382 0.48334)
(0.94436 1.0982 0.506017)
(0.913811 1.09479 0.500457)
(0.84639 1.13914 0.509085)
(0.869439 1.09306 0.511946)
(0.974406 1.09311 0.544102)
(0.820919 1.4093 0.634897)
(0.780792 1.42516 0.700211)
(0.836917 1.45463 0.676114)
(0.941972 1.42875 0.601525)
(0.89886 1.46788 0.65662)
(0.87405 1.49075 0.688353)
(0.908618 1.38057 0.566439)
(0.957773 1.35304 0.554756)
(0.871762 1.40622 0.587652)
(0.819215 1.38341 0.605195)
(0.894204 1.33604 0.544841)
(0.820138 1.33099 0.578738)
(0.786727 1.29886 0.588166)
(0.829606 1.24546 0.541697)
(0.949686 1.28881 0.507866)
(0.891462 1.30129 0.527279)
(0.855712 1.30742 0.549083)
(0.988538 1.2615 0.522269)
(0.973873 1.30001 0.525332)
(0.612386 1.10684 0.7331)
(0.634627 1.09802 0.742271)
(0.640187 1.13008 0.745097)
(0.605376 1.11016 0.776599)
(0.604103 1.08548 0.761934)
(0.602849 1.02437 0.721203)
(0.702196 1.05662 0.603152)
(0.543023 1.08061 0.77721)
(0.649873 1.10971 0.645967)
(0.801334 1.08214 0.539846)
(0.709623 1.39683 0.885419)
(0.623962 1.15219 0.777919)
(0.567074 1.10508 0.812191)
(0.612503 1.12189 0.784582)
(0.615188 1.14584 0.798344)
(0.883794 1.62873 0.781935)
(0.877822 1.62135 0.886222)
(0.60529 1.11305 0.920792)
(0.586181 1.0966 0.91655)
(0.567995 1.05716 0.926866)
(0.567056 0.996065 0.907921)
(0.581201 1.08447 0.831275)
(0.634489 1.09385 0.940549)
(0.623294 1.07999 0.9482)
(0.63707 1.14832 0.810927)
(0.655519 1.21941 0.919607)
(0.652873 1.20331 0.871263)
(0.648788 1.22577 0.82354)
(0.683757 1.26135 0.927271)
(0.71285 1.28945 0.9233)
(0.618049 1.31615 0.866677)
(0.780631 1.36434 0.933621)
(0.752358 1.31789 0.955023)
(0.809791 1.42415 0.922158)
(0.817508 1.55215 0.921227)
(0.542113 1.03542 0.827265)
(0.503206 1.07842 0.807826)
(0.53076 1.08319 0.821684)
(0.599109 1.18355 0.829046)
(0.562801 1.2258 0.849729)
(0.545709 1.28329 0.841568)
(1.23437 1.62614 0.760749)
(1.14235 1.61138 0.708173)
(1.46729 1.52014 0.810714)
(1.15543 1.40897 0.625259)
(1.02288 1.63279 0.809114)
(1.51667 1.45045 0.840569)
(1.20434 1.23002 0.638675)
(1.19894 1.33946 0.651017)
(1.11148 1.62569 0.80722)
(1.18837 1.50706 0.668788)
(1.04082 1.50739 0.676979)
(1.23529 1.60793 0.863766)
(1.25428 1.45 0.682636)
(1.13624 1.29307 0.629824)
(1.31759 1.53889 0.71369)
(1.14407 1.20513 0.659443)
(1.46461 1.40217 0.744321)
(1.08113 1.28166 0.604988)
(1.05954 1.58537 0.908509)
(1.49445 1.51574 0.918608)
(1.42121 1.5768 0.8986)
(1.37671 1.47274 0.706453)
(1.27734 1.27231 0.638881)
(1.02389 1.59071 0.717163)
(1.14499 1.59231 0.881901)
(1.40347 1.56314 0.790359)
(1.33856 1.29666 0.665466)
(1.28688 1.3788 0.655352)
(0.973337 1.61375 0.887914)
(1.53601 1.4643 0.930532)
(1.17748 1.15396 0.667787)
(1.33299 1.60197 0.821102)
(1.34717 1.59605 0.920902)
(1.38845 1.33621 0.687788)
(0.967023 1.51588 0.697429)
(1.06107 1.3876 0.618133)
(1.5292 1.47621 0.964079)
(1.55187 1.44258 0.965519)
(1.54696 1.43236 0.914373)
(1.1759 1.6304 0.77317)
(1.14203 1.63564 0.760944)
(1.19478 1.62305 0.730226)
(1.15484 1.54952 0.67011)
(1.21936 1.56764 0.686012)
(1.23898 1.61729 0.797784)
(1.178 1.61508 0.809063)
(1.25365 1.51198 0.68705)
(1.28234 1.58766 0.727314)
(1.28439 1.6126 0.780351)
(1.29241 1.60486 0.839008)
(1.33308 1.58969 0.765009)
(1.06976 1.56668 0.966055)
(1.12191 1.57712 0.950279)
(0.953308 1.59464 0.937301)
(1.0167 1.56876 0.966587)
(1.014 1.59497 0.909745)
(1.14855 1.59365 0.944407)
(1.17594 1.61211 0.944932)
(1.10688 1.58433 0.888414)
(1.21034 1.61637 0.925846)
(1.26549 1.60931 0.937648)
(1.18777 1.60312 0.860995)
(1.37898 1.5855 0.959752)
(1.32848 1.59498 0.958287)
(1.29508 1.60241 0.895807)
(1.41439 1.57536 0.946263)
(1.44987 1.55175 0.94405)
(1.39177 1.58468 0.908048)
(1.48151 1.52664 0.958025)
(1.50777 1.497 0.957564)
(1.46394 1.53992 0.903401)
(1.51542 1.48479 0.921761)
(1.17055 1.12114 0.692288)
(1.15929 1.13926 0.702761)
(1.19103 1.15292 0.64998)
(0.9818 1.62308 0.749663)
(0.976194 1.63568 0.794384)
(0.990217 1.62441 0.843206)
(0.952883 1.6364 0.827194)
(0.976764 1.58159 0.71583)
(1.03448 1.62707 0.756692)
(1.06701 1.60547 0.849648)
(1.01748 1.61103 0.863529)
(1.05983 1.62402 0.815249)
(1.08827 1.63088 0.758436)
(1.49318 1.48042 0.817944)
(1.47073 1.46288 0.766418)
(1.49448 1.42391 0.788508)
(1.48583 1.36293 0.786509)
(1.51558 1.39041 0.826045)
(1.50812 1.48372 0.875463)
(1.52693 1.45682 0.885426)
(1.48348 1.5143 0.860944)
(1.53506 1.42122 0.872425)
(0.966272 1.54356 0.704094)
(0.956322 1.47512 0.675414)
(0.943239 1.51186 0.696186)
(0.992354 1.54603 0.701575)
(1.02331 1.32334 0.588598)
(1.02075 1.39824 0.618565)
(0.996908 1.46845 0.674953)
(1.07612 1.24019 0.598409)
(1.04166 1.28027 0.586797)
(1.06139 1.33056 0.605271)
(1.13968 1.16836 0.677798)
(1.10187 1.20882 0.618336)
(1.11313 1.24482 0.627032)
(1.17127 1.17181 0.681209)
(1.2272 1.40014 0.675042)
(1.20832 1.43335 0.667565)
(1.17561 1.3746 0.643542)
(1.13478 1.35079 0.623971)
(1.1668 1.32174 0.643237)
(1.10963 1.28798 0.618879)
(1.10751 1.35146 0.616275)
(1.11363 1.40657 0.623257)
(1.11069 1.50987 0.666884)
(1.11849 1.46866 0.649117)
(1.17615 1.46851 0.660832)
(1.22876 1.47427 0.684102)
(1.0487 1.46835 0.661358)
(1.07493 1.59686 0.711091)
(1.07702 1.53994 0.675479)
(1.02381 1.5411 0.692301)
(1.17727 1.25774 0.650311)
(1.20235 1.28174 0.64711)
(1.23858 1.25492 0.636429)
(1.23408 1.30787 0.643956)
(1.14307 1.24676 0.644074)
(1.18299 1.21448 0.660859)
(1.19586 1.1909 0.652041)
(1.23963 1.20775 0.636137)
(1.28143 1.21715 0.655713)
(1.21064 1.18516 0.640187)
(1.24263 1.36162 0.660379)
(1.26697 1.41882 0.674336)
(1.27791 1.32334 0.645764)
(1.11718 1.60663 0.834669)
(1.28157 1.48365 0.698171)
(0.998092 1.51386 0.693372)
(1.34658 1.59483 0.869606)
(1.34737 1.50073 0.716786)
(1.30857 1.46051 0.691324)
(1.32525 1.42549 0.672833)
(1.39708 1.51385 0.74088)
(1.36495 1.55266 0.747034)
(1.37177 1.58508 0.805505)
(1.37813 1.40822 0.679822)
(1.42473 1.3611 0.712912)
(1.42182 1.43802 0.714231)
(1.41119 1.3009 0.735052)
(1.45016 1.32931 0.758137)
(1.43076 1.4919 0.747924)
(1.34061 1.35986 0.659084)
(1.36104 1.31675 0.676523)
(1.31334 1.33737 0.650581)
(1.37887 1.28722 0.712756)
(1.35699 1.26875 0.701925)
(1.44832 1.54906 0.853091)
(1.41689 1.56844 0.842805)
(1.38749 1.5818 0.858049)
(1.4385 1.53622 0.79663)
(1.30947 1.28428 0.652718)
(1.30835 1.23519 0.671916)
(1.33105 1.24965 0.688386)
(0.933747 1.28211 1.31639)
(0.742436 1.12147 1.25035)
(0.777577 1.20947 1.22021)
(0.995783 1.34921 1.29857)
(0.857002 1.30631 1.18802)
(0.86154 1.32113 1.33809)
(0.833695 1.22915 1.35437)
(0.800399 1.28612 1.3019)
(0.852696 1.36211 1.26665)
(0.98044 1.30421 1.24003)
(0.718263 1.0404 1.1657)
(0.909873 1.39145 1.29396)
(0.923649 1.38812 1.19383)
(0.723702 1.00738 1.17092)
(0.932305 1.35923 1.08735)
(0.945471 1.36318 1.02507)
(0.959151 1.3939 1.06887)
(0.963805 1.39851 1.11847)
(0.977383 1.40533 1.1868)
(0.925771 1.37589 1.12875)
(0.774495 1.19726 1.3126)
(0.809258 1.26011 1.33473)
(0.777042 1.22678 1.28596)
(0.769893 1.19676 1.24449)
(0.802172 1.2746 1.26415)
(0.744885 1.11489 1.20716)
(0.731937 1.06047 1.20529)
(0.732914 1.0326 1.20539)
(0.719842 1.02465 1.16741)
(0.809269 1.18012 1.34503)
(0.756227 1.12217 1.29441)
(0.746124 1.03277 1.24099)
(0.746969 0.994302 1.19744)
(0.833222 1.31695 1.2507)
(0.863223 1.34239 1.22161)
(0.81693 1.26701 1.21244)
(0.813538 1.2294 1.19049)
(0.770797 1.16828 1.20072)
(0.892612 1.37877 1.24008)
(0.890532 1.35689 1.18066)
(0.877092 1.29777 1.146)
(0.90117 1.34037 1.1459)
(0.895069 1.31877 1.06554)
(0.943354 1.26307 1.28223)
(0.973702 1.26341 1.24517)
(0.957507 1.30064 1.27866)
(1.01046 1.27239 1.2003)
(0.987025 1.33681 1.26601)
(0.961854 1.31908 1.30514)
(1.00144 1.32732 1.21429)
(1.01524 1.35901 1.24341)
(0.860097 1.27794 1.34649)
(0.823153 1.30967 1.32449)
(0.830606 1.33193 1.28582)
(0.842723 1.35258 1.29774)
(0.737311 1.02714 1.15215)
(0.735419 1.04921 1.15535)
(0.740958 1.0143 1.15563)
(0.743255 1.10009 1.18992)
(0.907245 1.23944 1.32726)
(0.891247 1.25531 1.34405)
(0.91824 1.30011 1.33438)
(0.869548 1.2134 1.35416)
(0.936263 1.33307 1.32804)
(1.03287 1.38549 1.27908)
(0.986174 1.4155 1.25044)
(1.00268 1.40886 1.27855)
(0.961133 1.36913 1.31031)
(0.93076 1.39964 1.25202)
(0.758249 1.00059 1.16722)
(0.87808 1.38431 1.27884)
(0.879612 1.35563 1.31912)
(1.12572 1.44261 1.13855)
(1.22691 1.34857 1.04414)
(1.24192 1.36871 1.0248)
(1.21708 1.39253 1.0723)
(1.25362 1.39325 1.16023)
(1.16061 1.37423 1.19963)
(1.28385 1.39425 1.10195)
(1.25582 1.42303 1.05585)
(1.1261 1.38297 1.24181)
(1.31333 1.31668 1.03654)
(1.22328 1.43946 1.15004)
(1.16714 1.42573 1.18301)
(1.17768 1.44894 1.06807)
(1.09776 1.45149 1.04451)
(1.07888 1.3391 1.20363)
(1.25612 1.39376 1.03379)
(1.2643 1.38391 1.05296)
(1.27068 1.41721 1.08494)
(1.23815 1.44173 1.10606)
(1.26417 1.42676 1.12752)
(1.23976 1.37974 1.05183)
(1.19891 1.36843 1.05658)
(1.26172 1.38892 1.08258)
(1.2308 1.36127 1.03445)
(1.25847 1.3973 1.11536)
(1.27381 1.39922 1.12677)
(1.25044 1.41891 1.15038)
(1.05339 1.442 1.05373)
(1.05084 1.4544 1.01203)
(1.09081 1.43316 1.14864)
(1.0743 1.43232 1.09102)
(1.10843 1.44134 1.07962)
(1.21987 1.32002 1.06482)
(1.2742 1.30587 1.0515)
(1.25706 1.3287 1.03668)
(1.32571 1.30428 1.05019)
(1.35254 1.30998 1.02336)
(1.11332 1.32827 1.17548)
(1.134 1.34809 1.15782)
(1.15625 1.36078 1.1177)
(1.18073 1.34211 1.09216)
(1.21169 1.40563 1.11758)
(1.09557 1.3088 1.16606)
(1.05855 1.30295 1.16965)
(1.10971 1.34807 1.21791)
(1.10359 1.40856 1.23614)
(1.07648 1.37856 1.22133)
(1.09554 1.36189 1.2305)
(1.05603 1.35369 1.19025)
(1.15671 1.41224 1.2068)
(1.11934 1.4305 1.21299)
(1.14484 1.36753 1.22985)
(1.19352 1.39228 1.20002)
(1.21602 1.4119 1.17116)
(1.22201 1.38754 1.17131)
(1.12452 1.45791 1.01874)
(1.11097 1.43703 1.18481)
(1.14521 1.43775 1.15374)
(1.14887 1.44563 1.09582)
(1.14032 1.44807 1.0547)
(1.19263 1.4476 1.10881)
(1.17264 1.44255 1.13672)
(1.20187 1.43068 1.15704)
(1.31047 1.31962 1.01738)
(1.24774 1.34247 1.02311)
(1.2467 1.3465 1.01101)
(1.16459 1.44995 1.02705)
(1.20865 1.44087 1.0262)
(1.24734 1.40254 1.01381)
(1.23774 1.42607 1.02065)
(1.2197 1.44073 1.06415)
(1.23764 1.37803 1.00954)
(1.14062 1.39598 0.779214)
(1.22477 1.33224 0.950725)
(1.19529 1.43429 0.924258)
(1.12916 1.36561 0.818437)
(1.21939 1.41006 0.87525)
(1.24248 1.36822 0.939041)
(1.15195 1.44125 0.781728)
(1.2191 1.38369 0.892036)
(1.13185 1.46064 0.813603)
(1.1591 1.35941 0.917624)
(1.27737 1.33551 0.970624)
(1.07865 1.33028 0.780896)
(1.25649 1.39987 0.965741)
(1.11427 1.45852 0.939015)
(1.07319 1.43259 0.86328)
(1.09906 1.45379 0.791016)
(1.06175 1.45424 0.966387)
(1.06149 1.44128 0.923917)
(1.11208 1.44999 0.885897)
(1.15182 1.45149 0.803321)
(1.11076 1.46604 0.762318)
(1.12262 1.45214 0.747125)
(1.08904 1.38105 0.757447)
(1.10253 1.36375 0.765641)
(1.05807 1.35134 0.789068)
(1.10128 1.33625 0.784515)
(1.13719 1.38001 0.795124)
(1.22658 1.39369 0.886726)
(1.18279 1.39776 0.842244)
(1.18194 1.41202 0.854393)
(1.17753 1.38953 0.864001)
(1.12417 1.418 0.752841)
(1.14862 1.4195 0.788022)
(1.17916 1.42263 0.847504)
(1.13376 1.4608 0.967802)
(1.17838 1.43438 0.851279)
(1.16257 1.44225 0.883267)
(1.21082 1.42265 0.901144)
(1.14675 1.44868 0.931019)
(1.06277 1.30493 0.805494)
(1.08667 1.30198 0.833626)
(1.09982 1.31051 0.843841)
(1.18487 1.37191 0.940169)
(1.18351 1.38196 0.916577)
(1.22578 1.37862 0.924867)
(1.15195 1.3763 0.88496)
(1.24561 1.38639 0.913247)
(1.17627 1.34546 0.934814)
(1.19285 1.36224 0.955436)
(1.22491 1.30649 0.926727)
(1.17942 1.32591 0.906559)
(1.14198 1.33344 0.883625)
(1.11913 1.32479 0.859858)
(1.21986 1.36707 0.965363)
(1.24119 1.33908 0.964992)
(1.29743 1.31276 0.957823)
(1.27595 1.30234 0.942799)
(1.1776 1.44749 0.972347)
(1.25679 1.39273 0.981764)
(1.23519 1.42082 0.977244)
(1.221 1.42207 0.952365)
(1.19704 1.43678 0.964061)
(1.29532 1.32797 0.981848)
(1.24994 1.3604 0.98587)
(1.24758 1.36998 0.974909)
(1.25031 1.38433 0.95252)
(1.33229 1.31159 0.975268)
(1.23918 1.40266 0.934152)
(0.855867 1.28558 0.82168)
(0.651296 1.12984 0.894904)
(0.872701 1.32716 0.651201)
(0.705894 1.1025 0.825641)
(0.883502 1.25745 0.664711)
(0.915711 1.35383 0.838926)
(0.812648 1.21349 0.688143)