/*--------------------------------*- C++ -*----------------------------------*\
| =========                 |                                                 |
| \\      /  F ield         | OpenFOAM: The Open Source CFD Toolbox           |
|  \\    /   O peration     | Version:  v1806                                 |
|   \\  /    A nd           | Web:      www.OpenFOAM.com                      |
|    \\/     M anipulation  |                                                 |
\*---------------------------------------------------------------------------*/
FoamFile
{
    version     2.0;
    format      ascii;
    class       volVectorField;
    location    "0.004";
    object      U;
}
// * * * * * * * * * * * * * * * * * * * * * * * * * * * * * * * * * * * * * //

dimensions      [0 1 -1 0 0 0 0];


internalField   nonuniform List<vector> 
64000
(
(0.000486603 -0.000910773 0.00060698)
(0.00695733 -0.00249927 -0.000318813)
(0.0173354 -0.0026836 -0.000323502)
(0.0258729 -0.00245629 -0.00012515)
(0.0330624 -0.00211977 6.41286e-05)
(0.038801 -0.00217784 2.34064e-05)
(0.0434822 -0.00258422 -0.000297729)
(0.046818 -0.00285862 -0.000647229)
(0.0487504 -0.00282471 -0.000849832)
(0.0488141 -0.00247613 -0.000732656)
(0.0462165 -0.00249054 -0.000412214)
(0.0397478 -0.00284046 0.000185499)
(0.0283157 -0.00387657 0.000979135)
(0.010647 -0.00562387 0.00245471)
(-0.0130108 -0.00779508 0.0042805)
(-0.0425455 -0.0105305 0.0058962)
(-0.0778183 -0.0127091 0.00773301)
(-0.115057 -0.0137157 0.00930361)
(-0.152066 -0.0141525 0.00750095)
(-0.188524 -0.0135934 0.00200114)
(-0.221535 -0.0111121 -0.005865)
(-0.247171 -0.00666228 -0.015909)
(-0.262677 -0.000537513 -0.0275731)
(-0.265985 0.00693219 -0.0401041)
(-0.255506 0.015303 -0.0528767)
(-0.230416 0.0238891 -0.0650396)
(-0.191181 0.0317016 -0.0754225)
(-0.140117 0.0377109 -0.0822223)
(-0.0820685 0.0409206 -0.083575)
(-0.0254639 0.0408266 -0.0781307)
(0.0235335 0.0379661 -0.0656776)
(0.0575632 0.0320939 -0.0506276)
(0.0711139 0.0241585 -0.0330667)
(0.0680875 0.0162101 -0.0177315)
(0.0556468 0.00958522 -0.00709193)
(0.0408826 0.00493067 -0.00129017)
(0.0275949 0.00220115 0.00109153)
(0.0173934 0.00100326 0.00161305)
(0.0083823 0.00050491 0.00169647)
(0.00177483 -0.000809884 0.0012859)
(0.00154251 -0.0050559 0.000871957)
(0.0125422 -0.00963313 -0.00137383)
(0.0292861 -0.0092337 -0.00212409)
(0.0428492 -0.00674586 -0.00240817)
(0.0529989 -0.00387044 -0.00284893)
(0.0594527 -0.000733667 -0.00354515)
(0.0633121 0.0022976 -0.00460759)
(0.0641238 0.00577961 -0.00606212)
(0.0608568 0.00984216 -0.00800427)
(0.051448 0.0153165 -0.00974326)
(0.0343008 0.0203176 -0.0117115)
(0.00779764 0.0271904 -0.0136493)
(-0.0296796 0.0342756 -0.0159232)
(-0.078791 0.0415992 -0.0187168)
(-0.138853 0.0501661 -0.0220406)
(-0.207497 0.0600894 -0.026424)
(-0.281581 0.0729494 -0.032339)
(-0.356426 0.0894438 -0.0405361)
(-0.427239 0.108448 -0.0520232)
(-0.489447 0.129764 -0.0669337)
(-0.538228 0.153529 -0.0846422)
(-0.569258 0.178596 -0.104076)
(-0.57938 0.203568 -0.123777)
(-0.5668 0.226904 -0.142213)
(-0.531164 0.247282 -0.158308)
(-0.473654 0.26314 -0.170557)
(-0.397308 0.272894 -0.177285)
(-0.306848 0.274856 -0.176864)
(-0.209193 0.267619 -0.168105)
(-0.113783 0.250607 -0.15089)
(-0.0291742 0.225573 -0.126428)
(0.0345487 0.19248 -0.098713)
(0.0713698 0.155451 -0.0709091)
(0.0839343 0.118476 -0.0468813)
(0.078588 0.0862839 -0.0293234)
(0.0642236 0.0608428 -0.0183116)
(0.0476359 0.0429243 -0.0120707)
(0.0328088 0.0314439 -0.00848729)
(0.018435 0.0231262 -0.00516194)
(0.00535159 0.011586 -0.00151477)
(0.00176855 -0.0101813 0.000445914)
(0.0147056 -0.016572 -0.0031116)
(0.0340106 -0.0136448 -0.00447565)
(0.0480854 -0.00634033 -0.00505508)
(0.0575065 0.00310927 -0.00567096)
(0.0618574 0.0136561 -0.00746329)
(0.061018 0.025307 -0.0101133)
(0.0541865 0.0386367 -0.0130757)
(0.0405679 0.0539861 -0.0180378)
(0.0166208 0.0722194 -0.0218108)
(-0.0177288 0.0936775 -0.0250778)
(-0.0635611 0.117815 -0.0296824)
(-0.123359 0.144358 -0.0340536)
(-0.193779 0.172828 -0.0382558)
(-0.271689 0.20368 -0.0425801)
(-0.352848 0.236946 -0.0475603)
(-0.432734 0.273055 -0.0536535)
(-0.506849 0.311983 -0.0610533)
(-0.571103 0.352951 -0.0696922)
(-0.621939 0.394956 -0.0791963)
(-0.65641 0.436555 -0.0889359)
(-0.672244 0.475938 -0.0981656)
(-0.668213 0.511362 -0.106211)
(-0.644106 0.540484 -0.112781)
(-0.60065 0.560926 -0.117019)
(-0.540085 0.570587 -0.118363)
(-0.465699 0.567876 -0.11628)
(-0.381786 0.551295 -0.110602)
(-0.293513 0.520204 -0.10154)
(-0.206817 0.475377 -0.0896465)
(-0.127831 0.420125 -0.0758805)
(-0.062879 0.357267 -0.0613218)
(-0.0159676 0.293227 -0.0474947)
(0.0135814 0.232614 -0.0353386)
(0.0280467 0.179672 -0.0267135)
(0.0316027 0.136824 -0.0205607)
(0.0294696 0.104752 -0.016333)
(0.0248898 0.0820326 -0.012927)
(0.016743 0.0627096 -0.00825227)
(0.00559148 0.0346381 -0.002171)
(0.00177733 -0.0129311 -0.000586137)
(0.0159791 -0.0185088 -0.00573028)
(0.0364175 -0.0107958 -0.00762825)
(0.0499825 0.0042792 -0.00813558)
(0.0568265 0.0231651 -0.00956555)
(0.0562039 0.0439591 -0.0125963)
(0.0488201 0.0675928 -0.017002)
(0.0333741 0.0951759 -0.0219399)
(0.00886074 0.126559 -0.0268435)
(-0.0260769 0.162596 -0.0314867)
(-0.0726158 0.202907 -0.0358007)
(-0.129994 0.243785 -0.0395477)
(-0.196176 0.285894 -0.0422551)
(-0.267711 0.328621 -0.0437291)
(-0.340767 0.371809 -0.0441053)
(-0.411519 0.415349 -0.0437446)
(-0.476755 0.459539 -0.0429876)
(-0.533799 0.504166 -0.0419237)
(-0.580558 0.548564 -0.0404409)
(-0.615445 0.591387 -0.0383111)
(-0.637044 0.630559 -0.0353765)
(-0.644005 0.664103 -0.0319078)
(-0.636218 0.691608 -0.0289135)
(-0.614409 0.709733 -0.0263054)
(-0.579161 0.715643 -0.0235627)
(-0.532225 0.708192 -0.0205832)
(-0.476276 0.686496 -0.017568)
(-0.414529 0.650287 -0.0149919)
(-0.349864 0.60038 -0.0134274)
(-0.284817 0.539173 -0.0133527)
(-0.222094 0.472101 -0.0149238)
(-0.164853 0.402771 -0.0171894)
(-0.115165 0.335904 -0.0190639)
(-0.0739261 0.275421 -0.0199835)
(-0.0419268 0.22305 -0.0199375)
(-0.0187065 0.180535 -0.0191142)
(-0.00247221 0.14755 -0.0175543)
(0.0079218 0.121938 -0.014925)
(0.0107411 0.0964469 -0.00965549)
(0.00490955 0.0540742 -0.00216979)
(0.00192783 -0.0119664 -0.00266048)
(0.0177317 -0.0132628 -0.0099816)
(0.040244 0.00245642 -0.0123491)
(0.0530517 0.0277708 -0.0127397)
(0.0562297 0.0577214 -0.0144363)
(0.0506851 0.091451 -0.0183308)
(0.0377201 0.129521 -0.0232196)
(0.0156521 0.172227 -0.0282402)
(-0.0147136 0.220558 -0.0319448)
(-0.0541107 0.271568 -0.0355896)
(-0.10347 0.323273 -0.0377785)
(-0.159397 0.373825 -0.0383006)
(-0.219191 0.422551 -0.0368344)
(-0.279768 0.46925 -0.0332721)
(-0.338401 0.514025 -0.0277693)
(-0.392522 0.556296 -0.020677)
(-0.440434 0.597554 -0.0127613)
(-0.481081 0.637013 -0.00410474)
(-0.513873 0.673646 0.00561454)
(-0.538834 0.706431 0.016305)
(-0.555468 0.733627 0.0274847)
(-0.561255 0.753697 0.0382585)
(-0.557028 0.765044 0.044441)
(-0.545256 0.765948 0.0474297)
(-0.526498 0.755327 0.0488856)
(-0.50081 0.732299 0.0487506)
(-0.470104 0.696599 0.0468498)
(-0.435841 0.649018 0.0429137)
(-0.398391 0.591645 0.0366177)
(-0.35593 0.527876 0.0281705)
(-0.308632 0.462089 0.0158484)
(-0.259908 0.397955 0.00291717)
(-0.209729 0.338969 -0.00798264)
(-0.159485 0.287093 -0.0156632)
(-0.112204 0.243273 -0.019766)
(-0.0709359 0.207633 -0.0207787)
(-0.0372232 0.179004 -0.0195578)
(-0.0115926 0.154204 -0.0162438)
(0.00349638 0.124551 -0.010368)
(0.0039547 0.070833 -0.00187797)
(0.00198125 -0.00578176 -0.00612298)
(0.0210175 0.00326057 -0.0163165)
(0.047273 0.0292316 -0.0187782)
(0.0596245 0.0649681 -0.0184051)
(0.060063 0.106601 -0.0196929)
(0.0509328 0.153327 -0.0230104)
(0.034279 0.204525 -0.0267901)
(0.0114692 0.258948 -0.0297318)
(-0.018581 0.316609 -0.0321597)
(-0.0570922 0.375676 -0.032986)
(-0.101807 0.431255 -0.0318903)
(-0.149971 0.482658 -0.0285393)
(-0.198712 0.52939 -0.0227565)
(-0.245629 0.571344 -0.0147172)
(-0.289774 0.609525 -0.00447687)
(-0.328725 0.6431 0.00822501)
(-0.361795 0.671988 0.0197277)
(-0.390222 0.695994 0.0303693)
(-0.413988 0.715099 0.0424264)
(-0.433641 0.729052 0.054866)
(-0.449594 0.737546 0.0657069)
(-0.460979 0.739919 0.0740736)
(-0.468129 0.733654 0.0787268)
(-0.472024 0.719367 0.0797597)
(-0.473192 0.69752 0.0781428)
(-0.471484 0.667484 0.0741587)
(-0.466997 0.629252 0.0678704)
(-0.458851 0.583721 0.0592668)
(-0.444785 0.532679 0.0482363)
(-0.421793 0.478718 0.0348533)
(-0.388411 0.423416 0.0200777)
(-0.345843 0.370851 0.00517031)
(-0.294828 0.323995 -0.00858769)
(-0.237142 0.283967 -0.018934)
(-0.176636 0.250966 -0.0248061)
(-0.119018 0.224089 -0.0260978)
(-0.0690319 0.20139 -0.0237677)
(-0.0298253 0.179079 -0.0188427)
(-0.00298898 0.146852 -0.0113357)
(0.00369272 0.0841734 -0.00212491)
(0.00375889 0.010205 -0.00969546)
(0.0274693 0.0336807 -0.0237051)
(0.0578584 0.0697094 -0.0262758)
(0.0714075 0.11473 -0.0242952)
(0.0713148 0.166265 -0.0240668)
(0.0612228 0.223253 -0.0256682)
(0.0441525 0.28381 -0.027266)
(0.0220183 0.345324 -0.0274142)
(-0.00268819 0.40437 -0.0262061)
(-0.0344197 0.460233 -0.0254608)
(-0.0730718 0.515242 -0.0215166)
(-0.11214 0.56141 -0.0151972)
(-0.150147 0.601229 -0.0063441)
(-0.184865 0.632976 0.00384359)
(-0.21672 0.657175 0.0155655)
(-0.245978 0.674551 0.0287035)
(-0.271896 0.684249 0.0412123)
(-0.294781 0.687245 0.0525293)
(-0.31566 0.684593 0.0625558)
(-0.33586 0.677152 0.0708851)
(-0.356214 0.666266 0.0768706)
(-0.376684 0.652435 0.0801396)
(-0.397138 0.635407 0.0806158)
(-0.417531 0.615413 0.0785639)
(-0.437677 0.592576 0.0744597)
(-0.456882 0.566346 0.0686221)
(-0.473773 0.53622 0.0612012)
(-0.485808 0.50208 0.0522136)
(-0.4894 0.464366 0.0415348)
(-0.480954 0.42376 0.0296351)
(-0.457923 0.381583 0.0159837)
(-0.419957 0.341066 0.0026503)
(-0.368619 0.305708 -0.0110929)
(-0.305651 0.276862 -0.0225904)
(-0.234755 0.254411 -0.0300222)
(-0.162895 0.236475 -0.0321708)
(-0.0977969 0.21991 -0.0291985)
(-0.0458971 0.200322 -0.0225784)
(-0.00857709 0.166893 -0.0133168)
(0.00345029 0.0959809 -0.00270799)
(0.00455502 0.0355931 -0.0141353)
(0.0337545 0.0764246 -0.0318422)
(0.0714122 0.121816 -0.0338889)
(0.0889016 0.173651 -0.0295068)
(0.0910455 0.231454 -0.0267068)
(0.082768 0.294112 -0.0258961)
(0.0678772 0.358586 -0.0249784)
(0.0483918 0.42134 -0.0225474)
(0.0255509 0.478834 -0.0185593)
(0.00328781 0.527517 -0.0133734)
(-0.024826 0.571428 -0.00997216)
(-0.0574301 0.607094 -0.00249721)
(-0.0875984 0.637373 0.00759715)
(-0.116724 0.653836 0.0189244)
(-0.143082 0.65913 0.0304981)
(-0.167449 0.655613 0.0414414)
(-0.190746 0.644874 0.0508917)
(-0.213855 0.628366 0.058311)
(-0.237676 0.607823 0.0634672)
(-0.263029 0.585345 0.0664016)
(-0.290567 0.56307 0.0672312)
(-0.320572 0.542355 0.0662439)
(-0.352845 0.523568 0.0638777)
(-0.38679 0.506331 0.0605607)
(-0.421498 0.489686 0.0565004)
(-0.455539 0.472231 0.0517668)
(-0.486672 0.452664 0.0462418)
(-0.511663 0.429953 0.0396782)
(-0.526893 0.403717 0.0323956)
(-0.528813 0.374044 0.0239806)
(-0.514299 0.342166 0.0138754)
(-0.48106 0.310448 0.00218975)
(-0.430248 0.284234 -0.0107151)
(-0.364355 0.264676 -0.0229173)
(-0.286175 0.252071 -0.0320953)
(-0.202965 0.243742 -0.0361291)
(-0.124332 0.234668 -0.0340254)
(-0.0604234 0.218952 -0.0265507)
(-0.0139374 0.185256 -0.0159219)
(0.00281129 0.107425 -0.00331636)
(0.00544245 0.065129 -0.0179275)
(0.0409797 0.127793 -0.0394422)
(0.0878352 0.181905 -0.0406206)
(0.111601 0.23757 -0.0332912)
(0.118306 0.297169 -0.0276259)
(0.11371 0.360193 -0.0238228)
(0.102203 0.422945 -0.0205647)
(0.0862259 0.481644 -0.0162685)
(0.0673314 0.533187 -0.010927)
(0.0471548 0.575795 -0.00506687)
(0.0243055 0.605071 0.00239074)
(0.00229073 0.627156 0.0111689)
(-0.023898 0.638345 0.0180785)
(-0.0537372 0.637793 0.0282281)
(-0.079221 0.625716 0.0375705)
(-0.103991 0.604321 0.0449099)
(-0.129486 0.576861 0.0497502)
(-0.15666 0.546454 0.0521761)
(-0.18594 0.516029 0.0525204)
(-0.217716 0.488012 0.0512853)
(-0.252401 0.464086 0.0490226)
(-0.290155 0.445014 0.0462918)
(-0.33066 0.430521 0.0435605)
(-0.373101 0.419399 0.0411399)
(-0.416233 0.409809 0.0390064)
(-0.458373 0.399787 0.0369447)
(-0.497284 0.387637 0.0346267)
(-0.530059 0.372106 0.0314659)
(-0.553377 0.352467 0.0274605)
(-0.56368 0.329047 0.0219387)
(-0.557347 0.303382 0.0144514)
(-0.529632 0.278079 0.0052358)
(-0.480972 0.256995 -0.00773101)
(-0.414261 0.244289 -0.0203998)
(-0.331135 0.240384 -0.0311261)
(-0.23909 0.242354 -0.0373876)
(-0.148945 0.24313 -0.0369891)
(-0.0741064 0.233774 -0.0297433)
(-0.0191152 0.201767 -0.018295)
(0.00210071 0.118717 -0.00396645)
(0.00635434 0.0972566 -0.0207275)
(0.0489681 0.184028 -0.0456036)
(0.106508 0.245808 -0.0458103)
(0.138027 0.302304 -0.0353744)
(0.150501 0.35961 -0.0270115)
(0.150344 0.417847 -0.0200742)
(0.142354 0.474216 -0.0147699)
(0.129458 0.52511 -0.00930825)
(0.113483 0.567547 -0.00349056)
(0.0952635 0.599155 0.00348462)
(0.0747516 0.618032 0.0110241)
(0.0526676 0.625053 0.0188805)
(0.0275602 0.61636 0.0261861)
(-0.000644104 0.599545 0.0331118)
(-0.0296333 0.572779 0.0386216)
(-0.0588915 0.538197 0.0417885)
(-0.0891527 0.501123 0.0423427)
(-0.121346 0.465267 0.0408763)
(-0.155848 0.433523 0.0381892)
(-0.192917 0.407521 0.0350728)
(-0.23262 0.387719 0.0321415)
(-0.274776 0.373636 0.0298203)
(-0.318919 0.364071 0.0283632)
(-0.364366 0.357351 0.0278297)
(-0.410224 0.351585 0.0279777)
(-0.455324 0.34498 0.0283647)
(-0.498066 0.336009 0.0285221)
(-0.536204 0.323468 0.0282653)
(-0.56659 0.306652 0.0265538)
(-0.585077 0.285896 0.0226673)
(-0.587121 0.263061 0.0163669)
(-0.567779 0.240871 0.00730867)
(-0.524415 0.22159 -0.00423149)
(-0.457997 0.213109 -0.0171607)
(-0.371444 0.21632 -0.0289555)
(-0.271906 0.228753 -0.0368163)
(-0.171625 0.241847 -0.0382062)
(-0.0867347 0.242578 -0.0318988)
(-0.0240023 0.215504 -0.0201176)
(0.00126173 0.129158 -0.0045928)
(0.00734174 0.129562 -0.0222274)
(0.0574032 0.241285 -0.0497959)
(0.126306 0.309347 -0.0491544)
(0.16638 0.36396 -0.0357164)
(0.18458 0.415678 -0.0241079)
(0.188506 0.465827 -0.0158113)
(0.183967 0.512634 -0.00899493)
(0.173619 0.553185 -0.00227721)
(0.158792 0.584783 0.00384276)
(0.140457 0.604228 0.0102653)
(0.119293 0.610569 0.0170173)
(0.0954215 0.603287 0.0237059)
(0.0683421 0.582603 0.0295501)
(0.0378236 0.552087 0.0337119)
(0.00418465 0.514879 0.0356367)
(-0.030083 0.472416 0.0356424)
(-0.0644306 0.43313 0.0332461)
(-0.100607 0.39858 0.0297006)
(-0.13865 0.370604 0.0260253)
(-0.178548 0.349476 0.0229456)
(-0.220037 0.334369 0.020852)
(-0.262722 0.323863 0.0198774)
(-0.306267 0.316409 0.0199994)
(-0.350525 0.310547 0.0210754)
(-0.3954 0.304958 0.0228098)
(-0.440596 0.298406 0.0247979)
(-0.485345 0.289712 0.0266055)
(-0.527952 0.277768 0.0277396)
(-0.565293 0.261832 0.0271781)
(-0.592633 0.241948 0.0238898)
(-0.60478 0.219005 0.0187583)
(-0.596394 0.196247 0.0105632)
(-0.560834 0.177804 -0.000452978)
(-0.497284 0.170222 -0.0149672)
(-0.409474 0.177988 -0.0274755)
(-0.303457 0.200287 -0.0364404)
(-0.193084 0.227864 -0.0389968)
(-0.0980752 0.243076 -0.0334886)
(-0.028278 0.225179 -0.0214677)
(0.000396193 0.138445 -0.00525205)
(0.0081819 0.160062 -0.0224278)
(0.0653191 0.295995 -0.0519532)
(0.145443 0.369007 -0.0507311)
(0.194361 0.419479 -0.0347196)
(0.218355 0.463096 -0.0202857)
(0.225596 0.503412 -0.00996723)
(0.223239 0.539078 -0.00254198)
(0.214462 0.56838 0.00324371)
(0.199641 0.587868 0.00987389)
(0.179797 0.595564 0.0152721)
(0.156368 0.590392 0.020876)
(0.129377 0.571887 0.0261076)
(0.0988164 0.541442 0.0300136)
(0.0647542 0.502476 0.0316043)
(0.0257133 0.459602 0.0305376)
(-0.012367 0.417307 0.0293443)
(-0.0483408 0.379734 0.0253172)
(-0.0868329 0.349319 0.0213031)
(-0.126137 0.326067 0.0180799)
(-0.166052 0.308838 0.0160327)
(-0.206169 0.295982 0.0152021)
(-0.246245 0.285944 0.0154634)
(-0.286408 0.277519 0.0166321)
(-0.327189 0.269849 0.0185283)
(-0.369277 0.262259 0.0209504)
(-0.413173 0.254018 0.0236339)
(-0.45876 0.244211 0.026192)
(-0.504818 0.231785 0.0280006)
(-0.548477 0.215733 0.0281895)
(-0.585414 0.195347 0.0266158)
(-0.609253 0.171078 0.0207908)
(-0.612568 0.146013 0.0118949)
(-0.588398 0.125571 1.37548e-05)
(-0.532841 0.115686 -0.0142241)
(-0.446563 0.125025 -0.0278015)
(-0.335897 0.155162 -0.0376733)
(-0.215309 0.198452 -0.0407296)
(-0.108785 0.23297 -0.0356876)
(-0.0317431 0.229585 -0.0228297)
(-0.000333477 0.146487 -0.00607066)
(0.00862808 0.18665 -0.021268)
(0.0717597 0.344969 -0.0523177)
(0.162126 0.421999 -0.0509119)
(0.219745 0.46708 -0.0327995)
(0.249531 0.501056 -0.0160224)
(0.259459 0.530432 -0.00419824)
(0.258579 0.555274 0.00386846)
(0.249906 0.572947 0.0089964)
(0.233784 0.580927 0.0138078)
(0.212273 0.578117 0.0183288)
(0.186028 0.563287 0.0231511)
(0.155316 0.536513 0.0268198)
(0.120622 0.499602 0.0288573)
(0.0824974 0.456475 0.0285892)
(0.0416455 0.412327 0.0261837)
(0.00143714 0.374003 0.0231718)
(-0.0366704 0.339962 0.0194837)
(-0.0747575 0.313728 0.0161987)
(-0.112916 0.293643 0.0140896)
(-0.150488 0.277785 0.0132251)
(-0.187092 0.264439 0.0133883)
(-0.222833 0.252494 0.0143304)
(-0.258365 0.241373 0.0158762)
(-0.294741 0.230794 0.0179453)
(-0.333156 0.220513 0.020493)
(-0.374625 0.2101 0.0234064)
(-0.419599 0.198797 0.0263918)
(-0.467483 0.185469 0.0288767)
(-0.516227 0.168742 0.0302054)
(-0.561569 0.147404 0.0287346)
(-0.596821 0.12175 0.0236677)
(-0.613815 0.0936365 0.0146131)
(-0.603761 0.0676968 0.00185115)
(-0.560021 0.0542912 -0.0135169)
(-0.481287 0.0597372 -0.0291108)
(-0.370228 0.0928468 -0.0405024)
(-0.240483 0.151334 -0.044659)
(-0.120464 0.209493 -0.0388228)
(-0.0345933 0.227101 -0.0246179)
(-0.0007019 0.153091 -0.0071372)
(0.00859482 0.207567 -0.0189167)
(0.0760091 0.385555 -0.0505897)
(0.175055 0.466471 -0.0501436)
(0.240944 0.505786 -0.0305607)
(0.276502 0.529611 -0.0119634)
(0.289441 0.547585 0.000893277)
(0.28882 0.561612 0.00861085)
(0.278874 0.568518 0.0133702)
(0.261404 0.567046 0.0170859)
(0.237934 0.555661 0.0206243)
(0.20901 0.533442 0.0240088)
(0.174947 0.501101 0.0264867)
(0.136681 0.460933 0.0269224)
(0.0958542 0.417116 0.0254207)
(0.0542452 0.374997 0.0223217)
(0.013504 0.339338 0.0188254)
(-0.0246949 0.30957 0.0160043)
(-0.0610885 0.286246 0.0137794)
(-0.0966809 0.267175 0.012764)
(-0.130673 0.250512 0.0127409)
(-0.162962 0.235038 0.0133782)
(-0.194011 0.220262 0.0144562)
(-0.224783 0.206129 0.0159131)
(-0.256558 0.192698 0.0178018)
(-0.29074 0.179922 0.0202187)
(-0.328637 0.167496 0.023193)
(-0.371183 0.154738 0.0265716)
(-0.418541 0.140503 0.0299126)
(-0.469424 0.123229 0.0322446)
(-0.520313 0.101462 0.0322672)
(-0.56522 0.0744585 0.0285715)
(-0.596322 0.0437558 0.0201365)
(-0.601301 0.0143034 0.00720101)
(-0.573874 -0.00957032 -0.0113914)
(-0.510428 -0.0132491 -0.029702)
(-0.405273 0.0173178 -0.0434007)
(-0.269639 0.0849361 -0.0493091)
(-0.135511 0.1693 -0.0435538)
(-0.0373367 0.215365 -0.0274434)
(-0.000327811 0.157642 -0.0085009)
(0.00803146 0.221519 -0.0159035)
(0.0779222 0.415797 -0.0470596)
(0.183534 0.500985 -0.047728)
(0.256806 0.535338 -0.0285678)
(0.298034 0.549471 -0.00882654)
(0.313983 0.556138 0.00517711)
(0.31375 0.559364 0.0128132)
(0.302442 0.557306 0.016815)
(0.283352 0.548213 0.0195184)
(0.257965 0.530425 0.0220273)
(0.226767 0.503257 0.0242101)
(0.190221 0.467704 0.0254394)
(0.149546 0.426619 0.0250984)
(0.107225 0.384171 0.0225775)
(0.0657686 0.344672 0.0193444)
(0.0258809 0.311557 0.0161865)
(-0.0109966 0.28494 0.0142908)
(-0.0451243 0.262586 0.0129988)
(-0.077707 0.242869 0.0127159)
(-0.108043 0.224332 0.0130532)
(-0.13634 0.206375 0.0137018)
(-0.163262 0.189009 0.0145499)
(-0.189849 0.172445 0.0156566)
(-0.21738 0.156828 0.0171738)
(-0.247249 0.142119 0.0192886)
(-0.28086 0.128036 0.0221365)
(-0.319451 0.113963 0.0257056)
(-0.363743 0.09885 0.0296893)
(-0.413313 0.0811821 0.0333172)
(-0.465734 0.0591056 0.0352921)
(-0.515666 0.0307437 0.0338026)
(-0.555112 -0.0036155 0.0266489)
(-0.578842 -0.0411569 0.0120954)
(-0.574305 -0.0770238 -0.00607187)
(-0.526708 -0.0930677 -0.0269199)
(-0.435579 -0.0718539 -0.0456377)
(-0.302952 -0.000806923 -0.0538875)
(-0.155382 0.108405 -0.0489441)
(-0.0406469 0.190981 -0.0311162)
(0.00125089 0.158598 -0.00985837)
(0.00711913 0.227851 -0.012696)
(0.0776516 0.434542 -0.0426469)
(0.187652 0.524558 -0.0445833)
(0.267222 0.555669 -0.0263852)
(0.313705 0.561564 -0.00605986)
(0.33288 0.558246 0.00899979)
(0.333529 0.551434 0.01598)
(0.321168 0.541378 0.0193496)
(0.300672 0.526165 0.021201)
(0.273704 0.503857 0.0228187)
(0.240827 0.473758 0.0239684)
(0.202718 0.43694 0.0242015)
(0.160998 0.396351 0.0230812)
(0.118242 0.356032 0.0207894)
(0.0773559 0.319367 0.0171837)
(0.0394403 0.28828 0.014885)
(0.00444626 0.262929 0.0134881)
(-0.0277488 0.240321 0.01292)
(-0.0575177 0.219277 0.0129703)
(-0.0848489 0.198845 0.0132881)
(-0.110068 0.178936 0.0136738)
(-0.133869 0.15982 0.0141288)
(-0.157228 0.141732 0.0147929)
(-0.181296 0.124732 0.0158699)
(-0.207337 0.108696 0.0175645)
(-0.236693 0.0933106 0.020063)
(-0.270685 0.0780043 0.0234629)
(-0.310354 0.0618462 0.0276396)
(-0.355958 0.0433667 0.0320968)
(-0.4065 0.020285 0.0357115)
(-0.458178 -0.00940801 0.036861)
(-0.505535 -0.0482631 0.0328761)
(-0.541137 -0.0957695 0.0222662)
(-0.552727 -0.141384 0.00485723)
(-0.526409 -0.172497 -0.0177885)
(-0.452892 -0.167526 -0.0405338)
(-0.330694 -0.102113 -0.0551565)
(-0.178784 0.0262504 -0.0534739)
(-0.0447625 0.150137 -0.0357441)
(0.00427166 0.153574 -0.010898)
(0.00603311 0.226807 -0.00949135)
(0.0756518 0.44153 -0.0378858)
(0.187923 0.536862 -0.0412055)
(0.272668 0.566709 -0.0243918)
(0.324224 0.566412 -0.00409532)
(0.346547 0.555094 0.0113605)
(0.348295 0.539307 0.0182928)
(0.335637 0.522229 0.021262)
(0.314306 0.502085 0.0224061)
(0.286335 0.476712 0.0231068)
(0.252517 0.445222 0.0234429)
(0.213742 0.408537 0.022995)
(0.171924 0.369378 0.0214184)
(0.129835 0.331231 0.0189179)
(0.090056 0.297015 0.0162414)
(0.0536882 0.267426 0.014248)
(0.020529 0.24194 0.0132889)
(-0.00980033 0.218638 0.0130199)
(-0.03753 0.196372 0.0130731)
(-0.0628131 0.174623 0.0131711)
(-0.08599 0.153621 0.0132182)
(-0.107711 0.133659 0.0132939)
(-0.128832 0.114853 0.0135676)
(-0.150336 0.0971207 0.0142374)
(-0.173311 0.0802351 0.0154889)
(-0.198968 0.0638374 0.017509)
(-0.228569 0.0473683 0.0204434)
(-0.263299 0.0299349 0.0243296)
(-0.304126 0.0101296 0.0289508)
(-0.350354 -0.0140031 0.0337548)
(-0.400306 -0.0451946 0.0368532)
(-0.450235 -0.0867522 0.0363866)
(-0.492695 -0.138516 0.0299391)
(-0.517186 -0.195019 0.0158816)
(-0.509971 -0.243277 -0.00550852)
(-0.456756 -0.258944 -0.0302395)
(-0.349247 -0.211663 -0.0505592)
(-0.202236 -0.0776759 -0.0554881)
(-0.0514901 0.0888209 -0.0400761)
(0.00814659 0.139995 -0.0110478)
(0.0049037 0.219289 -0.00638308)
(0.0723385 0.437412 -0.0329105)
(0.185023 0.538145 -0.0377432)
(0.273817 0.568682 -0.0228462)
(0.330214 0.564294 -0.00315513)
(0.355655 0.546335 0.0121683)
(0.358782 0.523603 0.0196141)
(0.346604 0.50074 0.0225236)
(0.32513 0.476674 0.0231565)
(0.29684 0.449306 0.0231227)
(0.262839 0.41748 0.0228005)
(0.224231 0.381822 0.0219154)
(0.18306 0.344587 0.0201858)
(0.142096 0.308631 0.0177049)
(0.10363 0.276087 0.0154985)
(0.0685821 0.247388 0.0139822)
(0.0367777 0.221679 0.0132678)
(0.00784094 0.197657 0.0130614)
(-0.0185783 0.174543 0.0129376)
(-0.04268 0.152235 0.0127758)
(-0.0646793 0.130945 0.0125328)
(-0.0851669 0.110835 0.0123286)
(-0.104859 0.0918551 0.0123265)
(-0.124568 0.0737929 0.0126875)
(-0.145221 0.0563551 0.013552)
(-0.167888 0.0391675 0.0150929)
(-0.193753 0.0216757 0.0174468)
(-0.224004 0.00299016 0.0207695)
(-0.259429 -0.0181232 0.0250718)
(-0.300573 -0.0434199 0.0298223)
(-0.347032 -0.07626 0.0341197)
(-0.39585 -0.119544 0.036253)
(-0.441252 -0.175219 0.0337255)
(-0.474504 -0.24079 0.0241493)
(-0.482672 -0.305594 0.00650727)
(-0.449738 -0.345253 -0.017134)
(-0.360091 -0.322526 -0.040385)
(-0.22283 -0.198485 -0.0508244)
(-0.0589661 0.0055036 -0.0415747)
(0.0120978 0.116258 -0.00982991)
(0.00382188 0.206478 -0.00353524)
(0.0680887 0.423411 -0.0279733)
(0.179545 0.529178 -0.0342006)
(0.271264 0.562068 -0.0216264)
(0.332066 0.555702 -0.00299188)
(0.361005 0.532831 0.0121734)
(0.366157 0.504896 0.0200239)
(0.354974 0.477446 0.0230872)
(0.333952 0.450315 0.0234805)
(0.30598 0.421678 0.022963)
(0.272485 0.390178 0.0221497)
(0.234728 0.356035 0.0209468)
(0.194746 0.320921 0.0191767)
(0.155124 0.287025 0.0170229)
(0.117915 0.255867 0.0151105)
(0.0839289 0.227743 0.0138603)
(0.0530298 0.201938 0.0132497)
(0.024864 0.177564 0.0129758)
(-0.000841024 0.154142 0.0126929)
(-0.0243017 0.131895 0.0122907)
(-0.0457625 0.110929 0.0118364)
(-0.0656391 0.0911043 0.011458)
(-0.0845017 0.0722601 0.0112921)
(-0.103014 0.0540904 0.0114551)
(-0.121954 0.0362715 0.0120412)
(-0.142279 0.0184921 0.0131576)
(-0.165106 0.000140486 0.0149154)
(-0.191455 -0.0196581 0.0175294)
(-0.222247 -0.0420292 0.0210688)
(-0.25838 -0.0690081 0.0253873)
(-0.300071 -0.103262 0.0299541)
(-0.345821 -0.148201 0.033537)
(-0.391584 -0.207147 0.0340207)
(-0.430414 -0.280313 0.0288302)
(-0.450665 -0.360159 0.0160456)
(-0.436076 -0.424622 -0.00406376)
(-0.364972 -0.432062 -0.0272719)
(-0.239605 -0.329005 -0.0423061)
(-0.0688732 -0.101325 -0.0401757)
(0.0141656 0.0794325 -0.00360234)
(0.00286766 0.189572 -0.00111427)
(0.0632656 0.401014 -0.0233621)
(0.17206 0.511026 -0.0307603)
(0.265641 0.547652 -0.0206792)
(0.330426 0.541349 -0.0034249)
(0.36325 0.515534 0.0115219)
(0.371151 0.483799 0.019686)
(0.361538 0.452763 0.0230381)
(0.341483 0.423212 0.023432)
(0.314354 0.393747 0.022665)
(0.28191 0.362915 0.0215416)
(0.245527 0.330498 0.020158)
(0.207106 0.297552 0.0184465)
(0.168955 0.265619 0.0165803)
(0.132911 0.235793 0.0149432)
(0.0997319 0.208301 0.0138375)
(0.0693579 0.182695 0.0132302)
(0.041515 0.158437 0.0128503)
(0.0160833 0.135305 0.0124473)
(-0.00709072 0.11342 0.0118851)
(-0.0284064 0.0932622 0.0112663)
(-0.0481423 0.0738971 0.0107957)
(-0.0666187 0.0553726 0.0105438)
(-0.0844117 0.0372722 0.0105918)
(-0.102125 0.0191499 0.0110336)
(-0.120706 0.00108365 0.0117593)
(-0.141279 -0.0181653 0.0129621)
(-0.164634 -0.0390349 0.014883)
(-0.191582 -0.0626824 0.0176251)
(-0.223129 -0.0909774 0.0212206)
(-0.259976 -0.126622 0.0254641)
(-0.301832 -0.173301 0.0296215)
(-0.346408 -0.235237 0.0321462)
(-0.388637 -0.314942 0.0306861)
(-0.418523 -0.408335 0.0228241)
(-0.420033 -0.497107 0.00732368)
(-0.368278 -0.538419 -0.0139611)
(-0.25711 -0.465342 -0.0319656)
(-0.0838293 -0.228084 -0.0339448)
(0.0133339 0.032552 0.00233283)
(0.00209908 0.169776 0.000798645)
(0.0582165 0.371884 -0.0192645)
(0.163151 0.48494 -0.0275665)
(0.257544 0.526302 -0.019997)
(0.32585 0.521909 -0.00433812)
(0.362907 0.494988 0.0103799)
(0.374281 0.460851 0.0187524)
(0.366834 0.427048 0.0224815)
(0.348241 0.395501 0.0230684)
(0.322397 0.365403 0.0222555)
(0.291424 0.335327 0.0209917)
(0.256782 0.304656 0.0195481)
(0.220189 0.273845 0.0179459)
(0.18363 0.243866 0.0163124)
(0.148719 0.215468 0.0148955)
(0.116202 0.188868 0.0138898)
(0.0861273 0.163867 0.0132528)
(0.0583355 0.140215 0.0127705)
(0.0327579 0.117851 0.0122643)
(0.00974535 0.0967952 0.0117238)
(-0.0116381 0.0771005 0.0108562)
(-0.0316937 0.0584926 0.0103937)
(-0.0500458 0.0404596 0.0100965)
(-0.067599 0.0226947 0.0100291)
(-0.0844294 0.00496449 0.0104472)
(-0.101963 -0.0140548 0.0107011)
(-0.121253 -0.0341692 0.0115467)
(-0.142309 -0.0559566 0.0129042)
(-0.166206 -0.0805973 0.0149045)
(-0.193934 -0.109957 0.0176999)
(-0.226471 -0.146825 0.0213446)
(-0.26444 -0.195166 0.0255743)
(-0.307169 -0.259943 0.0294575)
(-0.351514 -0.345579 0.0310896)
(-0.389368 -0.451378 0.0278312)
(-0.405252 -0.563252 0.0171146)
(-0.372812 -0.639396 -0.0015217)
(-0.27612 -0.602767 -0.021569)
(-0.101256 -0.36914 -0.0270512)
(0.0110768 -0.03095 0.00288246)
(0.00153922 0.148295 0.00221309)
(0.0531919 0.337799 -0.0157622)
(0.153287 0.452293 -0.0247045)
(0.247496 0.498908 -0.0195582)
(0.31878 0.498036 -0.00562653)
(0.360354 0.471885 0.00890818)
(0.37587 0.436472 0.0172857)
(0.371146 0.400556 0.0214659)
(0.354542 0.367297 0.0224268)
(0.330406 0.336592 0.0217591)
(0.30123 0.307161 0.0205001)
(0.268588 0.278096 0.0190817)
(0.234019 0.24933 0.0176098)
(0.199193 0.221327 0.0161785)
(0.165494 0.194548 0.014942)
(0.133647 0.169181 0.0140155)
(0.103819 0.145201 0.0133531)
(0.0759938 0.12256 0.0127918)
(0.050233 0.101271 0.0121949)
(0.0266533 0.0813217 0.0115159)
(0.00500322 0.0621701 0.0109132)
(-0.0150827 0.044264 0.0102967)
(-0.0336495 0.0267936 0.00995111)
(-0.0508498 0.00939791 0.00982464)
(-0.0681826 -0.00850406 0.00958498)
(-0.0859117 -0.0280181 0.010009)
(-0.103882 -0.0486011 0.0106139)
(-0.12334 -0.0710328 0.0115208)
(-0.14503 -0.0964152 0.0128866)
(-0.169854 -0.126572 0.0149388)
(-0.198951 -0.164406 0.0179446)
(-0.233618 -0.214208 0.0220693)
(-0.274606 -0.281721 0.0270084)
(-0.320623 -0.373119 0.0314109)
(-0.365452 -0.490855 0.0325596)
(-0.394236 -0.624925 0.0266278)
(-0.380045 -0.73559 0.010837)
(-0.299156 -0.7396 -0.011283)
(-0.130428 -0.518964 -0.0209787)
(-0.000496297 -0.109026 0.00309545)
(0.00116224 0.126277 0.00315337)
(0.0483115 0.300546 -0.0128773)
(0.142813 0.414555 -0.0221931)
(0.235956 0.466415 -0.0192943)
(0.309759 0.470301 -0.00726554)
(0.35573 0.446691 0.00673656)
(0.375736 0.410813 0.015204)
(0.374485 0.373417 0.020005)
(0.360528 0.338718 0.0215281)
(0.338549 0.307342 0.0211773)
(0.311445 0.278299 0.0200503)
(0.280985 0.250554 0.0187234)
(0.248607 0.223653 0.0173925)
(0.21569 0.197631 0.0161422)
(0.183382 0.172666 0.0150627)
(0.152355 0.148871 0.0142111)
(0.122864 0.126293 0.0135422)
(0.0950146 0.104978 0.0129378)
(0.0689434 0.0849522 0.0123036)
(0.0447864 0.0661111 0.0116332)
(0.0225426 0.0481333 0.0109959)
(0.00205772 0.0307933 0.0104662)
(-0.0168739 0.0137498 0.0100311)
(-0.0348486 -0.0033848 0.00974274)
(-0.0526198 -0.0219082 0.00956244)
(-0.0702825 -0.0411294 0.00972714)
(-0.088081 -0.0619159 0.0100764)
(-0.106783 -0.08477 0.0106204)
(-0.127125 -0.11067 0.0114824)
(-0.149994 -0.141374 0.012924)
(-0.176669 -0.179872 0.0153971)
(-0.20899 -0.230864 0.0194766)
(-0.248959 -0.30103 0.0254922)
(-0.297001 -0.398434 0.0326943)
(-0.348568 -0.528571 0.0383358)
(-0.388986 -0.684942 0.037287)
(-0.391064 -0.829211 0.0243017)