/*--------------------------------*- C++ -*----------------------------------*\
| =========                 |                                                 |
| \\      /  F ield         | OpenFOAM: The Open Source CFD Toolbox           |
|  \\    /   O peration     | Version:  v1806                                 |
|   \\  /    A nd           | Web:      www.OpenFOAM.com                      |
|    \\/     M anipulation  |                                                 |
\*---------------------------------------------------------------------------*/
FoamFile
{
    version     2.0;
    format      ascii;
    class       surfaceScalarField;
    location    "0.1075";
    object      phi;
}
// * * * * * * * * * * * * * * * * * * * * * * * * * * * * * * * * * * * * * //

dimensions      [0 3 -1 0 0 0 0];
oriented        oriented;


internalField   nonuniform List<scalar> 
187200
(
9.76797e-06
1.54351e-06
-1.131e-05
6.16726e-05
-2.64984e-05
-2.54062e-05
8.6564e-05
-1.23372e-05
-1.25539e-05
0.000107205
-1.05867e-05
-1.00541e-05
0.000124155
-7.08136e-06
-9.86781e-06
0.000142836
-6.54235e-06
-1.21391e-05
0.000159836
-2.53227e-06
-1.44674e-05
0.000177968
-4.04375e-07
-1.77283e-05
0.000194234
3.02621e-06
-1.92916e-05
0.000205864
8.6042e-06
-2.02337e-05
0.000218935
6.90555e-06
-1.9977e-05
0.000230601
1.08868e-05
-2.25529e-05
0.000230302
1.75372e-05
-1.72387e-05
0.000206202
3.41753e-05
-1.00758e-05
0.000164029
4.40286e-05
-1.8563e-06
0.000128007
3.06263e-05
5.39663e-06
7.83427e-05
3.06138e-05
1.90505e-05
2.81115e-05
4.19109e-05
8.32002e-06
-6.86617e-05
9.96898e-05
-2.91717e-06
-0.000212746
0.000143439
6.444e-07
-0.000486632
0.00023607
3.78159e-05
-0.000679141
0.000239942
-4.74335e-05
-0.000826265
0.000288913
-0.00014179
-0.000875848
0.00030964
-0.000260056
-0.000865669
0.000340563
-0.000350742
-0.000798712
0.000369006
-0.000435963
-0.000690189
0.000395167
-0.00050369
-0.000549356
0.000410695
-0.000551528
-0.000383945
0.00040631
-0.000571721
-0.000215575
0.000388758
-0.000557129
-8.1506e-05
0.000349488
-0.000483557
8.01279e-06
0.000300978
-0.000390497
4.4007e-05
0.000240714
-0.000276709
4.06024e-05
0.000176085
-0.000172681
1.93002e-05
0.000122276
-0.000100973
-3.25277e-07
8.22786e-05
-6.26534e-05
-1.0057e-05
5.65113e-05
-4.67795e-05
-1.3413e-05
4.36881e-05
-4.03325e-05
-1.13712e-05
3.42462e-05
-3.62889e-05
2.48614e-05
-3.62332e-05
4.04725e-06
1.87104e-05
-2.1214e-05
4.93494e-05
-3.55455e-05
-3.62547e-05
9.45953e-05
-2.78683e-05
-2.97146e-05
0.000127922
-1.67682e-05
-2.7145e-05
0.000152652
-6.57662e-06
-2.52341e-05
0.000171708
3.58186e-06
-2.9181e-05
0.000182319
2.20777e-05
-3.52207e-05
0.000188056
3.48826e-05
-4.10242e-05
0.000181609
6.02621e-05
-5.07881e-05
0.000169263
7.88258e-05
-5.78765e-05
0.000131288
0.000118937
-7.40559e-05
7.10355e-05
0.000163465
-9.23274e-05
-1.42513e-05
0.000201227
-9.8404e-05
-0.000114
0.00024178
-0.000107857
-0.000231885
0.000296172
-0.000134258
-0.000403332
0.000368867
-0.000166793
-0.00057219
0.000446866
-0.000247394
-0.000753188
0.000528212
-0.000305303
-0.00091624
0.000636437
-0.000373695
-0.00108286
0.000743638
-0.000433577
-0.00125212
0.000872362
-0.000467037
-0.00135947
0.000950681
-0.000603389
-0.00143499
0.00105591
-0.000691471
-0.00143538
0.00109394
-0.000783911
-0.0013616
0.00113801
-0.000871232
-0.00122349
0.00116099
-0.000930089
-0.00103435
0.00116875
-0.00096272
-0.000808625
0.00114582
-0.000960849
-0.000571273
0.00108907
-0.000920112
-0.000343557
0.00100694
-0.000845895
-0.000148798
0.000882875
-0.000728146
1.01888e-05
0.000736502
-0.000594512
0.000101338
0.000581679
-0.000432115
0.000129485
0.000451804
-0.000303867
0.00011949
0.000333681
-0.000201411
9.24005e-05
0.000247687
-0.000138319
6.12852e-05
0.000187148
-9.95223e-05
3.67035e-05
0.000147267
-7.89989e-05
1.33878e-05
0.000117795
-6.02353e-05
8.27903e-05
-4.45422e-05
2.11164e-05
1.12486e-05
-1.36544e-05
6.26886e-05
-4.0121e-05
-3.69969e-05
0.000106102
-2.95518e-05
-4.17301e-05
0.000138568
-6.95514e-06
-4.22792e-05
0.000156955
2.33603e-05
-4.83243e-05
0.000164844
5.2943e-05
-5.72501e-05
0.00015776
9.4702e-05
-6.55397e-05
0.000143798
0.000131487
-8.26416e-05
0.000119609
0.000191203
-0.000106752
6.76537e-05
0.000259796
-0.000129016
-1.71366e-05
0.000345163
-0.000141436
-0.000118133
0.000426238
-0.000161777
-0.000266387
0.000530061
-0.000180579
-0.000440428
0.000638968
-0.000223146
-0.000634437
0.000750365
-0.000260184
-0.000814802
0.000861669
-0.000312438
-0.000968954
0.000972727
-0.00037171
-0.00110462
0.00109385
-0.000429972
-0.00123544
0.00124755
-0.000480299
-0.00137569
0.00140329
-0.000519404
-0.00151612
0.00153923
-0.00052644
-0.0015937
0.001633
-0.000604735
-0.00163019
0.00173347
-0.000641079
-0.0016073
0.00174688
-0.000675818
-0.00152195
0.00176898
-0.000716321
-0.00138693
0.00175485
-0.000728882
-0.00121429
0.00171527
-0.000719157
-0.00101588
0.00163297
-0.00068557
-0.000804109
0.00151412
-0.000636823
-0.000585518
0.00136221
-0.000573869
-0.00039365
0.00118279
-0.00049178
-0.00023298
0.000999615
-0.000423784
-0.000111309
0.000797564
-0.000337555
-2.73532e-05
0.000635501
-0.000267653
1.8444e-05
0.000488096
-0.000200213
3.51751e-05
0.000383402
-0.000152447
3.82787e-05
0.000306112
-0.000122068
3.05685e-05
0.000256048
-0.000101071
1.38559e-05
0.000207854
-7.33469e-05
0.000141648
-4.50022e-05
2.39519e-05
5.70755e-06
-1.84113e-05
6.42829e-05
-3.19513e-05
-4.8501e-05
0.000105379
-1.06769e-05
-5.99717e-05
0.000129807
3.58325e-05
-6.72148e-05
0.000136201
8.92515e-05
-7.22857e-05
0.000128157
0.00014619
-8.5203e-05
0.000110971
0.000221498
-0.00010961
7.80577e-05
0.000299751
-0.000135351
2.49794e-05
0.000411951
-0.000167669
-5.29111e-05
0.00052489
-0.000187203
-0.000159643
0.000657224
-0.00020533
-0.000305939
0.000793598
-0.000221065
-0.000466102
0.000928712
-0.000238488
-0.000618433
0.00104659
-0.000255288
-0.000764539
0.00117495
-0.000278473
-0.000899642
0.00130423
-0.000307458
-0.00102351
0.00143615
-0.000339558
-0.00113133
0.00155806
-0.000356399
-0.00123898
0.00171673
-0.000361517
-0.00135487
0.00185514
-0.000335964
-0.00149038
0.00194682
-0.00027208
-0.00156149
0.0019977
-0.000293597
-0.00159624
0.00205182
-0.000283586
-0.00157998
0.0020078
-0.000277187
-0.0015137
0.00198693
-0.000284229
-0.00141463
0.0019287
-0.000272919
-0.00129141
0.00184682
-0.000254769
-0.00115087
0.00172745
-0.000235017
-0.000998356
0.00157356
-0.00021195
-0.000831563
0.00140303
-0.000207608
-0.000652607
0.00120978
-0.000205948
-0.000474564
0.00102702
-0.000205452
-0.000315281
0.000837395
-0.000199113
-0.000187231
0.000700419
-0.000192969
-9.67962e-05
0.000571377
-0.000173716
-3.55039e-05
0.000473678
-0.000151569
3.37261e-06
0.000404183
-0.000136948
1.78521e-05
0.000352944
-0.000111376
1.55876e-05
0.00029041
-8.02923e-05
0.000199759
-4.2524e-05
2.41805e-05
1.72267e-05
-3.57e-05
6.5076e-05
2.97935e-06
-7.58258e-05
0.000109654
3.7538e-05
-9.2792e-05
0.00013045
0.000113749
-9.87132e-05
0.000127567
0.00019939
-0.000107255
0.000101155
0.000295132
-0.00012253
6.37159e-05
0.000412519
-0.000153582
2.28615e-05
0.000523355
-0.00018275
-2.11121e-05
0.000666949
-0.000211026
-9.0403e-05
0.000816608
-0.000222428
-0.000181525
0.000974604
-0.000226258
-0.000281862
0.00111784
-0.000223901
-0.000394636
0.00125995
-0.000218467
-0.000528381
0.00139576
-0.000215423
-0.000663441
0.00152164
-0.00021163
-0.000783972
0.00163458
-0.00020982
-0.000884011
0.00173641
-0.000200216
-0.000960947
0.0018056
-0.000170608
-0.00105191
0.00190374
-9.60495e-05
-0.00116039
0.00197958
-1.59613e-05
-0.00131542
0.00200809
9.37626e-05
-0.00139358
0.00197045
0.000105416
-0.00144694
0.00198326
0.000121916
-0.00146145
0.00190654
0.000115765
-0.00144084
0.00187001
9.63152e-05
-0.0013986
0.00180244
8.40141e-05
-0.0013379
0.00171639
6.97305e-05
-0.00126959
0.00160414
5.49918e-05
-0.00117452
0.00146535
1.31396e-05
-0.00105378
0.00131467
-3.23752e-05
-0.000904656
0.00114602
-8.53728e-05
-0.000735441
0.000991823
-0.000134016
-0.000562761
0.000831595
-0.00016688
-0.000394115
0.000715173
-0.000183399
-0.000253647
0.000618363
-0.000187455
-0.000138297
0.000529065
-0.000170737
-5.53833e-05
0.000471876
-0.000150607
-5.45294e-06
0.000427093
-0.00012408
9.52758e-06
0.000359525
-8.40963e-05
0.000247371
-3.80865e-05
1.76444e-05
6.3887e-05
-6.43043e-05
6.75967e-05
7.09338e-05
-0.000117906
0.000113295
0.000131963
-0.000140123
0.000133964
0.000233731
-0.000140651
0.000126139
0.000347443
-0.000140228
9.76629e-05
0.000475315
-0.000151708
7.03957e-05
0.00062593
-0.000186144
4.2483e-05
0.000771885
-0.000220617
4.44021e-07
0.000943603
-0.000234615
-5.91391e-05
0.00110036
-0.00022417
-0.000127954
0.00124939
-0.00020597
-0.000206298
0.00137983
-0.000183643
-0.000291079
0.0015028
-0.000158067
-0.000370383
0.00160367
-0.00012861
-0.000448567
0.00169412
-9.4304e-05
-0.00051286
0.00175668
-5.78051e-05
-0.000587857
0.00180379
7.61347e-06
-0.000683336
0.00182188
7.92002e-05
-0.00078623
0.00184349
0.00016315
-0.000897961
0.00182573
0.00026558
-0.00106273
0.00184001
0.000332845
-0.00116819
0.00173675
0.000339163
-0.00125836
0.00173464
0.000338792
-0.00132105
0.00164275
0.000326472
-0.00135285
0.0016017
0.000300109
-0.00136858
0.00154043
0.000277752
-0.00136903
0.00147297
0.000243856
-0.0013574
0.00138878
0.000203741
-0.00131867
0.0012855
0.000141121
-0.00123242
0.00117699
5.14318e-05
-0.00111525
0.00105345
-2.45911e-05
-0.000948583
0.000937293
-0.000112141
-0.000768696
0.000819801
-0.000168093
-0.000568479
0.00072356
-0.000208603
-0.000385644
0.00065304
-0.000217513
-0.000232317
0.000573362
-0.000197625
-0.000110591
0.00052654
-0.00017639
-3.05469e-05
0.000486058
-0.000139009
6.09793e-06
0.000414174
-9.12941e-05
0.000290308
-3.68398e-05
1.97637e-05
0.000141581
-9.74569e-05
8.59893e-05
0.000176048
-0.000171339
0.000139537
0.000266272
-0.000187856
0.000163798
0.000388847
-0.000179377
0.000159016
0.000528581
-0.000176357
0.000119797
0.000694359
-0.000179826
0.000108523
0.000853875
-0.000216672
8.97697e-05
0.00101846
-0.000227824
7.46806e-05
0.00117612
-0.000217428
4.00127e-05
0.00131933
-0.000184301
-6.17538e-06
0.00144522
-0.000149646
-6.74367e-05
0.00155244
-0.000111353
-0.000133875
0.00163985
-7.06063e-05
-0.000200021
0.0016977
-2.78841e-05
-0.000268632
0.00173261
3.01228e-05
-0.000326393
0.00173269
8.1752e-05
-0.000390258
0.0017242
0.00014345
-0.000453675
0.00167387
0.000211432
-0.000554427
0.0016451
0.000299138
-0.000658598
0.00155193
0.000377974
-0.000825706
0.00155949
0.000447621
-0.000966904
0.00142194
0.000456001
-0.00107532
0.00140601
0.000437037
-0.00118743
0.00134296
0.000411899
-0.00127029
0.00131624
0.000368324
-0.00134243
0.00128118
0.000331394
-0.00139729
0.00124583
0.00028201
-0.00143317
0.00119726
0.000227401
-0.00144259
0.00113802
0.00015689
-0.00139082
0.00107072
5.45017e-05
-0.00130154
0.000987161
-2.30011e-05
-0.00115487
0.000896536
-0.000105908
-0.000965013
0.000807235
-0.000177292
-0.000737539
0.000714266
-0.00021818
-0.000501713
0.000670754
-0.00025354
-0.000318419
0.000619746
-0.000229677
-0.0001583
0.000574694
-0.000208273
-5.32049e-05
0.000541416
-0.000160453
1.23993e-06
0.000465244
-0.000105513
0.000331154
-3.9605e-05
2.96e-05
0.000243008
-0.000131026
0.000112739
0.000312293
-0.000219383
0.000179975
0.000429187
-0.000230151
0.000207825
0.000566126
-0.000205129
0.000204167
0.000718091
-0.000185853
0.000189085
0.000895731
-0.000186289
0.00020235
0.00104873
-0.000208119
0.000205637
0.00121652
-0.000201348
0.000198123
0.00135491
-0.000171276
0.000163099
0.00147963
-0.000125274
0.000121138
0.00157334
-8.61567e-05
6.89734e-05
0.00164598
-4.13752e-05
1.26621e-05
0.00168489
1.12692e-05
-4.89612e-05
0.00168758
7.17399e-05
-0.000107727
0.00166671
0.000124663
-0.00016925
0.00161131
0.000182896
-0.000232739
0.00154883
0.000238864
-0.000297394
0.00145534
0.000283184
-0.000379278
0.00139147
0.000335509
-0.000493019
0.00127542
0.000390243
-0.000635912
0.0012655
0.000436888
-0.000813244
0.0011573
0.000441979
-0.000940682
0.00111881
0.000414647
-0.00109395
0.00110739
0.000388842
-0.00121807
0.00109242
0.000347938
-0.00132699
0.00108213
0.000307959
-0.00141872
0.00107193
0.00026563
-0.00149149
0.00104887
0.000221163
-0.00152955
0.00102423
0.000151853
-0.00150894
0.000977966
7.21445e-05
-0.00144478
0.000915075
7.92094e-06
-0.00131877
0.000841072
-7.05476e-05
-0.00112686
0.000771512
-0.00015618
-0.000901878
0.000702886
-0.000213605
-0.000641474
0.000661614
-0.000251264
-0.000411872
0.000651433
-0.000261289
-0.000214868
0.000608698
-0.000231007
-7.91094e-05
0.00058905
-0.000183393
-5.96263e-06
0.00051026
-0.000118162
0.000369448
-4.4256e-05
4.76699e-05
0.000356041
-0.000160702
0.000154691
0.000466647
-0.000261375
0.000249435
0.000604626
-0.000270183
0.000295435
0.000747443
-0.000227318
0.00029556
0.000912417
-0.000194451
0.000296494
0.00107676
-0.000181968
0.000299613
0.00122145
-0.000175843
0.000305805
0.00136569
-0.000155361
0.000308661
0.00147589
-0.000123841
0.000288386
0.00157653
-7.66192e-05
0.000245596
0.00163718
-2.10487e-05
0.000197777
0.00166206
3.17425e-05
0.000137757
0.00165369
9.12215e-05
7.23504e-05
0.00161492
0.000138071
7.68843e-06
0.00154661
0.000184765
-6.0372e-05
0.00145266
0.000226712
-0.000130969
0.00135859
0.00026083
-0.000206782
0.00124802
0.00028313
-0.000284639
0.00116552
0.000303804
-0.000403958
0.00106271
0.000332032
-0.000521509
0.00102641
0.00035664
-0.00070928
0.000977322
0.000367746
-0.000867117
0.000926046
0.000350597
-0.00103646
0.000947512
0.00032922
-0.0011847
0.000937256
0.000303411
-0.00131393
0.000943553
0.000267805
-0.00143143
0.000942319
0.000247111
-0.00152694
0.000940562
0.000203824
-0.00159539
0.000922004
0.000170672
-0.00161407
0.000883364
0.000113288
-0.00156771
0.000829224
3.94826e-05
-0.00145679
0.000768179
-3.80181e-05
-0.00126848
0.000706495
-0.000123301
-0.00103073
0.000655471
-0.00019033
-0.000752292
0.000622027
-0.00023885
-0.000492432
0.000647465
-0.000255892
-0.000268445
0.00063328
-0.000248569
-0.000101875
0.000623433
-0.000200955
-1.46566e-05
0.000555046
-0.000132006
0.000405933
-5.11416e-05
6.59907e-05
0.000466817
-0.000176766
0.000199076
0.000626442
-0.000292878
0.000319992
0.000780122
-0.000296412
0.000380843
0.000924716
-0.000238124
0.000400214
0.00107689
-0.000183843
0.000404559
0.00122167
-0.000149255
0.000398445
0.00135608
-0.000128508
0.000400749
0.00147097
-0.000107582
0.000391539
0.00155577
-7.06627e-05
0.000382436
0.00160647
-2.08384e-05
0.000357004
0.00163556
2.70504e-05
0.000300714
0.0016304
8.79474e-05
0.000229112
0.00158756
0.000137728
0.000158348
0.00150379
0.000181888
8.46791e-05
0.00140566
0.000214612
7.75993e-06
0.0012916
0.000237983
-6.95175e-05
0.00118564
0.000250232
-0.000151733
0.00107911
0.000251125
-0.00023496
0.000997883
0.000250868
-0.000357645
0.00092677
0.000258625
-0.000480761
0.000879355
0.000270173
-0.00065176
0.000860121
0.0002882
-0.000829566
0.000813599
0.000290253
-0.000989297
0.000830659
0.000276584
-0.00114745
0.000823583
0.000271823
-0.00128053
0.000834712
0.000241924
-0.0014126
0.000835497
0.000238893
-0.0015304
0.00083538
0.000222983
-0.00161967
0.000810731
0.000200539
-0.00166432
0.00077611
0.000151908
-0.00164509
0.000733467
7.65223e-05
-0.00155334
0.000685846
-9.41113e-06
-0.00138509
0.000636231
-9.79837e-05
-0.00114695
0.000596164
-0.00017884
-0.00086712
0.000558875
-0.000216674
-0.000570247
0.00059316
-0.000242568
-0.000320444
0.000627935
-0.000244458
-0.000128365
0.000639649
-0.000208293
-2.36683e-05
0.00058898
-0.000138631
0.00043814
-5.5875e-05
8.25424e-05
0.000567008
-0.000182733
0.000245563
0.000775387
-0.000311965
0.000393817
0.000942746
-0.000310879
0.000473685
0.00108305
-0.000238207
0.000509957
0.00121417
-0.000173558
0.000513603
0.00133527
-0.00011724
0.000508254
0.0014456
-8.41786e-05
0.000498619
0.00153127
-5.06618e-05
0.000476802
0.001591
-1.3413e-05
0.000447207
0.00161871
1.73524e-05
0.000409004
0.00160764
6.61224e-05
0.000365198
0.00155668
0.000117526
0.000300755
0.00148718
0.000164823
0.000217807
0.00138743
0.000199312
0.000132105
0.001269
0.000222366
4.5948e-05
0.0011493
0.000228456
-4.03498e-05
0.00104636
0.000225579
-0.000129602
0.000952892
0.000215469
-0.000222245
0.000883128
0.000207398
-0.000337082
0.000833429
0.000208178
-0.000461361
0.000789628
0.000214006
-0.000604271
0.000769203
0.000233828
-0.000782346
0.000743672
0.000248003
-0.000931423
0.000731386
0.000248351
-0.00108532
0.000724946
0.00025253
-0.00122439
0.000726169
0.000247618
-0.00136443
0.000731096
0.000244442
-0.00149855
0.000717003
0.000252495
-0.00161138
0.000695733
0.000227823
-0.00168116
0.000665746
0.000180146
-0.00169949
0.000625191
0.000126612
-0.00163703
0.000591982
3.14042e-05
-0.00148732
0.000554642
-6.81208e-05
-0.00124089
0.000525762
-0.000176035
-0.000947289
0.00049363
-0.000228353
-0.000635146
0.000521245
-0.000240227
-0.000368465
0.000586703
-0.000225451
-0.000151416
0.000641772
-0.000219172
-3.09567e-05
0.000612522
-0.000144
0.000470194
-6.30107e-05
9.57896e-05
0.000650143
-0.000178925
0.000285651
0.000906926
-0.0003214
0.000458894
0.0010878
-0.000318293
0.000557557
0.00121616
-0.000231766
0.000606084
0.00132327
-0.000157619
0.000615313
0.00141587
-8.98319e-05
0.000608889
0.0014982
-4.61683e-05
0.00058919
0.00155707
-6.09884e-06
0.000555413
0.0015927
3.20794e-05
0.000508508
0.00158762
7.79934e-05
0.000452533
0.00155499
0.000108627
0.000390884
0.00148431
0.000134016
0.000324004
0.00138369
0.000170362
0.000249009
0.00126313
0.00019929
0.000161519
0.00114837
0.000208118
7.13186e-05
0.00103171
0.000207793
-1.79905e-05
0.000939128
0.000196538
-0.000109748
0.00086046
0.00018419
-0.000209274
0.000804124
0.000178531
-0.000321383
0.00076621
0.000179328
-0.000440966
0.000724047
0.000185163
-0.000567394
0.000692892
0.00020274
-0.00072045
0.000674126
0.000222602
-0.000854706
0.000635971
0.000229671
-0.000996813
0.000622906
0.000244148
-0.00113126
0.000615616
0.000244997
-0.00128079
0.000608373
0.000272252
-0.00142647
0.000595377
0.000267305
-0.00155447
0.000578822
0.000244915
-0.00165532
0.000555029
0.000211565
-0.0016975
0.00053716
0.000130217
-0.00166973
0.000516321
4.78837e-05
-0.0015581
0.00048465
-4.16356e-05
-0.00134373
0.00045347
-0.00014208
-0.00104417
0.00043591
-0.000241835
-0.000703182
0.000443552
-0.000263296
-0.000401859
0.000514307
-0.000228926
-0.00017446
0.000612822
-0.000198447
-3.86404e-05
0.000623487
-0.000146784
0.000497854
-6.63008e-05
0.000106604
0.000708084
-0.000164545
0.000320597
0.00101053
-0.000317596
0.000520817
0.00120152
-0.000313942
0.000640088
0.00131542
-0.000218533
0.000695133
0.00140279
-0.000134568
0.000708123
0.00146973
-6.68495e-05
0.000700919
0.00152259
-1.71926e-05
0.000674624
0.00155177
3.15919e-05
0.000630714
0.00155961
7.69928e-05
0.000569217
0.00153592
0.000113194
0.000497286
0.00148068
0.000146241
0.000419659
0.00139306
0.000168881
0.00033834
0.00128459
0.000180425
0.000257054
0.00115975
0.000184662
0.000176627
0.00104154
0.000187259
8.97114e-05
0.000939288
0.000179333
-8.82553e-07
0.000858941
0.00017078
-9.12486e-05
0.000789162
0.000161664
-0.00019281
0.000742
0.000163686
-0.000297065
0.000702315
0.000168151
-0.00040325
0.000654325
0.000175907
-0.000518902
0.000619651
0.000188893
-0.000643117
0.000592216
0.000206126
-0.000759933
0.000539803
0.000212984
-0.000885531
0.000520127
0.000228376
-0.00101676
0.000502605
0.00024424
-0.00116623
0.000490894
0.00026695
-0.00131697
0.000479209
0.000266912
-0.00146299
0.000467422
0.000257418
-0.00158443
0.000463011
0.000213455
-0.00166552
0.000462081
0.000156173
-0.00167755
0.000435652
9.27001e-05
-0.00161129
0.000394227
2.41599e-05
-0.00143937
0.000353758
-7.22098e-05
-0.00115687
0.000337234
-0.000183821
-0.000800652
0.000353025
-0.000265692
-0.000453941
0.000433516
-0.00026592
-0.000198528
0.00054898
-0.000191571
-4.69131e-05
0.000618891
-0.00014702
0.000524097
-7.31576e-05
0.000110523
0.00074656
-0.000148999
0.00034384
0.00108769
-0.000310481
0.00056919
0.00128775
-0.000311578
0.000705882
0.00138896
-0.000210232
0.000767927
0.00145476
-0.000114019
0.000781251
0.0014978
-4.13904e-05
0.000771542
0.00152588
6.41853e-06
0.000735518
0.00152709
6.07059e-05
0.000682507
0.00150931
0.000103317
0.000616224
0.00146247
0.000139734
0.000536099
0.00139245
0.000168349
0.000443779
0.00129483
0.000190545
0.000348181
0.00118441
0.000195778
0.000260035
0.00106269
0.000185209
0.00018048
0.000954551
0.000166539
0.000102007
0.000860868
0.000156893
2.2632e-05
0.000788486
0.000149829
-6.46215e-05
0.000728536
0.00014788
-0.000163036
0.00068448
0.000155934
-0.000257443
0.000633077
0.000163644
-0.000355515
0.000581538
0.000170859
-0.000458443
0.000544123
0.000178456
-0.000551716
0.000500165
0.000185324
-0.000652323
0.000447259
0.000193151
-0.000760302
0.000420428
0.000207678
-0.00088384
0.000390414
0.000235728
-0.0010236
0.000379287
0.000251371
-0.00117271
0.000368814
0.0002595
-0.00132421
0.000372309
0.000246612
-0.00147456
0.000381324
0.000232036
-0.00158696
0.000371111
0.000203378
-0.00165111
0.000332161
0.000167633
-0.00163196
0.000277228
9.78578e-05
-0.00150256
0.000223125
1.22744e-06
-0.00125081
0.000193264
-0.000107773
-0.000896756
0.00021633
-0.000217364
-0.000511909
0.000323362
-0.000274693
-0.000220243
0.000481119
-0.000223803
-5.2254e-05
0.000597748
-0.000146846
0.000550411
-7.85698e-05
0.000116755
0.000750537
-0.000120732
0.000368632
0.00112395
-0.000288133
0.000614048
0.00133653
-0.0002942
0.000767423
0.00143288
-0.000197291
0.000834615
0.00147953
-9.19561e-05
0.000844693
0.00149908
-1.1357e-05
0.000827416
0.00150001
4.31511e-05
0.00078779
0.00147757
8.91433e-05
0.000732141
0.00143833
0.000126626
0.000657409
0.00137466
0.000162544
0.000571508
0.00129158
0.000186779
0.000474846
0.00118842
0.000203071
0.000372797
0.00107873
0.000207732
0.000275104
0.000969116
0.000191267
0.000195393
0.000871343
0.000162918
0.000120286
0.000790204
0.00014577
4.71384e-05
0.000725362
0.000136272
-3.33285e-05
0.000667742
0.000141261
-0.000122084
0.000619956
0.000153279
-0.000210596
0.00056228
0.000159308
-0.000301523
0.000508446
0.000164019
-0.000386167
0.00046512
0.000163647
-0.000461319
0.000414279
0.000161038
-0.00054638
0.000364059
0.00016826
-0.000638703
0.000329533
0.000183218
-0.000747101
0.000295832
0.00020298
-0.000872782
0.000281198
0.000223771
-0.00101063
0.000274533
0.000232131
-0.00116975
0.000291091
0.000240338
-0.00132216
0.000294035
0.000239693
-0.00146574
0.000274414
0.000240282
-0.00157426
0.00022962
0.000211063
-0.00161265
0.000163691
0.00015192
-0.00154353
8.73397e-05
6.66685e-05
-0.00133457
3.39184e-05
-4.96114e-05
-0.00101066
4.25493e-05
-0.000150129
-0.000598653
0.000156134
-0.000244783
-0.000249934
0.00038947
-0.000257069
-6.15118e-05
0.000556613
-0.000147287
0.000570383
-8.14845e-05
0.000116635
0.000733681
-9.97777e-05
0.000378426
0.00112961
-0.000267445
0.000638748
0.0013553
-0.00027909
0.000805895
0.00144912
-0.000183385
0.000880621
0.00148202
-7.72182e-05
0.000889269
0.00147605
1.43817e-05
0.000866913
0.00145319
6.91772e-05
0.000819948
0.0014085
0.000116032
0.000758173
0.00135256
0.000147539
0.00068272
0.00127643
0.000173686
0.000596169
0.0011848
0.000193332
0.000495269
0.00107849
0.000210834
0.000393644
0.000974869
0.00020548
0.000297607
0.000874959
0.000190194
0.00021281
0.000791053
0.000165086
0.000142215
0.000718573
0.000142226
7.81185e-05
0.000654907
0.000134552
5.63832e-07
0.000607372
0.000137924
-8.33558e-05
0.00055693
0.000146945
-0.000162553
0.000491089
0.000150388
-0.000243462
0.000439678
0.000149677
-0.000312646
0.000393809
0.000140494
-0.000379715
0.000344283
0.000137065
-0.000451312
0.00029339
0.000142266
-0.000529001
0.000254779
0.000152443
-0.000621495
0.0002163
0.000172026
-0.000723101
0.000196984
0.000185821
-0.000851682
0.000199532
0.000203582
-0.000991903
0.000208471
0.000222841
-0.00114541
0.00019829
0.000249254
-0.00130686
0.00017802
0.000257844
-0.00144877
0.000128625
0.000242907
-0.00153638
5.57438e-05
0.000195552
-0.00152541
-4.17664e-05
0.00011814
-0.00138115
-0.000124982
1.46392e-05
-0.00108652
-0.000153926
-9.8152e-05
-0.00068827
-4.64753e-05
-0.000195646
-0.000286958
0.000224381
-0.000236223
-7.08461e-05
0.000504241
-0.000163739
0.000578283
-7.87444e-05
0.000131612
0.000640094
-3.80243e-05
0.000404905
0.00107475
-0.000218429
0.000677337
0.00132381
-0.000240946
0.000862581
0.00141716
-0.00015329
0.000939003
0.00144121
-3.56115e-05
0.000940909
0.00142019
5.39507e-05
0.000905323
0.00137697
0.000111808
0.000852065
0.00131144
0.000150322
0.000788149
0.00124195
0.000174532
0.000712997
0.0011595
0.000192074
0.000629852
0.00106991
0.00019803
0.000536637
0.000973188
0.000198513
0.000437666
0.000879446
0.000194395
0.000341403
0.000791437
0.000179784
0.000252974
0.00071757
0.00016191
0.000173884
0.000654356
0.000143306
9.56362e-05
0.000600028
0.000133128
2.67896e-05
0.000540997
0.000135222
-3.74836e-05
0.000482271
0.000138933
-0.000113534
0.000431866
0.000135273
-0.000189996
0.000387087
0.000129052
-0.000249589
0.000333885
0.000119518
-0.000307985
0.000286212
0.000116467
-0.000371152
0.000236031
0.000120526
-0.000438663
0.000193202
0.000129088
-0.000514296
0.000152204
0.00013973
-0.000602359
0.000130176
0.000154871
-0.000711393
0.000127779
0.000180787
-0.000834699
0.000117691
0.000214086
-0.000983246
0.000100212
0.000246627
-0.00114673
7.47479e-05
0.000266755
-0.00130507
2.1409e-05
0.000265559
-0.00142867
-5.60307e-05
0.000235375
-0.00147067
-0.000170218
0.000170451
-0.00138857
-0.00028102
7.39351e-05
-0.00115163
-0.000354819
-3.60381e-05
-0.000779998
-0.000280472
-0.00013764
-0.000346439
-1.39849e-05
-0.000195194
-6.85093e-05
0.00041104
-0.000184731
0.000581153
-7.13786e-05
0.000124188
0.000532033
-1.61265e-05
0.000388413
0.00101797
-0.000207445
0.000674302
0.00128199
-0.000244064
0.000876445
0.00137444
-0.000159423
0.000967503
0.0013871
-3.69461e-05
0.000973332
0.00134414
7.02198e-05
0.000944352
0.00127991
0.000126035
0.000886465
0.00120545
0.000163877
0.000808639
0.00113598
0.000183796
0.000723265
0.00104752
0.000197358
0.000637209
0.000953381
0.000202586
0.000549053
0.000861678
0.000199665
0.000462359
0.000775957
0.000190182
0.00037874
0.000700774
0.000174282
0.000299362
0.000639774
0.000157172
0.000227431
0.000582983
0.000143304
0.000160602
0.000532344
0.000134514
8.628e-05
0.000482789
0.00013253
-4.10276e-06
0.000439288
0.000133365
-7.85761e-05
0.000386546
0.000119793
-0.000143209
0.0003379
0.00011382
-0.000195209
0.000282366
0.00010352
-0.000249908
0.000237295
0.000103616
-0.000304291
0.000186797
0.000103619
-0.000363863
0.000142568
0.000110206
-0.000425181
9.58897e-05
0.000117634
-0.000498187
6.93446e-05
0.000133837
-0.000580427
4.56951e-05
0.000164325
-0.000686363
2.3101e-05
0.000200527
-0.000815909
-4.49866e-06
0.000234256
-0.000969735
-3.28294e-05
0.000261402
-0.00113426
-8.84794e-05
0.000274412
-0.00128475
-0.000166885
0.000261347
-0.00137607
-0.000292852
0.00021395
-0.00135628
-0.000430331
0.000129527
-0.00118126
-0.000560378
3.0532e-05
-0.000835638
-0.000543548
-8.25414e-05
-0.000417392
-0.000279639
-0.00015259
-7.37819e-05
0.000224718
-0.000157289
0.000562701
-5.53329e-05
0.000156625
0.000325786
4.96216e-05
0.000399396
0.000896529
-0.000121332
0.000690288
0.00117648
-0.000185387
0.000899668
0.00127587
-0.000110806
0.00100101
0.00128168
4.0812e-06
0.000998988
0.0012404
0.000105765
0.00095162
0.00116857
0.000158705
0.000885032
0.00107818
0.00019385
0.000822271
0.000992622
0.000206117
0.00076363
0.000899311
0.000206851
0.000698476
0.00081697
0.000201565
0.000623083
0.000744668
0.000192403
0.000541026
0.00067858
0.000179435
0.00045648
0.000621897
0.000163422
0.00037324
0.000573329
0.000149685
0.000292503
0.000534646
0.000129076
0.000209963
0.000495379
0.000119504
0.000125573
0.000447187
0.000119992
3.72618e-05
0.000402189
0.000125411
-3.40229e-05
0.000345544
0.000112287
-9.82336e-05
0.000298754
0.000103357
-0.000151536
0.000241762
9.3908e-05
-0.000204004
0.000195967
9.37961e-05
-0.000253707
0.000144485
9.20162e-05
-0.000307967
9.95618e-05
9.72665e-05
-0.00036598
4.57883e-05
0.000108115
-0.00042784
6.90624e-06
0.000124298
-0.000497594
-3.89071e-05
0.000154356
-0.000589397
-7.60019e-05
0.000190906
-0.000698971
-0.000123732
0.000228807
-0.00083188
-0.000166962
0.000267041
-0.000983732
-0.000235825
0.000299198
-0.00114427
-0.000317677
0.000311334
-0.00126972
-0.000455789
0.000288382
-0.00131114
-0.000611305
0.000222398
-0.00119075
-0.000824019
0.000143247
-0.000882165
-0.00087975
2.76161e-05
-0.000451596
-0.000625199
-8.50062e-05
-8.58447e-05
-3.1673e-05
-0.000109357
0.000498027
-2.11687e-05
0.000128732
0.000184203
1.28513e-05
0.000347415
0.00081354
-0.000135695
0.000640868
0.00108826
-0.000205233
0.000861917
0.00118713
-0.000132311
0.000983754
0.00117474
-1.49028e-05
0.00101552
0.00111444
9.41903e-05
0.000999172
0.00102379
0.000161132
0.000954061
0.000938653
0.000184643
0.000892278
0.000870303
0.000184102
0.000815141
0.000798059
0.000178389
0.000735455
0.000726872
0.000169784
0.000653487
0.000664541
0.000162095
0.00057324
0.000606817
0.000152009
0.000492858
0.000560168
0.000142112
0.000411973
0.000521757
0.000132458
0.00032949
0.00048881
0.000128318
0.000250932
0.000455488
0.00011845
0.000173649
0.000412602
0.000111869
9.47325e-05
0.000366022
0.000115084
1.16507e-05
0.000312363
0.000116263
-5.5297e-05
0.000261846
0.000103857
-0.000112023
0.000204622
9.38669e-05
-0.000161864
0.000156158
8.96508e-05
-0.000206864
0.000101754
8.77308e-05
-0.000252748
5.28084e-05
9.26371e-05
-0.000306754
-1.35103e-06
0.000101146
-0.000356263
-5.03249e-05
0.00010674
-0.000407652
-0.000115393
0.000127876
-0.000477359
-0.000169314
0.000163019
-0.000565539
-0.00023655
0.000200998
-0.00067905
-0.000296907
0.000243456
-0.000816515
-0.000388998
0.000290637
-0.000982565
-0.000484474
0.000332847
-0.00113984
-0.00065468
0.000356163
-0.00123383
-0.000851992
0.000334677
-0.00120996
-0.00110396
0.000256069
-0.00101863
-0.00121652
0.00014544
-0.000579052
-0.00108681
2.20332e-05
-0.000156258
-0.000426369
-2.80995e-05
0.000317133
2.46379e-05
9.30978e-05
7.64702e-05
1.46346e-05
0.000339639
0.000694259
-0.000127261
0.000626229
0.000994938
-0.000193267
0.000867791
0.0011029
-0.000157332
0.00100233
0.00109397
-5.37635e-05
0.00103818
0.00103137
4.72237e-05
0.00100091
0.000937826
0.000123235
0.0009338
0.000848559
0.000157202
0.000878455
0.000769781
0.000155867
0.000820507
0.000703877