/*--------------------------------*- C++ -*----------------------------------*\
| =========                 |                                                 |
| \\      /  F ield         | OpenFOAM: The Open Source CFD Toolbox           |
|  \\    /   O peration     | Version:  v1806                                 |
|   \\  /    A nd           | Web:      www.OpenFOAM.com                      |
|    \\/     M anipulation  |                                                 |
\*---------------------------------------------------------------------------*/
FoamFile
{
    version     2.0;
    format      ascii;
    class       vectorField;
    location    "0.1085";
    object      currentcloudofpoints;
}
// * * * * * * * * * * * * * * * * * * * * * * * * * * * * * * * * * * * * * //


2409
(
(1.07203 1.25333 1.09263)
(0.852407 1.024 1.11624)
(1.46879 1.13886 1.0006)
(1.13551 1.31489 0.768811)
(1.20298 1.42093 1.27883)
(1.1917 1.20347 0.994375)
(1.22871 1.32959 1.01777)
(0.641623 1.25662 0.836804)
(1.66723 1.1468 0.995402)
(1.19066 1.06016 0.715067)
(1.2983 1.24898 1.3885)
(1.453 1.16676 1.08728)
(1.44085 1.31371 1.12674)
(1.23921 1.28494 1.19991)
(1.44002 1.2425 1.12181)
(1.46358 1.15126 1.0526)
(1.43859 1.1822 1.1017)
(1.22458 1.47569 1.0328)
(1.44766 1.31027 1.11496)
(1.39504 1.26375 1.15538)
(0.889202 0.954166 1.32143)
(0.525532 1.33568 1.24953)
(0.962558 1.35544 1.17934)
(1.09729 1.17712 1.21218)
(0.975072 0.965628 1.12901)
(0.571618 1.10167 1.41588)
(0.708263 1.06643 1.34246)
(0.945005 1.52642 1.40439)
(1.06991 1.25089 1.30693)
(1.45783 1.176 0.908246)
(1.43407 1.2207 0.900297)
(1.21916 1.4715 0.742658)
(1.23796 1.3732 0.724854)
(1.46304 1.15022 0.945692)
(1.4399 1.19362 0.908147)
(1.35737 1.38626 0.82537)
(1.20754 1.46791 0.751237)
(1.18269 1.46105 0.70547)
(0.888558 1.38426 0.613548)
(0.551828 0.946701 0.809493)
(0.755151 1.01912 0.733324)
(0.945174 0.946425 0.820141)
(1.09501 1.3268 0.828038)
(0.996804 1.25153 0.695356)
(0.615133 0.951477 0.734875)
(1.03939 0.939333 0.721791)
(0.846837 0.951229 0.989368)
(1.28947 1.40724 1.16009)
(1.23372 1.21411 1.12067)
(1.2682 1.20259 1.14417)
(1.16146 1.22458 1.01104)
(1.22207 1.43232 1.34195)
(1.34196 1.23549 1.1632)
(1.16633 1.31668 1.12007)
(1.45558 1.32369 0.986034)
(1.13566 1.21643 1.12844)
(1.24279 1.14776 0.866342)
(1.06735 1.534 0.570628)
(1.10611 1.61752 0.713578)
(1.17265 1.28661 0.750755)
(1.01815 1.68766 1.00201)
(1.39917 1.3572 0.902984)
(1.09006 1.45197 0.838693)
(1.06666 1.38487 0.923937)
(1.18547 1.39992 0.778185)
(0.97177 1.03288 1.14714)
(0.932475 0.964648 1.12906)
(1.00813 1.29978 1.07455)
(1.09217 1.52424 1.03062)
(0.983963 1.04129 1.21293)
(0.961709 0.996303 1.13498)
(0.845261 0.980656 1.12619)
(0.964891 1.43291 1.01147)
(0.958559 1.57294 0.998032)
(1.165 1.51972 0.950241)
(1.55316 1.39335 1.14632)
(1.56089 1.36611 1.11294)
(1.49792 1.17933 0.99817)
(1.15492 1.27239 1.03341)
(1.50172 1.43691 1.08551)
(1.57323 1.36794 1.10792)
(1.51904 1.39124 1.14729)
(1.49405 1.15756 0.997041)
(0.578126 1.11488 1.21982)
(0.465521 1.0627 1.15637)
(0.670359 1.17691 1.46908)
(1.07575 1.30076 1.43848)
(1.1145 1.12869 1.51195)
(1.11378 1.01302 1.50833)
(1.31856 1.31602 1.39738)
(0.627416 1.36966 1.06073)
(0.55673 1.08026 1.22968)
(0.544689 1.29249 1.40353)
(0.939239 1.36387 1.38726)
(1.14627 1.01331 1.48954)
(1.1637 0.963833 1.36913)
(1.09042 1.38228 1.35342)
(1.35831 1.24353 1.37238)
(1.26071 1.19526 1.38026)
(1.30029 1.0831 1.28923)
(1.38077 1.08375 1.29469)
(1.43486 1.11585 1.29007)
(1.47829 1.09868 1.26451)
(1.55627 1.10507 1.21901)
(1.64027 1.135 1.13856)
(1.25174 1.27379 1.41109)
(1.25021 1.11511 1.30324)
(1.34102 1.07609 1.29013)
(1.41242 1.10116 1.28952)
(1.4525 1.11054 1.27874)
(1.51031 1.09625 1.23976)
(1.59691 1.1166 1.18605)
(1.65895 1.1372 1.07107)
(0.642439 1.21531 0.704533)
(0.553701 1.02143 0.816359)
(0.782698 1.13558 0.837675)
(0.960814 1.15368 0.616214)
(1.12252 1.02956 0.72336)
(1.08381 1.03582 0.48388)
(1.06301 1.06845 0.531951)
(0.617445 1.02285 0.860146)
(0.721986 1.1441 0.672706)
(0.657164 1.0873 0.7979)
(0.891632 1.09518 0.618695)
(1.1764 1.0501 0.526468)
(1.0969 0.961747 0.606888)
(1.08915 1.06108 0.493074)
(1.20432 1.09595 0.714642)
(1.63689 1.13764 0.856821)
(1.56103 1.11082 0.772428)
(1.48317 1.10322 0.723848)
(1.43015 1.12234 0.696489)
(1.37844 1.11957 0.705863)
(1.31689 1.15584 0.720626)
(1.24443 1.16704 0.654305)
(1.65388 1.13891 0.922077)
(1.59823 1.12162 0.808729)
(1.51689 1.10201 0.749175)
(1.45374 1.1135 0.708138)
(1.40667 1.12077 0.700009)
(1.34952 1.13481 0.720171)
(1.27769 1.16271 0.696833)
(1.19845 1.16352 0.636441)
(1.21822 1.61885 1.19305)
(0.892518 1.57858 1.21357)
(0.853391 1.6726 1.27937)
(1.02436 1.6353 1.36161)
(1.04021 1.44307 1.4373)
(1.05388 1.29062 1.46235)
(1.38335 1.21308 1.31806)
(1.21976 1.70979 1.03105)
(0.951918 1.71761 1.21767)
(0.906059 1.52201 1.23693)
(0.886782 1.68015 1.30362)
(1.04555 1.54021 1.41101)
(1.05212 1.37036 1.50385)
(1.3005 1.12543 1.42641)
(1.35135 1.28544 1.28991)
(1.11245 1.74382 0.84318)
(0.931069 1.6973 0.797273)
(0.978865 1.61386 0.754097)
(1.04095 1.61837 0.5929)
(0.978405 1.48004 0.531079)
(1.05603 1.28179 0.474335)
(1.13359 1.226 0.607762)
(1.16372 1.78912 0.880632)
(1.05023 1.70523 0.788343)
(0.953244 1.64703 0.782233)
(0.992052 1.60026 0.773055)
(1.03782 1.52389 0.537518)
(1.03741 1.40418 0.474493)
(1.18374 1.26923 0.566114)
(1.20814 1.12246 0.690737)
(0.644478 1.25196 0.861074)
(1.0188 1.6713 0.955842)
(0.986102 1.65332 1.0646)
(1.19599 1.57845 0.884995)
(1.15102 1.47802 1.06005)
(1.12961 1.64539 1.0151)
(1.12906 1.26013 0.984078)
(0.668077 1.40123 0.916417)
(0.826321 1.52478 0.929687)
(0.954062 1.6313 1.01003)
(1.10388 1.23736 0.878973)
(1.19542 1.46855 1.23327)
(1.16787 1.3882 1.04217)
(1.13163 1.26872 0.953552)
(1.1312 1.26919 1.0122)
(1.26778 1.49625 1.06094)
(1.41328 1.46188 1.06214)
(1.40028 1.48395 1.06959)
(1.52274 1.4304 1.12616)
(1.6062 1.41914 1.03501)
(1.65504 1.39883 1.00115)
(1.68956 1.2935 0.994876)
(1.31218 1.45215 1.0324)
(1.2494 1.38544 1.17645)
(1.43733 1.46058 1.03627)
(1.43631 1.48867 1.08739)
(1.58543 1.41732 1.06929)
(1.63763 1.40949 1.00939)
(1.68129 1.33588 0.994567)
(1.68665 1.22225 0.995253)
(1.32659 1.26623 0.81172)
(1.268 1.10171 0.758908)
(1.16955 1.483 0.718482)
(1.2942 1.2606 1.30343)
(1.25948 1.30887 1.22668)
(1.3048 1.18699 1.3245)
(0.618995 1.1909 0.849976)
(0.920452 1.11083 0.849097)
(0.666716 1.18104 0.693887)
(1.53057 1.10479 0.993975)
(1.50275 1.12627 0.997352)
(1.579 1.08879 0.993296)
(1.26601 1.50575 1.26641)
(1.37804 1.62192 1.15871)
(1.31049 1.50479 1.35963)
(1.62543 1.36019 1.25582)
(1.20945 1.68208 1.19785)
(1.38315 1.16899 1.25974)
(1.65152 1.25155 1.21931)
(1.57043 1.32665 1.31954)
(1.17136 1.60833 1.28787)
(1.51476 1.67931 1.23841)
(1.54644 1.66416 1.1588)
(0.923172 1.5644 1.23964)
(1.52128 1.50783 1.26818)
(1.6665 1.3572 1.21278)
(1.36191 1.51089 1.08143)
(1.67215 1.3617 1.10637)
(1.42621 1.34616 1.29997)
(1.64615 1.4002 1.15329)
(1.07922 1.79447 1.20279)
(1.30771 1.16101 1.30844)
(0.944153 1.43736 1.07159)
(1.44332 1.46047 1.34996)
(1.51127 1.20776 1.31408)
(1.30391 1.65482 1.0658)
(0.956321 1.74507 1.23035)
(1.28404 1.41683 1.24903)
(1.46248 1.27884 1.29749)
(1.52679 1.38891 1.28941)
(1.1085 1.75026 1.0661)
(1.33425 1.17889 1.35236)
(1.68533 1.2635 1.09348)
(1.27305 1.46852 1.22307)
(1.05841 1.48047 1.16375)
(1.45306 1.36146 1.27365)
(1.4475 1.57855 1.24178)
(1.59267 1.41832 1.21075)
(1.27533 1.13853 1.29085)
(1.35674 1.11842 1.28817)
(1.34407 1.19673 1.34564)
(1.30864 1.17812 1.37071)
(1.26498 1.16118 1.31523)
(1.39268 1.14863 1.3158)
(1.40966 1.17582 1.31928)
(1.41408 1.2767 1.29722)
(1.42436 1.20744 1.30484)
(1.4341 1.23989 1.2978)
(1.43659 1.35521 1.29007)
(1.44456 1.21549 1.29036)
(1.46428 1.17148 1.28896)
(1.46929 1.33002 1.27345)
(1.49231 1.14701 1.28159)
(1.53399 1.13949 1.26192)
(1.473 1.23831 1.30637)
(1.60031 1.16474 1.23071)
(1.64729 1.19188 1.17775)
(1.57682 1.20916 1.28556)
(1.6703 1.19625 1.11977)
(1.68334 1.20299 1.04587)
(1.6702 1.25252 1.15731)
(1.68895 1.27887 1.04576)
(1.26299 1.61018 1.1542)
(1.21548 1.68075 1.13275)
(1.10245 1.76083 1.10759)
(1.23577 1.68492 1.08693)
(1.26613 1.68139 1.02264)
(1.24481 1.39492 1.24906)
(1.31975 1.64918 1.00789)
(1.24973 1.63509 1.25447)
(1.5599 1.59959 1.12257)
(1.46733 1.57795 1.2299)
(1.23774 1.38127 1.1726)
(1.60722 1.4102 1.14468)
(1.54261 1.42373 1.19313)
(1.57988 1.64086 1.21859)
(1.64739 1.39551 1.07262)
(1.62684 1.40808 1.09985)
(1.63379 1.39739 1.18267)
(1.68209 1.32248 1.05181)
(1.66477 1.37405 1.05272)
(1.66279 1.37982 1.12543)
(1.68168 1.30525 1.10179)
(1.18891 1.4564 1.26792)
(1.27769 1.62005 1.26203)
(1.33308 1.58792 1.16516)
(1.4261 1.64644 1.15205)
(1.39095 1.59267 1.12808)
(1.27631 1.64941 1.26603)
(1.34631 1.63564 1.14224)
(1.41075 1.56455 1.04984)
(1.52665 1.67367 1.15621)
(1.27543 1.43714 1.15439)
(1.40213 1.33494 1.27365)
(1.38278 1.37426 1.3023)
(1.32251 1.17236 1.27316)
(1.40901 1.3263 1.28956)
(1.45686 1.4842 1.28616)
(1.43791 1.43381 1.2688)
(1.18269 1.4448 1.15341)
(1.06734 1.44285 1.30266)
(1.28266 1.5456 1.21539)
(1.03053 1.45209 1.10597)
(1.43991 1.58389 1.18632)
(1.625 1.37518 1.2323)
(1.6499 1.36541 1.21099)
(1.60476 1.43762 1.26432)
(1.63166 1.52425 1.21936)
(1.56088 1.37788 1.29982)
(1.56951 1.39959 1.29982)
(1.60463 1.34128 1.2899)
(1.64818 1.34854 1.23697)
(1.62693 1.33165 1.2819)
(1.66375 1.37574 1.17941)
(1.57084 1.47778 1.28196)
(1.47835 1.52032 1.3492)
(1.15649 1.73428 1.23529)
(1.1727 1.75113 1.1626)
(1.19702 1.69484 1.26138)
(1.04785 1.76502 1.11828)
(1.06134 1.76605 1.1604)
(0.909076 1.69198 1.16161)
(1.13723 1.71844 1.11467)
(0.912822 1.60268 1.25032)
(0.894118 1.55649 1.26366)
(0.999646 1.76752 1.23872)
(0.890437 1.57088 1.1887)
(0.906906 1.68088 1.29021)
(0.897556 1.65406 1.1705)
(1.05286 1.56444 1.37053)
(1.03252 1.64303 1.2797)
(0.912127 1.68451 1.25158)
(1.00179 1.38635 1.3219)
(1.08447 1.3651 1.4462)
(1.02321 1.48348 1.21382)
(1.33476 1.15036 1.39027)
(1.36029 1.18266 1.31121)
(1.35999 1.2089 1.29738)
(1.32736 1.1688 1.3196)
(1.08032 1.35671 1.06183)
(1.12404 1.4422 1.22524)
(0.98871 1.64911 1.27566)
(1.30734 1.60766 1.02127)
(1.31486 1.60959 1.10485)
(1.1469 1.46769 1.11979)
(1.4802 1.63882 1.17904)
(1.67475 1.29729 1.16746)
(1.01934 1.4376 1.04944)
(1.02603 1.46094 1.09982)
(1.28032 1.52276 1.02255)
(1.26221 1.45164 1.13794)
(1.49275 1.61605 1.09118)
(1.66116 1.30274 1.22742)
(1.60958 1.2787 1.28804)
(1.53761 1.27357 1.32041)
(1.67458 1.34908 1.16637)
(1.54356 1.34176 1.3018)
(1.5312 1.46744 1.27275)
(1.50819 1.29995 1.29561)
(1.15003 1.64263 1.26991)
(1.42682 1.50003 1.37484)
(1.3575 1.57665 1.32409)
(1.47159 1.47045 1.32542)
(1.51188 1.50369 1.24796)
(1.49233 1.49636 1.22906)
(1.47797 1.41406 1.26473)
(1.50281 1.34621 1.26258)
(0.75556 1.55898 1.47837)
(0.68612 1.4469 1.40282)
(0.940879 1.18709 1.07626)
(0.547972 1.22844 1.27295)
(0.696321 1.53385 1.29043)
(0.881253 1.50952 1.47825)
(0.598061 1.07809 1.2942)
(0.857776 1.61169 1.1943)
(1.18827 1.21945 1.52429)
(0.977635 1.2404 1.09575)
(0.570567 1.27301 1.25834)
(0.873773 1.51707 1.27025)
(0.922073 1.61078 1.44205)
(0.954844 1.4437 1.4179)
(1.02304 1.47032 1.48111)
(0.843381 1.6712 1.22036)
(0.484527 1.04271 1.20184)
(1.06426 1.29569 1.45913)
(0.597054 1.13024 1.13335)
(0.796205 1.40548 1.13687)
(0.932005 1.4698 1.44379)
(0.836964 1.58565 1.25032)
(1.0217 1.43582 1.47929)
(0.800068 1.28377 1.24165)
(0.890643 1.3526 1.20124)
(0.870394 1.00275 1.29185)
(1.02145 1.19947 1.15456)
(0.659645 1.49199 1.42219)
(0.952947 1.44761 1.40505)
(0.780531 1.57012 1.42466)
(0.666981 1.38483 1.12019)
(0.712579 1.37203 1.15307)
(0.807513 1.17448 1.05898)
(1.30604 1.29198 1.41287)
(0.770582 1.52634 1.06009)
(1.2392 1.49878 1.20321)
(0.954285 1.307 1.13387)
(0.655993 1.20409 1.15773)
(0.643105 1.16398 1.05247)
(0.519617 1.12124 1.25663)
(0.639768 1.18718 1.23187)
(0.614745 1.0768 1.18985)
(0.478659 1.08161 1.22174)
(0.456272 1.05481 1.18896)
(0.631277 1.18258 1.23422)
(0.570635 0.975178 1.14461)
(0.596748 1.02803 1.2055)
(0.461458 1.05758 1.17237)
(1.08158 1.04471 1.53951)
(1.07523 1.35837 1.32358)
(1.1397 1.21712 1.53425)
(1.15375 1.0982 1.49193)
(1.00005 1.37137 1.45525)
(1.36361 1.31018 1.30153)
(1.33046 1.27948 1.28033)
(1.13369 1.31248 1.46366)
(0.760061 1.49644 1.2406)
(0.758445 1.4956 1.2876)
(0.687509 1.52291 1.25573)
(0.838212 1.54512 1.24627)
(0.743862 1.47133 1.28847)
(0.642281 1.41997 1.25215)
(0.676831 1.45293 1.27027)
(0.952576 1.65959 1.3932)
(0.910971 1.24636 1.29806)
(0.624171 1.41176 1.24802)
(0.892616 1.51702 1.30365)
(0.903016 1.19606 1.31252)
(0.540999 1.30171 1.20929)
(0.618991 1.14502 1.10481)
(0.596094 1.28771 1.09302)
(0.575441 1.32769 1.06794)
(0.925384 1.10486 1.26215)
(0.961907 1.00753 1.02813)
(0.714037 1.42637 1.10755)
(1.0551 1.63754 1.1865)
(0.871646 1.55598 1.26922)
(0.856441 1.59094 1.25487)
(0.972263 1.53741 1.33572)
(1.0206 1.67523 1.24875)
(0.798899 1.43998 1.40924)
(0.838001 1.59316 1.35795)
(1.24906 1.48788 1.22902)
(0.984333 1.49332 1.48118)
(1.03017 1.54993 1.43295)
(0.96421 1.47729 1.48544)
(0.903 1.48901 1.49747)
(0.848058 1.56342 1.48853)
(0.817816 1.51515 1.49857)
(0.613446 1.37143 1.24794)
(1.13018 1.20196 1.53784)
(0.976063 1.41711 1.41477)
(0.965659 1.44152 1.4415)
(1.01033 1.35858 1.48055)
(0.860726 1.55603 1.41804)
(0.844725 1.5639 1.42994)
(0.891348 1.53044 1.42386)
(0.878403 1.54825 1.412)
(0.828067 1.53603 1.40593)
(1.04214 1.53465 1.42313)
(1.00643 1.64438 1.3795)
(1.02958 1.47237 1.44938)
(1.02995 1.44803 1.45379)
(0.991425 1.48803 1.45955)
(0.951906 1.49331 1.46404)
(0.821893 1.66047 1.27897)
(0.819133 1.59276 1.1954)
(1.27865 1.17013 1.4022)
(1.05834 1.29122 1.45877)
(0.99925 1.3447 1.48665)
(1.0113 1.35556 1.50663)
(1.33082 1.21025 1.40772)
(1.27874 1.22825 1.4341)
(1.15118 1.27083 1.52333)
(1.02059 1.32194 1.46976)
(1.02698 1.40241 1.49595)
(0.818607 1.01665 1.31066)
(0.575463 1.25779 1.26516)
(1.05109 1.1425 1.17808)
(0.863071 1.03462 1.26706)
(0.723962 1.2844 1.32303)
(1.07407 1.1913 1.09427)
(1.00832 1.21744 1.04292)
(0.518681 1.1378 1.28885)
(0.88077 1.5714 1.19318)
(1.0764 1.74294 1.22456)
(1.21917 1.60593 1.22945)
(1.04346 1.30838 1.13776)
(0.90908 1.53707 1.29306)
(0.822713 1.56432 1.45723)
(0.743839 1.53275 1.47014)
(0.648981 1.4812 1.32807)
(1.05664 1.16849 1.16356)
(0.701746 1.52723 1.45981)
(0.861125 1.03113 1.1587)
(0.710981 1.51335 1.44142)
(0.684577 1.48951 1.01558)
(1.14305 1.60831 1.19211)
(1.20402 1.56858 1.17555)
(0.812475 1.5074 1.06024)
(0.751921 1.31721 1.32251)
(0.760472 1.31942 1.16189)
(0.922512 1.37261 1.32789)
(0.83999 1.31719 1.27996)
(1.0328 1.60984 1.10744)
(0.812258 1.45463 1.05628)
(0.975966 1.29737 1.10772)
(0.861934 1.36683 1.03906)
(0.838369 1.49844 1.02602)
(0.583094 1.29858 1.18222)
(0.940607 1.45564 1.3946)
(0.706086 1.09744 1.37269)
(0.597437 1.30564 1.22576)
(0.969379 1.37509 1.38534)
(0.901239 1.51594 1.41081)
(0.889991 1.52211 1.45621)
(0.580706 1.39112 1.23911)
(0.931673 1.23993 1.04995)
(0.928828 1.28997 1.0438)
(0.821325 1.37619 1.02845)
(0.951613 1.34077 1.20636)
(0.613655 1.4531 1.3491)
(0.628904 1.45547 1.22121)
(0.672588 1.43328 1.4267)
(0.742608 1.30327 1.33545)
(0.751358 1.32021 1.04837)
(0.804113 1.21524 1.30727)
(0.722486 1.24861 1.30909)
(0.69225 1.35535 1.17435)
(0.522208 1.26052 0.66657)
(0.897157 1.55455 0.740574)
(0.58671 1.1319 0.697495)
(0.482626 1.20531 0.694702)
(0.977042 1.42367 0.747707)
(0.761155 1.6175 0.671316)
(0.936106 1.66056 0.692455)
(0.841019 1.48097 0.621499)
(0.648381 1.22344 0.517962)
(0.847805 1.51093 0.775763)
(0.980745 1.32027 0.73619)
(0.93184 1.70659 0.649438)
(0.765236 1.63816 0.654324)
(0.587779 1.31894 0.736071)
(0.785067 1.24544 0.788042)
(0.886854 1.60367 0.791088)
(0.875102 1.55214 0.613923)
(0.500983 0.990889 0.874107)
(1.18132 1.18064 0.569671)
(0.986681 1.21052 0.963268)
(1.05841 1.12473 0.727902)
(0.827315 1.32595 0.834065)
(1.06567 1.18423 0.842387)
(1.05997 1.12526 0.965133)
(0.941263 1.62608 0.765006)
(0.605758 1.52958 0.67866)
(0.792704 1.23915 0.759338)
(1.04583 1.14566 0.9538)
(0.939814 1.4957 0.554412)
(0.809778 1.42897 0.901689)
(0.843216 1.39401 0.607094)
(1.05709 1.24762 0.888659)
(1.12481 1.69255 0.853227)
(0.635537 1.51596 0.584096)
(0.91963 1.55425 0.567365)
(1.18981 1.30289 0.597772)
(0.529834 1.38382 0.77781)
(0.542303 1.31059 0.71576)
(0.569476 1.13285 0.669479)
(0.567805 1.1238 0.689557)
(0.606175 1.1154 0.673831)
(0.604659 1.53044 0.637692)
(0.727802 1.59377 0.787168)
(0.472345 1.1119 0.698017)
(0.515032 1.36684 0.657106)
(0.616458 1.42299 0.539139)
(0.832108 1.50145 0.629733)
(0.841182 1.56462 0.638383)
(0.95824 1.40773 0.502343)
(0.817096 1.61273 0.64349)
(0.873088 1.52379 0.629723)
(0.96491 1.39315 0.515323)
(0.786167 1.55878 0.638167)
(0.915531 1.32833 0.733644)
(0.711745 1.60333 0.683756)
(0.755959 1.63364 0.68526)
(0.827376 1.59887 0.617241)
(0.774329 1.42441 0.624151)
(1.14852 1.24647 0.610142)
(1.20553 1.17984 0.668598)
(1.11047 1.31257 0.58109)
(0.875772 1.63542 0.772319)
(0.877738 1.6045 0.696422)
(0.941783 1.60437 0.666407)
(0.939306 1.60164 0.788164)
(0.926696 1.61492 0.809935)
(1.09637 1.46072 0.833625)
(1.05419 1.45372 0.832898)
(0.949109 1.63662 0.776991)
(0.943377 1.63365 0.811819)
(1.02024 1.66698 0.70185)
(0.954866 1.69569 0.719378)
(1.21392 1.61426 0.808972)
(1.09539 1.25676 0.524284)
(1.05755 1.12046 0.571356)
(0.904163 1.44564 0.576822)
(0.933695 1.43965 0.501623)
(1.11035 1.26581 0.511497)
(0.602152 1.43131 0.620764)
(0.610961 1.55204 0.761493)
(0.611622 1.07555 0.610868)
(0.77146 1.0817 0.959686)
(1.01191 1.19077 0.920228)
(1.10883 1.05486 0.51784)
(1.00038 1.25984 0.578481)
(1.14782 1.13577 0.58298)
(0.576926 1.35608 0.75919)
(0.719585 1.49466 0.799728)
(0.804241 1.49501 0.771978)
(0.63138 1.49121 0.818717)
(0.878717 1.58754 0.784223)
(0.862708 1.5162 0.672655)
(0.90214 1.5133 0.764236)
(0.822967 1.52516 0.782711)
(0.791774 1.47232 0.900448)
(0.638745 1.56355 0.724664)
(0.65647 1.52689 0.639593)
(0.722318 1.24915 0.841004)
(0.887001 1.28302 0.779354)
(0.827995 1.40787 0.611933)
(0.95707 1.3745 0.546599)
(0.911872 1.37611 0.581524)
(0.99347 1.28369 0.799001)
(0.861764 1.12715 0.611985)
(1.12422 1.13761 0.490677)
(1.00486 1.58253 0.75575)
(0.924636 1.61307 0.746544)
(0.976322 1.58168 0.732663)
(1.05767 1.60385 0.580712)
(0.989562 1.60371 0.733469)
(0.976611 1.59942 0.748686)
(1.00088 1.53149 0.540406)
(1.02272 1.52337 0.531069)
(0.984626 1.58043 0.563543)
(0.891459 1.66934 0.627584)
(0.924373 1.51703 0.5642)
(0.843161 1.63028 0.619112)
(0.776744 1.63757 0.757641)
(0.692837 1.60824 0.688192)
(0.904994 1.50789 0.59358)
(0.862144 1.56535 0.579764)
(0.8319 1.60046 0.600365)
(0.913111 1.47616 0.615001)
(0.942012 1.4672 0.577894)
(0.495163 1.14026 0.71157)
(0.507831 1.1758 0.730405)
(0.593149 1.17385 0.723745)
(0.492948 1.10961 0.615706)
(0.436606 1.12685 0.675947)
(0.980917 1.25342 0.973308)
(0.695662 1.14722 0.564379)
(0.983148 1.23968 0.967037)
(0.740789 1.08996 0.973583)
(0.940976 1.28261 0.763211)
(0.824149 1.24029 0.856134)
(0.613575 1.04969 0.624294)
(0.991259 1.1004 0.981171)
(0.543993 1.06926 0.622368)
(0.450492 1.0293 0.746587)
(1.10229 1.71536 0.857019)
(1.15047 1.77561 0.900273)
(0.621301 1.08352 0.819419)
(0.752676 1.18812 0.712502)
(0.703082 1.20139 0.670131)
(0.74439 1.19163 0.771794)
(1.09086 1.10416 0.694989)
(1.02097 1.4671 0.875465)
(1.03182 1.46885 0.879557)
(0.95903 1.10331 0.84895)
(0.879469 1.4445 0.898244)
(0.751965 1.33647 0.675402)
(0.938658 1.12355 0.77085)
(0.895491 1.49129 0.938803)
(0.89857 1.45606 0.839965)
(1.00284 1.24678 0.858472)
(0.994613 1.50934 0.965302)
(0.98286 1.58718 0.954856)
(0.767207 1.39767 0.788393)
(1.09594 1.57325 0.920852)
(0.87265 1.21858 0.951229)
(0.718754 1.16745 0.657518)
(0.95496 1.21826 0.968435)
(1.09228 1.10129 0.720422)
(1.08159 1.14637 0.816333)
(0.919967 1.27366 0.81191)
(1.42734 1.62615 0.780377)
(1.32824 1.68779 0.827529)
(1.63887 1.3792 0.762204)
(1.02959 1.42217 0.741437)
(1.19609 1.77754 0.797127)
(1.64274 1.25166 0.774643)
(1.32721 1.21217 0.699862)
(1.29218 1.31423 0.73131)
(1.34537 1.72968 0.849212)
(1.24579 1.58938 0.760556)
(0.93234 1.67394 0.842408)
(1.44353 1.53427 0.753728)
(1.4868 1.4333 0.708329)
(1.2546 1.30668 0.708882)
(1.4577 1.46274 0.627116)
(1.29892 1.20985 0.639527)
(1.54115 1.2535 0.679202)
(1.01045 1.41874 0.830415)
(1.20404 1.52617 0.944068)
(1.67925 1.35051 0.885748)
(1.62186 1.45822 0.898927)
(1.5472 1.38169 0.711717)
(1.3786 1.27177 0.687603)
(1.03027 1.70834 0.830456)
(1.27188 1.4471 0.890884)
(1.61185 1.45827 0.733084)
(1.41299 1.28902 0.691423)
(1.44489 1.31777 0.805355)
(1.21339 1.77597 0.903576)
(1.68204 1.24128 0.893144)
(1.21688 1.23319 0.610975)
(1.57356 1.54455 0.768345)
(1.5713 1.45078 0.919182)
(1.44692 1.28506 0.672188)
(0.964621 1.66109 0.788177)
(1.20223 1.56194 0.801871)
(1.68824 1.26135 0.94293)
(1.67859 1.19416 0.945562)
(1.66448 1.18729 0.871154)
(1.40356 1.66071 0.83259)
(1.33397 1.68937 0.806078)
(1.39703 1.61532 0.830492)
(1.37704 1.56525 0.913809)
(1.35264 1.59561 0.747451)
(1.44873 1.60203 0.78268)
(1.45819 1.62 0.854348)
(1.36758 1.50527 0.638272)
(1.46314 1.58628 0.690048)
(1.50118 1.60634 0.752971)
(1.53689 1.56358 0.768259)
(1.54633 1.55717 0.703433)
(1.24089 1.45626 0.924886)
(1.30768 1.46834 0.863319)
(1.25267 1.73857 0.953039)
(1.08851 1.49048 0.99856)
(1.33821 1.67967 1.00063)
(1.3412 1.46828 0.832411)
(1.42382 1.48807 0.758626)
(1.23151 1.52447 0.943802)
(1.43681 1.50581 0.744311)
(1.52633 1.50245 0.786174)
(1.4259 1.50444 0.816301)
(1.59394 1.42357 0.982255)
(1.56149 1.42366 0.962054)
(1.55745 1.51299 0.822285)
(1.61681 1.43241 0.955072)
(1.65076 1.41079 0.936654)
(1.60327 1.45729 0.915287)
(1.6761 1.36451 0.941541)
(1.68681 1.30205 0.934167)
(1.66043 1.40069 0.88068)
(1.68201 1.2819 0.880859)
(1.16907 1.16914 0.628659)
(1.1744 1.21013 0.624353)
(1.24631 1.20028 0.620463)
(1.08515 1.70302 0.837032)
(1.13226 1.75357 0.824217)
(1.19109 1.78732 0.848532)
(1.15329 1.77551 0.842722)
(0.974432 1.71794 0.797779)
(1.09299 1.73644 0.790927)
(1.33273 1.72297 0.943067)
(1.25533 1.77168 0.89828)
(1.27412 1.76895 0.825801)
(1.22799 1.74183 0.762685)
(1.63703 1.313 0.758247)
(1.58937 1.31397 0.706832)
(1.59334 1.24259 0.717351)
(1.55562 1.16456 0.72404)
(1.60142 1.16922 0.762731)
(1.66702 1.29428 0.820832)
(1.66483 1.24066 0.829121)
(1.66166 1.35906 0.817305)
(1.64359 1.18769 0.814356)
(0.972366 1.66215 0.821317)
(0.987164 1.60347 0.788981)
(0.963354 1.64298 0.761147)
(0.964181 1.69293 0.824934)
(1.14032 1.52152 0.574921)
(1.12071 1.63008 0.642618)
(0.975374 1.65466 0.746994)
(1.06706 1.39427 0.658843)
(1.123 1.48771 0.588822)
(1.10479 1.57154 0.624422)
(1.20965 1.26156 0.603663)
(1.28293 1.2179 0.591821)
(1.31707 1.26242 0.690244)
(1.25519 1.22136 0.622749)
(1.42098 1.35293 0.765202)
(1.33768 1.52819 0.71175)
(1.20322 1.53918 0.735248)
(1.05951 1.41706 0.73441)
(1.29041 1.33815 0.710438)
(1.32614 1.47012 0.695689)
(0.977031 1.41588 0.962226)
(1.07393 1.5453 0.613838)
(1.18045 1.42487 0.965367)
(1.17742 1.49432 0.880025)
(1.27351 1.55272 0.827592)
(1.35512 1.52195 0.671907)
(1.02086 1.65215 0.662409)
(1.20357 1.62677 0.795893)
(1.22421 1.38618 0.969317)
(1.02705 1.6845 0.808179)
(1.32895 1.24119 0.741083)
(1.33349 1.26021 0.756828)
(1.36488 1.22866 0.697442)
(1.29624 1.28313 0.767913)
(1.2897 1.23672 0.697848)
(1.29588 1.21438 0.688452)
(1.29431 1.18761 0.655223)
(1.33332 1.17675 0.699714)
(1.36586 1.1649 0.69041)
(1.29595 1.17868 0.669731)
(1.35283 1.31386 0.786415)
(1.49292 1.37963 0.784099)
(1.37396 1.29267 0.785817)
(1.39976 1.66454 0.935126)
(1.4857 1.43846 0.676525)
(0.977199 1.68075 0.810736)
(1.58889 1.50239 0.850827)
(1.53485 1.4178 0.687376)
(1.54078 1.41517 0.739992)
(1.52747 1.37831 0.771159)
(1.56485 1.40618 0.686551)
(1.54837 1.47632 0.664202)
(1.60013 1.50229 0.749312)
(1.50669 1.34588 0.72356)
(1.48285 1.26044 0.663831)
(1.53295 1.33223 0.69381)
(1.47174 1.18155 0.685)
(1.50944 1.16513 0.700886)
(1.57792 1.36722 0.700545)
(1.46201 1.31618 0.760928)
(1.43158 1.29335 0.689009)
(1.42464 1.29783 0.776328)
(1.44386 1.21027 0.675348)
(1.42734 1.20377 0.678655)
(1.64481 1.42239 0.825826)
(1.62832 1.4532 0.816342)
(1.61233 1.47675 0.839725)
(1.62542 1.40711 0.746875)
(1.39568 1.28839 0.696549)
(1.3894 1.18239 0.682586)
(1.40845 1.19211 0.682375)
(0.983519 1.50048 1.33688)
(0.917005 0.946424 1.06859)
(0.991261 1.05914 1.3322)
(1.07766 1.29437 1.23614)
(1.14456 1.23388 1.33697)
(0.901814 1.10215 1.11976)
(0.829271 1.07958 1.32034)
(0.813213 1.01053 1.31892)
(0.825028 1.08761 1.15891)
(1.15839 1.34472 1.24986)
(1.01796 1.05842 1.41796)
(0.88675 1.15874 1.20337)
(1.35737 1.22161 1.14083)
(1.03403 1.09006 1.4175)
(1.15276 1.21628 1.05392)
(1.13667 1.24594 0.899676)
(1.1306 1.22154 0.979568)
(1.22277 1.2241 1.04456)
(1.42072 1.376 1.12756)
(1.19075 1.13144 1.16087)
(0.539047 1.33194 1.30172)
(0.680878 1.19519 1.3691)
(0.57505 1.20887 1.40993)
(1.11814 1.08875 1.27372)
(0.660721 1.08475 1.36867)
(1.00575 1.04186 1.34382)
(1.02756 1.01757 1.37198)
(1.06028 1.09463 1.38008)
(1.03348 1.12209 1.41605)
(0.57337 1.30774 1.36463)
(0.519168 1.18954 1.38207)
(0.875914 1.14734 1.08659)
(1.04931 0.999977 1.11389)
(0.853332 0.981725 1.26296)
(0.954569 1.09951 1.31963)
(0.981067 1.23906 1.24472)
(0.948033 1.19532 1.27734)
(1.0983 1.07094 1.24446)
(0.991658 1.1808 1.13749)
(1.20284 1.13315 1.21934)
(1.31079 1.26939 1.34625)
(1.26905 1.19343 1.11817)
(1.12349 1.21937 1.05096)
(0.895078 1.08528 1.24419)
(1.09361 1.26899 1.15561)
(0.936086 1.18347 1.35862)
(1.1793 1.35063 1.22559)
(1.09575 1.25543 1.27198)
(0.943348 1.03248 1.34452)
(1.25828 1.30256 1.27533)
(1.2988 1.33226 1.33827)
(0.882268 1.06874 1.14118)
(0.820338 1.14279 1.33614)
(0.863338 0.991196 1.29148)
(0.877213 1.01453 1.15072)
(1.04693 1.07137 1.23427)
(1.04111 1.07455 1.24004)
(1.01357 1.08163 1.25023)
(0.967421 1.07042 1.30479)
(0.946737 1.41746 1.12186)
(1.00015 1.14209 1.27875)
(0.972416 1.37063 1.15985)
(0.892475 1.10461 1.32852)
(0.931405 1.44681 1.10297)
(1.16483 1.34203 1.33072)
(1.129 1.25082 1.32194)
(0.940067 1.36773 1.11879)
(0.940588 1.47655 1.10396)
(0.963812 1.00694 1.32534)
(1.04278 0.997301 1.1405)
(1.00448 1.23161 1.20359)
(0.936417 1.12956 1.10671)
(1.33945 1.36345 1.00348)
(1.43689 1.45024 1.18349)
(1.48905 1.39989 1.19214)
(1.56392 1.5593 1.11961)
(1.52027 1.50191 1.13752)
(1.33281 1.39614 1.04258)
(1.43573 1.39411 1.21954)
(1.49053 1.37868 1.2089)
(1.38855 1.38128 1.14627)
(1.4959 1.18918 1.05271)
(1.55234 1.51558 1.14916)
(1.35371 1.38995 1.04066)
(1.40262 1.48841 1.3436)
(1.22154 1.27771 0.992215)
(1.29962 1.42932 1.12954)
(1.53869 1.35213 1.15352)
(1.51153 1.35401 1.16547)
(1.47331 1.36952 1.20296)
(1.5871 1.54688 1.17291)
(1.5586 1.46601 1.16179)
(1.45297 1.4441 1.21184)
(1.48489 1.54238 1.12234)
(1.45156 1.41899 1.22481)
(1.44228 1.45393 1.18782)
(1.47283 1.5069 1.16806)
(1.44306 1.44787 1.23314)
(1.5493 1.47411 1.15443)
(1.19709 1.26274 1.00666)
(1.20669 1.2838 1.01722)
(1.41575 1.40346 0.962568)
(1.35269 1.24351 0.955433)
(1.28362 1.25507 0.969606)
(1.45493 1.39927 1.17709)
(1.482 1.19805 1.0706)
(1.51001 1.32319 1.06142)
(1.48387 1.18076 1.0713)
(1.49344 1.16098 1.03464)
(1.33226 1.42865 1.06205)
(1.2784 1.46558 1.02909)
(1.23391 1.47764 1.30422)
(1.37941 1.4626 1.2961)
(1.54048 1.5466 1.17212)
(1.31394 1.42727 1.08572)
(1.29342 1.37396 1.12865)
(1.35204 1.4353 1.14091)
(1.30234 1.21935 1.15375)
(1.37049 1.41675 1.16362)
(1.30856 1.39199 1.17679)
(1.35768 1.44901 1.12379)
(1.39808 1.3994 1.04771)
(1.40794 1.23336 1.09425)
(1.39252 1.42065 1.11173)
(1.33822 1.48406 1.3576)
(1.51901 1.53797 1.16494)
(1.5035 1.54496 1.18597)
(1.26826 1.284 0.983968)
(1.44421 1.31907 1.06834)
(1.27243 1.44417 1.0198)
(1.23914 1.35104 1.1286)
(1.31111 1.44164 1.0101)
(1.40986 1.47241 1.34825)
(1.38114 1.36716 1.06895)
(1.43314 1.4664 1.29231)
(1.49578 1.17885 1.02596)
(1.51822 1.3829 1.12284)
(1.51796 1.38861 1.13181)
(1.38971 1.49571 1.28105)
(1.55599 1.54116 1.10846)
(1.55662 1.36158 1.1474)
(1.51812 1.38144 1.19811)
(1.55267 1.57415 1.21523)
(1.51313 1.39014 1.18201)
(1.26812 1.37369 0.832442)
(1.52854 1.40222 1.03214)
(1.36583 1.46814 0.745491)
(1.36232 1.36912 0.970571)
(1.49425 1.43523 0.79671)
(1.5573 1.38746 1.06328)
(1.22066 1.20189 0.821472)
(1.55007 1.39413 0.900899)
(1.19845 1.19781 0.823773)
(1.21155 1.46717 0.91833)
(1.50942 1.23745 0.968463)
(1.20353 1.37584 0.752377)
(1.5823 1.33926 1.03601)
(1.20836 1.26808 0.938628)
(1.40325 1.301 0.915239)
(0.996023 1.3652 0.96579)
(1.13857 1.2481 0.968458)
(1.22453 1.18261 0.87634)
(1.32962 1.24897 0.937015)
(1.23017 1.2093 0.830761)
(1.0076 1.40682 0.693312)
(1.09197 1.35149 0.960506)
(1.12951 1.21651 0.680013)
(1.17244 1.19366 0.754023)
(1.24947 1.39014 0.875006)
(1.22401 1.36758 0.804679)
(1.34302 1.41791 0.940151)
(1.55411 1.38107 0.892712)
(1.28714 1.53614 0.792192)
(1.26685 1.53851 0.785654)
(1.32731 1.50043 0.817557)
(1.18155 1.16639 0.754449)
(1.27526 1.34672 0.8258)
(1.12777 1.40675 0.933933)
(1.25932 1.30823 0.989102)
(1.21609 1.33718 0.900122)
(1.32927 1.34338 0.919459)
(1.46744 1.43893 0.75392)
(1.30384 1.31548 0.985762)
(1.19339 1.38823 0.753512)
(1.26096 1.36801 0.860199)
(1.30958 1.41368 0.96867)
(1.38797 1.43532 0.78593)
(1.37455 1.43306 0.754461)
(1.564 1.38893 1.00555)
(1.13635 1.52288 0.93537)
(1.57654 1.35565 0.982341)
(1.37372 1.43986 0.824852)
(1.4697 1.45879 0.910092)
(1.47273 1.29109 0.925552)
(1.45774 1.46148 0.859976)
(1.18745 1.50086 0.916145)
(1.2327 1.40048 1.00326)
(1.52312 1.41333 1.11731)
(1.53296 1.39095 1.03948)
(1.47881 1.18176 0.940865)
(1.46746 1.1945 0.92757)
(1.31605 1.44618 0.76866)
(1.57343 1.35457 1.07453)
(1.57352 1.38342 1.07098)
(1.55841 1.39635 0.919063)
(1.46255 1.46447 0.759915)
(1.50006 1.19119 0.974975)
(1.53364 1.38848 1.1321)
(1.54907 1.38572 1.11818)
(1.57385 1.36276 1.04828)
(1.48605 1.16334 0.960588)
(1.58428 1.35148 0.980563)
(1.06089 1.26047 0.659952)
(0.659473 1.3404 0.639898)
(0.939315 1.34047 0.825771)
(0.770319 1.43871 0.682514)
(1.04639 1.31153 0.757379)
(1.21922 1.20484 0.781534)
(0.503009 0.974604 0.741875)
(0.94923 1.13434 0.751299)
(0.743552 1.32448 0.882869)
(0.983605 1.18802 0.802212)
(1.17507 1.30875 0.633326)
(0.913419 1.10465 0.748744)