/*--------------------------------*- C++ -*----------------------------------*\
| =========                 |                                                 |
| \\      /  F ield         | OpenFOAM: The Open Source CFD Toolbox           |
|  \\    /   O peration     | Version:  v1806                                 |
|   \\  /    A nd           | Web:      www.OpenFOAM.com                      |
|    \\/     M anipulation  |                                                 |
\*---------------------------------------------------------------------------*/
FoamFile
{
    version     2.0;
    format      ascii;
    class       volVectorField;
    location    "0.1085";
    object      U_0;
}
// * * * * * * * * * * * * * * * * * * * * * * * * * * * * * * * * * * * * * //

dimensions      [0 1 -1 0 0 0 0];


internalField   nonuniform List<vector> 
64000
(
(-0.0111943 -0.0136887 -0.0095418)
(0.0174298 -0.0131996 -0.0070323)
(0.0245729 -0.00459447 4.45057e-05)
(0.0296973 -0.00365607 0.00110106)
(0.031199 -0.00254118 0.00145816)
(0.0320094 -0.00306243 0.00182813)
(0.032205 -0.00396868 0.00185558)
(0.03004 -0.00463464 0.00232889)
(0.0295416 -0.00566392 0.00322692)
(0.0241631 -0.00545782 0.00422432)
(0.0181393 -0.00690454 0.00298802)
(0.0086106 -0.006757 0.00852248)
(-0.00426702 -0.0122401 0.00571753)
(-0.0286672 -0.0173327 0.00399688)
(-0.053924 -0.0181345 0.00409363)
(-0.089768 -0.0187508 0.00248782)
(-0.113113 -0.000984265 0.000790537)
(-0.158318 -0.00472265 -0.00350481)
(-0.151834 -0.00889616 0.0036477)
(-0.216668 -0.0269492 -0.0141057)
(-0.183946 -0.0184326 -0.0177141)
(-0.0890183 -0.0215626 -0.0373224)
(-0.107491 -0.00453983 -0.0226145)
(-0.105847 -0.00153036 -0.0369033)
(-0.128524 0.00467457 -0.0476088)
(-0.122277 0.0125972 -0.057741)
(-0.111442 0.0229319 -0.0620156)
(-0.0742112 0.0331639 -0.0591036)
(-0.0398565 0.0407074 -0.0544798)
(0.00412006 0.0511155 -0.041677)
(0.047928 0.0500626 -0.0323744)
(0.0857547 0.0395073 -0.0258739)
(0.101607 0.0295178 -0.0130141)
(0.0992085 0.015524 -0.00576872)
(0.0854706 0.00675194 0.000615355)
(0.0676523 -0.00124734 0.0031525)
(0.0492779 -0.00544081 0.00387862)
(0.0295963 -0.00515708 0.00463476)
(0.0157526 -0.00380447 0.00489736)
(0.00224888 -0.00247504 0.00313281)
(-0.00805488 0.00281239 -0.00589494)
(0.00945185 -0.0176186 -0.00556626)
(0.0259097 -0.0113912 -0.00247626)
(0.0374162 -0.00771066 -0.00105981)
(0.0436602 -0.00300838 -0.00164416)
(0.0445098 -0.00107906 -0.00185791)
(0.0438693 0.00247398 -0.00376726)
(0.0376807 0.00419884 -0.00296567)
(0.0314672 0.0078557 -0.00833083)
(0.0146014 0.015276 -0.0036413)
(-0.00647525 0.0229768 -0.0079924)
(-0.0410739 0.0326352 0.000592179)
(-0.0859931 0.0411454 -0.00393084)
(-0.137737 0.0602017 -0.00659966)
(-0.194431 0.0744175 -0.0117728)
(-0.250684 0.0837457 -0.0173423)
(-0.321731 0.0921617 -0.0445866)
(-0.426901 0.0937914 -0.0598124)
(-0.469131 0.100783 -0.0778098)
(-0.559086 0.10095 -0.096655)
(-0.504646 0.130578 -0.0897382)
(-0.38044 0.146464 -0.124799)
(-0.381328 0.193923 -0.131837)
(-0.366922 0.215359 -0.143999)
(-0.362796 0.239622 -0.156039)
(-0.323586 0.260626 -0.162707)
(-0.277407 0.281631 -0.164113)
(-0.20438 0.296478 -0.152521)
(-0.130774 0.302816 -0.133084)
(-0.0567875 0.305658 -0.109683)
(0.00569737 0.291535 -0.0770195)
(0.0690088 0.260352 -0.0463631)
(0.106799 0.213053 -0.0390782)
(0.119423 0.160599 -0.0261019)
(0.11465 0.110435 -0.012874)
(0.0964443 0.0706599 -0.0054019)
(0.0773574 0.0423031 -0.00113084)
(0.0532596 0.0272613 -0.000169942)
(0.0318124 0.0174429 0.00110525)
(0.00772194 0.00915091 0.00103639)
(-0.000299341 -0.00451869 0.00139548)
(0.016314 -0.0232755 -0.00235495)
(0.0338451 -0.0182481 -0.00328086)
(0.0454765 -0.00595714 -0.00440088)
(0.0485321 0.00300956 -0.00612931)
(0.0467289 0.0136182 -0.00768441)
(0.0404079 0.0282495 -0.00862505)
(0.025776 0.0418172 -0.0106701)
(0.0121304 0.0657747 -0.00184399)
(-0.0160001 0.0873632 -0.00449085)
(-0.0536262 0.11476 -0.00813187)
(-0.104648 0.145318 -0.0127898)
(-0.15704 0.180725 -0.0174606)
(-0.232778 0.209943 -0.0321324)
(-0.324572 0.230857 -0.0368919)
(-0.421164 0.246031 -0.0434215)
(-0.501051 0.250686 -0.0607455)
(-0.588391 0.268787 -0.080032)
(-0.625098 0.300998 -0.0982106)
(-0.700482 0.337589 -0.116116)
(-0.630369 0.374903 -0.100754)
(-0.479022 0.409915 -0.124486)
(-0.457899 0.466202 -0.122535)
(-0.432075 0.49547 -0.122881)
(-0.41902 0.527304 -0.126574)
(-0.375281 0.548089 -0.125513)
(-0.328654 0.562564 -0.12075)
(-0.261763 0.564809 -0.105033)
(-0.19752 0.554617 -0.0825302)
(-0.130897 0.533504 -0.0593599)
(-0.076655 0.500822 -0.039688)
(-0.0311731 0.452681 -0.0279439)
(0.00140094 0.380254 -0.0177088)
(0.0242159 0.307014 -0.00900249)
(0.0383689 0.227883 -0.0106158)
(0.0450775 0.163363 -0.0110266)
(0.0460756 0.11664 -0.00735485)
(0.0373808 0.0801 -0.00523773)
(0.0266707 0.0541232 -0.00174036)
(0.00773759 0.0284118 0.000889271)
(0.00135461 -0.00946781 0.00205083)
(0.0187413 -0.0252953 -0.00153452)
(0.0402199 -0.0127403 -0.00411295)
(0.0481398 0.00402533 -0.00755758)
(0.0459858 0.0277815 -0.00808567)
(0.0428957 0.0515325 -0.009255)
(0.0306609 0.0863825 -0.00940018)
(0.0131942 0.118365 -0.00546334)
(-0.0117481 0.164358 -0.0105338)
(-0.0562541 0.203375 -0.0128261)
(-0.101927 0.247648 -0.0174214)
(-0.162868 0.285762 -0.0240962)
(-0.242144 0.315443 -0.0287298)
(-0.33293 0.331803 -0.0298561)
(-0.415611 0.354253 -0.0331434)
(-0.494004 0.377693 -0.0376713)
(-0.55893 0.409504 -0.053843)
(-0.633187 0.438668 -0.0642826)
(-0.656178 0.483998 -0.0748563)
(-0.720073 0.532044 -0.0789424)
(-0.637273 0.56289 -0.0416087)
(-0.464567 0.590264 -0.0460027)
(-0.430978 0.629862 -0.0372627)
(-0.404607 0.634934 -0.0293424)
(-0.392444 0.647899 -0.0280122)
(-0.357491 0.64733 -0.0235064)
(-0.322618 0.63982 -0.0200375)
(-0.272309 0.61994 -0.0119578)
(-0.225693 0.593532 0.000104949)
(-0.179689 0.559399 0.00735803)
(-0.149727 0.517241 0.0120024)
(-0.123313 0.471173 0.0106795)
(-0.0993667 0.410431 0.00459113)
(-0.0762885 0.348622 -0.00324139)
(-0.052066 0.269579 -0.00659799)
(-0.0212831 0.202694 -0.0109863)
(-0.000143247 0.148791 -0.0112101)
(0.00838231 0.113048 -0.00841595)
(0.0163523 0.0802228 -0.00389548)
(0.00612012 0.0412167 0.000641487)
(0.00111003 -0.0103947 0.000336108)
(0.0241657 -0.0149994 -0.00397509)
(0.0473341 0.00200498 -0.00810028)
(0.0566249 0.0350081 -0.00893072)
(0.0543423 0.0724133 -0.00885619)
(0.0484445 0.117807 -0.0155187)
(0.0309589 0.173207 -0.0136368)
(0.00436036 0.230879 -0.0061697)
(-0.0265544 0.287419 -0.00835224)
(-0.0784576 0.334584 -0.0107679)
(-0.136214 0.373123 -0.0139709)
(-0.212235 0.395595 -0.0165102)
(-0.285426 0.417017 -0.0169883)
(-0.356582 0.442127 -0.0209161)
(-0.424161 0.472988 -0.0223229)
(-0.493051 0.506237 -0.023364)
(-0.545801 0.536552 -0.028393)
(-0.602005 0.56901 -0.0269409)
(-0.604666 0.624676 -0.0209517)
(-0.654249 0.67398 -0.0279685)
(-0.572142 0.69944 0.0103419)
(-0.393028 0.709689 0.0173057)
(-0.356642 0.719321 0.0317347)
(-0.339498 0.689471 0.036692)
(-0.339908 0.673169 0.0361483)
(-0.324094 0.64589 0.0418385)
(-0.308901 0.614174 0.0427673)
(-0.27732 0.576337 0.0465206)
(-0.251456 0.534516 0.0395932)
(-0.225247 0.493406 0.0308489)
(-0.206495 0.447472 0.0205903)
(-0.195728 0.413355 0.0136132)
(-0.186172 0.37432 0.00642585)
(-0.176885 0.342886 -0.00569441)
(-0.153073 0.279755 -0.0146809)
(-0.103193 0.210685 -0.0153187)
(-0.0515665 0.163135 -0.0143074)
(-0.0166222 0.133242 -0.0122035)
(0.00278562 0.0993941 -0.00663754)
(0.00320283 0.0517247 0.00069962)
(0.00553193 -0.00436494 -0.000287832)
(0.0289145 0.00106526 -0.00645448)
(0.0606316 0.0279236 -0.00695043)
(0.0725795 0.0781231 -0.00988404)
(0.067657 0.135514 -0.0148487)
(0.0655034 0.198784 -0.0191293)
(0.0480449 0.273226 -0.0149891)
(0.0151242 0.326577 -0.00623315)
(-0.0335391 0.371765 -0.0072241)
(-0.101462 0.406911 -0.00956357)
(-0.168408 0.437717 -0.0116134)
(-0.231836 0.466125 -0.0114689)
(-0.288282 0.500411 -0.00985218)
(-0.345559 0.53082 -0.00647182)
(-0.39276 0.559993 -0.00105563)
(-0.444809 0.589007 0.00468967)
(-0.477421 0.619665 0.0085953)
(-0.506555 0.650962 0.00953459)
(-0.500543 0.70068 0.00736404)
(-0.540588 0.741026 0.00918022)
(-0.461381 0.759615 0.0449858)
(-0.301323 0.719542 0.055098)
(-0.283405 0.69944 0.068565)
(-0.287776 0.637904 0.0770929)
(-0.302234 0.599296 0.0777142)
(-0.305669 0.555747 0.0762121)
(-0.306257 0.513846 0.0732569)
(-0.29479 0.470626 0.0661109)
(-0.281958 0.423355 0.0638531)
(-0.269668 0.383565 0.0419326)
(-0.260507 0.339235 0.0298972)
(-0.24896 0.30803 0.0137358)
(-0.234638 0.280757 0.00389741)
(-0.239186 0.268964 -0.00762947)
(-0.240428 0.244339 -0.0185985)
(-0.17489 0.195436 -0.0155025)
(-0.092164 0.164213 -0.0160225)
(-0.0400925 0.138805 -0.0126141)
(-0.004866 0.107321 -0.00747628)
(0.0023137 0.0556699 0.00124884)
(0.00565729 0.00212596 -0.00147296)
(0.037949 0.0158037 -0.00988292)
(0.0808576 0.0560951 -0.0107908)
(0.105059 0.110675 -0.0128736)
(0.101816 0.176993 -0.0182638)
(0.098695 0.248996 -0.0218845)
(0.0602749 0.31471 -0.0163361)
(-0.00132991 0.343152 -0.00058313)
(-0.0488683 0.387371 -0.00606073)
(-0.103774 0.425495 -0.00650961)
(-0.149816 0.469976 -0.00636229)
(-0.198629 0.513807 -0.00418508)
(-0.243095 0.554723 -0.000247846)
(-0.288832 0.588406 0.00424798)
(-0.326622 0.621962 0.0130556)
(-0.36162 0.647228 0.0179269)
(-0.380967 0.676004 0.0250774)
(-0.401536 0.690431 0.0280844)
(-0.38077 0.711555 0.0286245)
(-0.405967 0.725747 0.0166374)
(-0.38639 0.743836 0.0417423)
(-0.255837 0.634999 0.0579337)
(-0.230756 0.596536 0.0663087)
(-0.252529 0.530216 0.0754193)
(-0.278108 0.491753 0.0741878)
(-0.299143 0.452844 0.0724277)
(-0.316031 0.418887 0.067912)
(-0.32166 0.383535 0.0596224)
(-0.321763 0.346253 0.0455838)
(-0.322002 0.311147 0.0287045)
(-0.318923 0.277537 0.0148988)
(-0.310627 0.248766 0.00115763)
(-0.294861 0.227189 -0.00597856)
(-0.287022 0.211667 -0.0136913)
(-0.289115 0.221519 -0.0213331)
(-0.226839 0.196398 -0.0219739)
(-0.126951 0.170782 -0.0225884)
(-0.055368 0.150184 -0.017575)
(-0.0100658 0.117315 -0.0112882)
(0.0022877 0.0613691 -0.000447354)
(0.00660903 0.00895765 -0.00424138)
(0.0454439 0.0352417 -0.013789)
(0.099355 0.0837128 -0.0141357)
(0.125764 0.139963 -0.0122772)
(0.129048 0.199367 -0.013406)
(0.116753 0.270462 -0.0161874)
(0.0565783 0.302843 -0.00587388)
(0.00964814 0.350607 0.00232444)
(-0.0175188 0.395948 -0.0022212)
(-0.0662309 0.451368 -0.000283998)
(-0.105379 0.496202 0.000544311)
(-0.146103 0.53533 0.00684643)
(-0.181981 0.568097 0.0126233)
(-0.213304 0.595212 0.0213967)
(-0.237501 0.621222 0.0258275)
(-0.265652 0.635897 0.0306691)
(-0.28112 0.648695 0.0340304)
(-0.299651 0.64517 0.0332189)
(-0.29175 0.645276 0.0307609)
(-0.305616 0.613297 0.0144192)
(-0.337958 0.627541 0.0204122)
(-0.2539 0.525316 0.0401414)
(-0.207928 0.46919 0.0435429)
(-0.238875 0.42347 0.0544447)
(-0.271465 0.393079 0.0564729)
(-0.30485 0.367203 0.0569555)
(-0.331922 0.342946 0.057132)
(-0.349834 0.31617 0.0485809)
(-0.361636 0.288928 0.0376239)
(-0.368032 0.258237 0.0146198)
(-0.369388 0.226338 0.00425563)
(-0.359439 0.200796 -0.00516754)
(-0.343699 0.187569 -0.0127168)
(-0.32302 0.176623 -0.0157722)
(-0.328251 0.197072 -0.0252661)
(-0.277026 0.200422 -0.0218031)
(-0.161631 0.176659 -0.0232271)
(-0.0740116 0.159696 -0.0178333)
(-0.0151456 0.124614 -0.0109)
(0.00309355 0.0653983 0.000380759)
(0.00534962 0.0236476 -0.00715469)
(0.0540056 0.0677654 -0.0179831)
(0.119708 0.123299 -0.0197125)
(0.152309 0.179581 -0.0144683)
(0.160567 0.240054 -0.0153766)
(0.129754 0.291693 -0.0159796)
(0.0782631 0.32648 -0.00671544)
(0.0397299 0.387274 0.00109368)
(0.015505 0.424354 0.00794623)
(-0.0154645 0.466928 0.00689429)
(-0.0536238 0.500146 0.0115686)
(-0.0850914 0.530208 0.016198)
(-0.110386 0.551275 0.0253039)
(-0.133191 0.564671 0.0315235)
(-0.155156 0.569169 0.0345157)
(-0.179352 0.563877 0.0350352)
(-0.198484 0.557118 0.0338773)
(-0.223046 0.537592 0.0290021)
(-0.241147 0.523961 0.022503)
(-0.253336 0.484169 0.00860101)
(-0.303957 0.483656 -0.00152052)
(-0.274288 0.433995 0.0153428)
(-0.214934 0.363186 0.0220873)
(-0.236473 0.344988 0.0313549)
(-0.273471 0.323995 0.0377131)
(-0.313008 0.308368 0.0415691)
(-0.349542 0.291837 0.0459775)
(-0.375562 0.26977 0.0404662)
(-0.397213 0.247085 0.0233644)
(-0.414043 0.213339 0.00597461)
(-0.415798 0.18759 -0.00340593)
(-0.402231 0.164162 -0.011502)
(-0.386102 0.150138 -0.0150126)
(-0.355533 0.149554 -0.0253983)
(-0.343914 0.161902 -0.0278446)
(-0.308015 0.196581 -0.0312089)
(-0.197912 0.180369 -0.026658)
(-0.0898481 0.170153 -0.0250917)
(-0.0204738 0.135456 -0.0139362)
(0.00402325 0.0726353 -0.00181551)
(0.00784003 0.0404405 -0.00993557)
(0.0632534 0.105619 -0.0260036)
(0.138441 0.165477 -0.0252181)
(0.177919 0.219656 -0.0163461)
(0.179327 0.273085 -0.0165865)
(0.149715 0.306575 -0.0178535)
(0.111648 0.354324 -0.00729714)
(0.0803209 0.401718 0.00374911)
(0.052275 0.442425 0.0111894)
(0.0253971 0.468035 0.0216322)
(0.00302071 0.491652 0.0220637)
(-0.0232585 0.505023 0.0300597)
(-0.048674 0.508983 0.0361766)
(-0.0701545 0.503365 0.0420208)
(-0.0915617 0.48662 0.0428748)
(-0.117542 0.462677 0.0397285)
(-0.142963 0.438576 0.033927)
(-0.172108 0.409238 0.0258684)
(-0.201175 0.388964 0.0172717)
(-0.223021 0.366092 0.00446575)
(-0.27938 0.354567 -0.0110028)
(-0.293443 0.346299 -0.00189311)
(-0.231836 0.296184 0.0104285)
(-0.231387 0.293193 0.0159856)
(-0.273018 0.277085 0.026896)
(-0.31443 0.268893 0.0332062)
(-0.356519 0.250957 0.0420957)
(-0.390761 0.235001 0.0342465)
(-0.421319 0.205508 0.0242335)
(-0.436365 0.178312 0.00639383)
(-0.441457 0.149938 0.00673306)
(-0.434818 0.126109 0.0147993)
(-0.414802 0.107211 0.0102368)
(-0.386437 0.107188 0.00756179)
(-0.364878 0.119913 -0.016613)
(-0.331944 0.166775 -0.0266917)
(-0.228815 0.177268 -0.0260968)
(-0.108367 0.169805 -0.0216826)
(-0.0264994 0.142647 -0.0132104)
(0.00483651 0.076705 -0.000633464)
(0.00880026 0.0650372 -0.0124979)
(0.0724784 0.15001 -0.0321401)
(0.156697 0.213315 -0.0313488)
(0.201286 0.262656 -0.0198521)
(0.199492 0.300639 -0.0131902)
(0.175611 0.33597 -0.0171708)
(0.152241 0.376449 -0.00646025)
(0.122387 0.415083 0.00034766)
(0.0987002 0.444706 0.00802352)
(0.0717731 0.466476 0.0225375)
(0.0456292 0.475261 0.0340808)
(0.0236988 0.473584 0.0439053)
(0.00496672 0.462598 0.0490124)
(-0.0190824 0.436919 0.0485647)
(-0.0481247 0.410152 0.0487396)
(-0.0772404 0.376179 0.0423119)
(-0.1093 0.347062 0.0331231)
(-0.144565 0.318361 0.022615)
(-0.177291 0.297738 0.0134952)
(-0.20647 0.284989 0.00076813)
(-0.259462 0.272951 -0.0115702)
(-0.283657 0.27652 -0.00732387)
(-0.22797 0.264993 0.00439064)
(-0.22106 0.258716 0.00860449)
(-0.261239 0.246149 0.0210872)
(-0.305658 0.234719 0.028648)
(-0.353196 0.220311 0.0368876)
(-0.391657 0.198449 0.0326345)
(-0.426079 0.173106 0.0191049)
(-0.44936 0.142436 0.0281415)
(-0.463835 0.106521 0.0298215)
(-0.463214 0.0778472 0.0154324)
(-0.447489 0.0591834 0.0109558)
(-0.412297 0.056373 0.0013404)
(-0.373402 0.0694557 -0.00293734)
(-0.341735 0.119674 -0.0254765)
(-0.254221 0.156798 -0.0291314)
(-0.126522 0.167434 -0.0239236)
(-0.0301164 0.147568 -0.015072)
(0.0041684 0.0827006 -0.00233566)
(0.0102435 0.0846991 -0.0132705)
(0.0784739 0.190035 -0.0361768)
(0.17043 0.255802 -0.0347017)
(0.214604 0.294588 -0.019122)
(0.219267 0.323322 -0.0121419)
(0.20619 0.357501 -0.00934038)
(0.187258 0.390596 -0.00842732)
(0.162773 0.415301 0.0033908)
(0.137131 0.436431 0.00935343)
(0.112568 0.445073 0.0199256)
(0.0912583 0.448629 0.0284296)
(0.065383 0.437317 0.0488186)
(0.0363818 0.416147 0.0534565)
(0.0148234 0.380341 0.0565497)
(-0.0122946 0.344201 0.0493832)
(-0.0477369 0.31316 0.0420068)
(-0.0824963 0.286493 0.02965)
(-0.12144 0.264129 0.0180629)
(-0.15535 0.250356 0.00928807)
(-0.189966 0.244564 -0.00338541)
(-0.24173 0.236343 -0.0120593)
(-0.258256 0.238575 -0.00811701)
(-0.208349 0.24681 0.000463865)
(-0.202067 0.231845 0.00419127)
(-0.240991 0.21726 0.0162987)
(-0.282861 0.20124 0.0247071)
(-0.333094 0.186226 0.0316575)
(-0.374752 0.162983 0.0246467)
(-0.414231 0.136036 0.0375253)
(-0.447715 0.0997486 0.0436113)
(-0.468431 0.0643894 0.0358777)
(-0.471918 0.0355627 0.04462)
(-0.463436 0.0148778 0.037383)
(-0.439656 0.0100296 0.0357605)
(-0.398208 0.0181399 0.0246914)
(-0.355511 0.0631965 0.00203618)
(-0.268342 0.11937 -0.0258428)
(-0.140706 0.153258 -0.025602)
(-0.0367033 0.145055 -0.0145749)
(0.00530465 0.0845479 -0.00216576)
(0.010657 0.106364 -0.0122879)
(0.0833849 0.230817 -0.038467)
(0.176578 0.297705 -0.0375719)
(0.227216 0.327508 -0.0202252)
(0.243014 0.351613 -0.00744716)
(0.23793 0.376298 -0.00176365)
(0.220203 0.400534 0.0017865)
(0.196396 0.415565 0.00267723)
(0.176492 0.425664 0.0101929)
(0.153344 0.42777 0.0224956)
(0.12836 0.419373 0.031242)
(0.101255 0.399761 0.03878)
(0.0724675 0.3719 0.0476621)
(0.0386936 0.337997 0.0545708)
(0.0113673 0.298438 0.0519561)
(-0.0192021 0.266026 0.0387733)
(-0.0600376 0.245756 0.0258454)
(-0.0995022 0.228451 0.0140007)
(-0.132131 0.21996 0.0062839)
(-0.168352 0.216314 -0.00526663)
(-0.216491 0.210858 -0.010499)
(-0.218259 0.215404 -0.00559191)
(-0.175464 0.228902 -0.000588107)
(-0.179138 0.206281 0.00206767)
(-0.21101 0.187312 0.013106)
(-0.251707 0.168306 0.0206638)
(-0.300127 0.147054 0.0250243)
(-0.345279 0.125181 0.0329865)
(-0.391904 0.0931205 0.0458344)
(-0.431842 0.058142 0.0454671)
(-0.457329 0.0257155 0.0655039)
(-0.477325 -0.0114914 0.0500828)
(-0.481733 -0.0489179 0.0331514)
(-0.466297 -0.070054 0.0105201)
(-0.423899 -0.0596313 0.00376071)
(-0.375604 -0.0150365 0.00684563)
(-0.289284 0.0679448 -0.00356079)
(-0.157712 0.125199 -0.0311322)
(-0.0418804 0.138783 -0.0144206)
(0.0048735 0.0880607 -0.0037465)
(0.0102 0.11447 -0.0117685)
(0.0818672 0.25513 -0.0412262)
(0.177527 0.325306 -0.0420085)
(0.234372 0.353091 -0.0234531)
(0.260829 0.368704 -0.00533321)
(0.263142 0.381951 0.00462847)
(0.247828 0.394866 0.0105446)
(0.225469 0.403186 0.0133069)
(0.205903 0.408097 0.0163053)
(0.18368 0.402975 0.0209158)
(0.161042 0.388503 0.024143)
(0.13136 0.363531 0.0370626)
(0.0975373 0.332538 0.0378756)
(0.0641995 0.297551 0.0423141)
(0.0295747 0.267665 0.0470666)
(0.000648483 0.233701 0.0377007)
(-0.0340489 0.217394 0.0216886)
(-0.0747799 0.203529 0.0110595)
(-0.104656 0.197956 0.00409882)
(-0.140032 0.194362 -0.00608095)
(-0.179668 0.187905 -0.00792729)
(-0.167067 0.203739 -0.00195706)
(-0.138013 0.207467 -0.00211485)
(-0.151175 0.179877 0.00222919)
(-0.177604 0.158144 0.00931433)
(-0.21441 0.132025 0.0168477)
(-0.259328 0.111427 0.0178551)
(-0.304222 0.0836008 0.0361423)
(-0.354911 0.0533193 0.0426276)
(-0.3946 0.022646 0.0641433)
(-0.440047 -0.0172361 0.050232)
(-0.481155 -0.0689087 0.0390656)
(-0.498216 -0.116324 0.0241441)
(-0.483972 -0.149117 0.0118147)
(-0.441406 -0.151834 -0.00868451)
(-0.381144 -0.112836 -0.00742508)
(-0.296999 -0.0135738 -0.000437592)
(-0.174971 0.0803869 -0.0174268)
(-0.0477911 0.122131 -0.0200344)
(0.00663051 0.0864523 -0.00203929)
(0.00906218 0.12323 -0.00930823)
(0.0813976 0.278212 -0.0402448)
(0.178684 0.353432 -0.0431492)
(0.242232 0.378473 -0.0241409)
(0.275565 0.386429 -0.00352008)
(0.282947 0.386916 0.0110453)
(0.272321 0.389723 0.0206417)
(0.254398 0.39148 0.0231831)
(0.237757 0.391388 0.0254209)
(0.214981 0.381493 0.0278771)
(0.189077 0.364386 0.0289425)
(0.159127 0.335737 0.0282837)
(0.125417 0.305087 0.0260616)
(0.0897302 0.270664 0.0299369)
(0.0518538 0.241265 0.0336152)
(0.0213159 0.217109 0.0320479)
(-0.0098019 0.19403 0.0179069)
(-0.0473661 0.185267 0.00837892)
(-0.0733471 0.181883 0.00229181)
(-0.108077 0.170383 -0.00646935)
(-0.128644 0.173538 -0.00291562)
(-0.111506 0.194009 0.000238858)
(-0.105848 0.179421 0.000559795)
(-0.124112 0.152194 0.0033845)
(-0.146401 0.126456 0.00876419)
(-0.177211 0.0984302 0.0129941)
(-0.216971 0.0752278 0.0254104)
(-0.262245 0.0464652 0.0332601)
(-0.304997 0.0199169 0.0499372)
(-0.357202 -0.0152517 0.0466024)
(-0.416031 -0.067084 0.0412676)
(-0.465386 -0.120677 0.0309748)
(-0.495158 -0.172511 0.018757)
(-0.496547 -0.214927 0.00268038)
(-0.46091 -0.234278 -0.0143199)
(-0.392597 -0.206365 -0.020405)
(-0.303833 -0.117487 -0.0188195)
(-0.187359 0.0242337 0.00230219)
(-0.0561909 0.0997591 -0.0264727)
(0.00500301 0.0870084 -0.00309529)
(0.00681017 0.106959 -0.010077)
(0.0753541 0.275192 -0.0407733)
(0.173321 0.35667 -0.0427965)
(0.241807 0.382885 -0.0234839)
(0.282297 0.385617 4.41064e-05)
(0.297083 0.382613 0.015056)
(0.293675 0.379894 0.0213457)
(0.278547 0.374541 0.0253218)
(0.261291 0.365991 0.0271022)
(0.239691 0.352851 0.0277909)
(0.214714 0.333743 0.0266206)
(0.183031 0.309 0.025078)
(0.146804 0.279702 0.0204805)
(0.109562 0.248758 0.0146693)
(0.0748253 0.221357 0.0137553)
(0.0400983 0.202052 0.0196604)
(0.0126577 0.183613 0.0137882)
(-0.0122397 0.171202 0.0044752)
(-0.0446055 0.165852 -0.00218376)
(-0.0680487 0.159891 -0.00305511)
(-0.0683414 0.173986 0.000902775)
(-0.0685754 0.173108 0.00261684)
(-0.0810842 0.151145 0.00443681)
(-0.0986928 0.12393 0.0061947)
(-0.119374 0.0991623 0.0074008)
(-0.144665 0.0708694 0.0113497)
(-0.179341 0.0454196 0.0195136)
(-0.215376 0.0163219 0.0331429)
(-0.261659 -0.0127541 0.0379137)
(-0.318985 -0.0602016 0.0377143)
(-0.378382 -0.110247 0.0335824)
(-0.432502 -0.167693 0.0281008)
(-0.471329 -0.226749 0.0171913)
(-0.486942 -0.282047 0.00306687)
(-0.464038 -0.315862 -0.0151679)
(-0.403707 -0.306111 -0.0274131)
(-0.297963 -0.228937 -0.0308067)
(-0.189824 -0.074344 -0.0186445)
(-0.0676944 0.0566091 -0.0184284)
(0.00634383 0.0779594 -0.00660222)
(0.00848431 0.109818 -0.00290344)
(0.0763166 0.284571 -0.0334206)
(0.172985 0.369902 -0.0383161)
(0.247414 0.393443 -0.0182235)
(0.297426 0.390063 0.00717412)
(0.320431 0.378079 0.0155389)
(0.318037 0.368786 0.0239191)
(0.302767 0.357202 0.0257168)
(0.287715 0.347866 0.0249868)
(0.267632 0.332548 0.0221602)
(0.243572 0.313175 0.0187955)
(0.212813 0.286087 0.0147295)
(0.175122 0.258058 0.0100968)
(0.13586 0.227784 0.00710576)
(0.0999097 0.203419 0.00347548)
(0.0690383 0.184803 0.00443952)
(0.0386748 0.177396 0.00533716)
(0.0128308 0.174283 0.00108525)
(-0.0038611 0.173751 -0.00111918)
(-0.0147154 0.177204 8.95518e-05)
(-0.0265874 0.171805 0.00361745)
(-0.0424323 0.151904 0.00632896)
(-0.0594444 0.129051 0.00854601)
(-0.0772822 0.101952 0.00970863)
(-0.0958457 0.077308 0.00996925)
(-0.119139 0.0509982 0.011495)
(-0.149072 0.0232038 0.0219954)
(-0.185088 -0.00575467 0.0268593)
(-0.231609 -0.0441808 0.0276083)
(-0.286685 -0.088292 0.0283038)
(-0.342878 -0.137405 0.0285555)
(-0.396532 -0.195814 0.025571)
(-0.43959 -0.258944 0.0186851)
(-0.464782 -0.325385 0.00586196)
(-0.45499 -0.37542 -0.0113621)
(-0.404753 -0.390294 -0.0279726)
(-0.30813 -0.327724 -0.0397814)
(-0.192614 -0.184477 -0.0306063)
(-0.0641666 0.00654787 -0.00986144)
(0.00479949 0.0671748 -0.0116916)
(-0.00149562 0.0861693 -0.0151928)
(0.0557582 0.269088 -0.0402617)
(0.154483 0.365388 -0.0461943)
(0.237116 0.391686 -0.0251926)
(0.297036 0.391057 -0.00258915)
(0.33224 0.372008 0.0116025)
(0.34119 0.355208 0.0173634)
(0.330639 0.33489 0.0184204)
(0.315285 0.31886 0.0160883)
(0.292827 0.30872 0.0127231)
(0.265622 0.300478 0.00946178)
(0.231847 0.28948 0.00734602)
(0.193192 0.272238 0.00458428)
(0.15454 0.249415 0.00312225)
(0.12358 0.227253 0.00138687)
(0.0987214 0.211987 0.0033428)
(0.0830747 0.209467 0.00281528)
(0.0649847 0.209645 -0.00173932)
(0.0408551 0.205325 -0.00234911)
(0.0145244 0.19025 -0.000429241)
(-0.00753288 0.167164 0.00600099)
(-0.0240224 0.139687 0.00835172)
(-0.0432955 0.114285 0.0106269)
(-0.0610504 0.0878841 0.0121063)
(-0.0773161 0.0610696 0.0139051)
(-0.0993645 0.0330111 0.0140464)
(-0.126855 0.00483342 0.0147922)
(-0.160823 -0.0285361 0.0138594)
(-0.204522 -0.0692933 0.0152243)
(-0.252109 -0.116158 0.017524)
(-0.302656 -0.167635 0.0190836)
(-0.353016 -0.230539 0.0189047)
(-0.397741 -0.298854 0.0144943)
(-0.429945 -0.375816 0.00501583)
(-0.433341 -0.440606 -0.0111802)
(-0.394067 -0.476959 -0.0272482)
(-0.305523 -0.432368 -0.0521196)
(-0.191836 -0.299424 -0.0440227)
(-0.0637486 -0.0713738 -0.012406)
(0.00213153 0.0524593 -0.00103062)
(-0.0013838 0.14884 -0.00397825)
(0.0527404 0.346289 -0.0180362)
(0.144794 0.445834 -0.0296201)
(0.230955 0.467973 -0.00993124)
(0.300184 0.457622 -0.00216509)
(0.340239 0.425056 0.0136112)
(0.352473 0.387734 0.0166048)
(0.343626 0.367364 0.0192619)
(0.34262 0.374166 0.0168825)
(0.336424 0.381058 0.0121294)
(0.317385 0.381488 0.00621437)
(0.281743 0.372745 0.000202824)
(0.233189 0.352297 -0.00400329)
(0.185416 0.323271 -0.00502468)
(0.151252 0.294145 -0.00454526)
(0.135155 0.269387 -0.000897725)
(0.117308 0.250213 0.00452118)
(0.0890152 0.228873 -0.00273103)
(0.0579472 0.209261 -0.00541124)
(0.0288234 0.181825 -0.00211124)
(0.00422423 0.159508 0.00360305)
(-0.0149108 0.1267 0.00775906)
(-0.031351 0.102436 0.0100148)
(-0.049857 0.0754024 0.0120507)
(-0.0673082 0.0498224 0.0149182)
(-0.086931 0.0198823 0.0131497)
(-0.11366 -0.0037241 0.0097549)
(-0.149972 -0.0352341 0.00616492)
(-0.19291 -0.0708592 0.00627193)
(-0.236169 -0.116102 0.00857742)
(-0.280119 -0.165544 0.0122122)
(-0.322499 -0.228263 0.0146702)
(-0.363265 -0.300388 0.0140522)
(-0.397107 -0.386787 0.00752107)
(-0.408559 -0.470222 -0.00697177)
(-0.378111 -0.533546 -0.0245106)
(-0.304401 -0.534485 -0.0555191)
(-0.193379 -0.40996 -0.057354)
(-0.0566644 -0.192773 -0.0302739)
(0.00543574 0.0112094 -0.00176429)
(-0.0169574 0.227184 -0.0232131)
(0.0216056 0.466246 -0.040696)
(0.112388 0.575933 -0.0491456)
(0.198965 0.614724 -0.0328151)
(0.27135 0.604848 -0.0209878)
(0.318509 0.57274 -0.0034093)
(0.356762 0.525309 0.00460174)
(0.396591 0.492486 0.00596228)
(0.410987 0.484257 -0.00169665)
(0.385102 0.467108 -0.00733723)
(0.346441 0.442681 -0.0107563)
(0.295126 0.411432 -0.0115604)
(0.237442 0.373318 -0.010994)
(0.18856 0.335704 -0.00906204)
(0.157871 0.303611 -0.00816597)
(0.138609 0.273055 -0.0041696)
(0.124025 0.238755 0.00117227)
(0.104262 0.211993 0.00673102)
(0.0726842 0.189995 -8.05971e-05)
(0.0426322 0.167452 -0.00102715)
(0.013545 0.142384 0.00175182)
(-0.00659053 0.113067 0.00787047)
(-0.0208752 0.0873804 0.00910374)
(-0.0396065 0.060562 0.0116605)
(-0.0565364 0.0346244 0.0103146)
(-0.0722928 0.00430336 0.0123748)
(-0.094186 -0.0236693 0.00774456)
(-0.128844 -0.0529162 0.000843322)
(-0.169767 -0.08626 -0.00472256)
(-0.20847 -0.134832 -0.00768332)
(-0.247741 -0.18672 -0.00858773)
(-0.286419 -0.254912 -0.00926822)
(-0.324248 -0.3292 -0.00879195)
(-0.360243 -0.425478 -0.0108323)
(-0.383295 -0.522328 -0.0200453)
(-0.382279 -0.619023 -0.0378445)
(-0.315368 -0.647768 -0.0619104)
(-0.230419 -0.548906 -0.0764842)
(-0.0876037 -0.268961 -0.0361621)
(0.013828 -0.00107815 -0.00269791)
(0.00144661 0.199248 0.000802631)
(0.0403832 0.443275 -0.0373453)
(0.116326 0.568553 -0.0498784)
(0.203785 0.625908 -0.0460252)
(0.27574 0.630905 -0.0355579)
(0.324381 0.61164 -0.0252166)
(0.355573 0.574465 -0.0185252)
(0.386864 0.526991 -0.00847645)
(0.402033 0.480165 -0.0104768)
(0.380892 0.441501 -0.0100344)
(0.348968 0.40693 -0.00983789)
(0.301553 0.375204 -0.0080202)
(0.247558 0.3386 -0.0056463)
(0.204961 0.308432 -0.00305142)
(0.175881 0.281589 -0.00164401)
(0.154798 0.254419 0.00113805)
(0.137748 0.224494 0.00487433)
(0.119443 0.191966 0.00744346)
(0.0902064 0.169744 0.0106462)
(0.0554063 0.148395 0.00286518)
(0.0218861 0.125404 0.00371492)
(0.000537798 0.0988482 0.00718309)
(-0.0143279 0.0717107 0.00971636)
(-0.0327932 0.0428337 0.0125815)
(-0.051914 0.0168369 0.00936234)
(-0.0699658 -0.012197 0.013742)
(-0.0894774 -0.0409695 0.014242)
(-0.121458 -0.0714346 0.0103205)
(-0.168662 -0.0943075 0.00555283)
(-0.207865 -0.13231 0.00496019)
(-0.240711 -0.17822 0.00396869)
(-0.268226 -0.250597 0.00182539)
(-0.2966 -0.343743 -0.00344275)
(-0.322519 -0.480589 -0.0114097)
(-0.347318 -0.625385 -0.0187471)
(-0.349386 -0.763435 -0.0278832)
(-0.29683 -0.829028 -0.0507275)
(-0.189556 -0.783402 -0.0649123)
(-0.0669316 -0.486357 -0.064892)
(-0.00281672 -0.114506 0.0086022)
(0.000753373 0.210972 -0.002772)
(0.0369758 0.429495 -0.0339418)
(0.105288 0.552475 -0.0446713)
(0.185138 0.607555 -0.0428178)
(0.255087 0.613152 -0.026275)
(0.307855 0.589686 -0.0203029)
(0.345648 0.550285 -0.0118698)
(0.381827 0.507834 -0.00449828)
(0.404349 0.460567 -0.00536427)
(0.390495 0.425915 -0.00494583)
(0.358794 0.394118 -0.00451693)
(0.307881 0.360611 -0.0030777)
(0.254385 0.324381 -0.000733203)
(0.216651 0.294024 0.00085609)
(0.188711 0.265996 0.00190848)
(0.16536 0.237013 0.00401378)
(0.143272 0.208047 0.0065751)
(0.128306 0.171244 0.0117716)
(0.104579 0.14362 0.0120996)
(0.0706286 0.122151 0.0137086)
(0.0337533 0.104747 0.00543891)
(0.00769804 0.0792755 0.00779934)
(-0.0096752 0.0526658 0.0104577)
(-0.0269841 0.0247716 0.0109986)
(-0.0425916 -1.31982e-05 0.0113949)
(-0.0581481 -0.0243292 0.0132024)
(-0.0763187 -0.0480525 0.013693)
(-0.0967774 -0.0754548 0.0137246)
(-0.132533 -0.0913135 0.0084362)
(-0.174575 -0.108412 0.00540503)
(-0.218771 -0.133738 0.00596344)
(-0.265594 -0.186676 0.00856479)
(-0.32286 -0.259861 0.0135685)
(-0.366934 -0.381111 0.0177178)
(-0.375409 -0.525688 0.0137631)
(-0.364524 -0.69158 0.00627731)
(-0.318421 -0.814833 -0.00964094)
(-0.217891 -0.840561 -0.0349357)
(-0.0596626 -0.620097 -0.0461676)
(0.0214058 -0.185339 -0.0145455)
(0.00624068 0.193434 -0.00351521)
(0.044047 0.392787 -0.0275691)
(0.105794 0.522792 -0.0376086)
(0.181912 0.583017 -0.0367525)
(0.248269 0.598435 -0.0252155)
(0.297827 0.580194 -0.0150872)
(0.33778 0.541913 -0.00646046)
(0.370841 0.498594 -0.000237041)
(0.395154 0.444166 -0.00128369)
(0.39082 0.402182 -0.00169219)
(0.36055 0.364314 -0.00164362)
(0.310817 0.325458 0.000566003)
(0.262704 0.291866 0.00291751)
(0.230372 0.262362 0.00448713)
(0.203385 0.235125 0.00514115)
(0.180996 0.207067 0.00665722)
(0.154611 0.180185 0.0087771)
(0.134707 0.148029 0.0123831)
(0.117053 0.112484 0.0186391)
(0.0886917 0.0919068 0.016525)
(0.0481352 0.075765 0.0160022)
(0.0157158 0.0564706 0.0107027)
(-0.00237235 0.0330742 0.0163963)
(-0.0187359 0.00815409 0.0127624)
(-0.0330059 -0.0118791 0.0135465)
(-0.0476967 -0.0360199 0.0127981)
(-0.0663088 -0.0578082 0.012573)
(-0.0834785 -0.0851995 0.0127217)
(-0.108768 -0.107682 0.0119698)