/*--------------------------------*- C++ -*----------------------------------*\
| =========                 |                                                 |
| \\      /  F ield         | OpenFOAM: The Open Source CFD Toolbox           |
|  \\    /   O peration     | Version:  v1806                                 |
|   \\  /    A nd           | Web:      www.OpenFOAM.com                      |
|    \\/     M anipulation  |                                                 |
\*---------------------------------------------------------------------------*/
FoamFile
{
    version     2.0;
    format      ascii;
    class       volVectorField;
    location    "0.0885";
    object      U;
}
// * * * * * * * * * * * * * * * * * * * * * * * * * * * * * * * * * * * * * //

dimensions      [0 1 -1 0 0 0 0];


internalField   nonuniform List<vector> 
64000
(
(-0.0100816 -0.0116554 -0.0081207)
(0.014994 -0.0113619 -0.0056476)
(0.0211886 -0.00382566 0.00036404)
(0.0258377 -0.00327844 0.00112191)
(0.0270631 -0.00231997 0.0014566)
(0.0274248 -0.00270552 0.00207036)
(0.0269873 -0.00369861 0.0022696)
(0.0237407 -0.00404811 0.0027499)
(0.0225177 -0.0050026 0.00412736)
(0.0155732 -0.00467476 0.00373415)
(0.00993443 -0.00523538 0.00557747)
(-0.00238245 -0.00811877 0.00666444)
(-0.0204196 -0.0124593 0.00599578)
(-0.0448054 -0.0175092 0.00384667)
(-0.0728926 -0.0180426 0.00478497)
(-0.109322 -0.0170396 0.00241173)
(-0.137098 5.49225e-07 0.00153159)
(-0.182213 -0.0044789 -0.00280258)
(-0.180376 -0.00955883 0.00495319)
(-0.241535 -0.0272033 -0.0143192)
(-0.212361 -0.0212121 -0.0213385)
(-0.106248 -0.0229463 -0.0382338)
(-0.109329 -0.00799383 -0.0253954)
(-0.107376 -0.00300827 -0.0371499)
(-0.1251 0.00316038 -0.0481727)
(-0.119263 0.011339 -0.0578082)
(-0.107699 0.0214224 -0.0624725)
(-0.07137 0.0322207 -0.0586867)
(-0.0373319 0.039146 -0.0541184)
(0.00637757 0.0510085 -0.0394369)
(0.0514429 0.047905 -0.032019)
(0.0876082 0.038338 -0.0246863)
(0.103877 0.0279381 -0.0125409)
(0.100741 0.0143042 -0.00511894)
(0.0871602 0.00574665 0.00106326)
(0.0687852 -0.00224932 0.00367222)
(0.0497549 -0.00624183 0.00476293)
(0.029689 -0.00559133 0.00560652)
(0.0158068 -0.00411268 0.00607802)
(0.00206788 -0.00266507 0.00395803)
(-0.00722006 0.00226761 -0.00450516)
(0.00876454 -0.0163361 -0.00426022)
(0.0240526 -0.0105896 -0.00184971)
(0.034531 -0.0070635 -0.00093425)
(0.0401895 -0.00239955 -0.00136759)
(0.0402779 -0.000476113 -0.00173349)
(0.0390531 0.00349618 -0.00322095)
(0.0319525 0.00504892 -0.00291844)
(0.0248466 0.0105116 -0.00721042)
(0.0074334 0.0162543 -0.00411619)
(-0.0162668 0.024875 -0.00824874)
(-0.0533648 0.032076 0.000765554)
(-0.100346 0.042588 -0.00403868)
(-0.152756 0.0620965 -0.00681054)
(-0.210939 0.075516 -0.0113573)
(-0.269069 0.0844613 -0.0182502)
(-0.346873 0.0929749 -0.0438032)
(-0.452467 0.0950809 -0.0587412)
(-0.498562 0.101277 -0.0762651)
(-0.58504 0.10062 -0.0979074)
(-0.538896 0.128121 -0.0951952)
(-0.40455 0.143183 -0.125725)
(-0.389234 0.188575 -0.135581)
(-0.373587 0.212582 -0.145654)
(-0.364514 0.237208 -0.157413)
(-0.325647 0.258581 -0.163679)
(-0.277304 0.279515 -0.165107)
(-0.205203 0.294869 -0.153511)
(-0.129817 0.30104 -0.133686)
(-0.0569271 0.305295 -0.109969)
(0.00712539 0.289777 -0.0767231)
(0.0705823 0.25925 -0.0467281)
(0.108197 0.211234 -0.0390108)
(0.120595 0.159686 -0.0263156)
(0.115663 0.109176 -0.01286)
(0.0970813 0.0695098 -0.00538747)
(0.0778384 0.040997 -0.00102619)
(0.0534553 0.0262354 -4.17191e-05)
(0.0319425 0.0164015 0.00143129)
(0.00774489 0.00797256 0.00152574)
(-0.000499753 -0.00487548 0.00155049)
(0.0151579 -0.0222181 -0.00193589)
(0.0320512 -0.0169856 -0.0029822)
(0.0428411 -0.0049191 -0.00420459)
(0.0451184 0.00471734 -0.00586211)
(0.0430096 0.0158895 -0.00719729)
(0.0358231 0.0309645 -0.00831197)
(0.0215831 0.0451284 -0.00981775)
(0.00584487 0.0692218 -0.00181729)
(-0.0244563 0.0900486 -0.00498435)
(-0.0623608 0.116818 -0.00815939)
(-0.115203 0.14919 -0.0132571)
(-0.170041 0.182808 -0.0178123)
(-0.248357 0.211502 -0.0323802)
(-0.344088 0.231528 -0.0357044)
(-0.440616 0.245145 -0.0423517)
(-0.524718 0.250244 -0.0590718)
(-0.61303 0.270038 -0.0778188)
(-0.653957 0.30036 -0.0955868)
(-0.725342 0.33512 -0.115997)
(-0.665203 0.373292 -0.10542)
(-0.504327 0.403022 -0.123809)
(-0.465494 0.459934 -0.125307)
(-0.438643 0.490567 -0.123423)
(-0.420559 0.5227 -0.126374)
(-0.377421 0.544172 -0.124902)
(-0.328573 0.558558 -0.120307)
(-0.262356 0.561688 -0.105099)
(-0.196335 0.551629 -0.082938)
(-0.130366 0.531442 -0.0594685)
(-0.0749107 0.499776 -0.040027)
(-0.0305017 0.452119 -0.0278611)
(0.0029719 0.379589 -0.0172388)
(0.0252261 0.30693 -0.00865648)
(0.0387505 0.227448 -0.0107646)
(0.0451836 0.162766 -0.0109347)
(0.0458304 0.115318 -0.00729798)
(0.0372033 0.0783796 -0.00508247)
(0.0265378 0.0522502 -0.00142228)
(0.00770094 0.0259266 0.00129549)
(0.000715082 -0.008996 0.00195728)
(0.0175124 -0.0233416 -0.00124078)
(0.0383368 -0.0106889 -0.00379025)
(0.0459484 0.00632171 -0.00697162)
(0.0440388 0.0302466 -0.00770372)
(0.0400127 0.0547321 -0.0092865)
(0.0273292 0.0899927 -0.00906309)
(0.00879546 0.122766 -0.00588577)
(-0.0182336 0.167437 -0.0106108)
(-0.0640684 0.207459 -0.0130171)
(-0.10997 0.251652 -0.0173676)
(-0.174788 0.288865 -0.0249855)
(-0.258551 0.317832 -0.0274473)
(-0.349248 0.334592 -0.0291471)
(-0.435198 0.355724 -0.0318495)
(-0.5146 0.379094 -0.0365179)
(-0.582879 0.409452 -0.0516348)
(-0.658066 0.43828 -0.0616049)
(-0.685043 0.480068 -0.0711044)
(-0.742494 0.525126 -0.0777779)
(-0.67152 0.558412 -0.0470834)
(-0.489664 0.579085 -0.0456677)
(-0.436566 0.621361 -0.0400842)
(-0.409938 0.627908 -0.0294729)
(-0.392916 0.641134 -0.0272631)
(-0.35893 0.641407 -0.0223074)
(-0.321758 0.634037 -0.0188379)
(-0.272234 0.615182 -0.0112176)
(-0.223811 0.589476 0.000757355)
(-0.178101 0.556683 0.00798652)
(-0.146954 0.515776 0.0129212)
(-0.121565 0.471156 0.0116197)
(-0.0977594 0.412062 0.00578512)
(-0.0753823 0.349492 -0.00223686)
(-0.0519405 0.26982 -0.00580181)
(-0.0219122 0.202201 -0.0106269)
(-0.00104421 0.147461 -0.010839)
(0.00793916 0.111254 -0.00810776)
(0.016239 0.0781503 -0.00360023)
(0.00608993 0.0382885 0.00101424)
(0.00107095 -0.00926817 0.000669653)
(0.0233841 -0.0124902 -0.00415754)
(0.0456899 0.00437705 -0.00780353)
(0.0544986 0.0386897 -0.00874089)
(0.0520133 0.0759274 -0.00836624)
(0.0462064 0.121712 -0.0156154)
(0.0280408 0.176337 -0.0134433)
(0.000166216 0.236083 -0.00651827)
(-0.032735 0.292229 -0.00802113)
(-0.0859442 0.339399 -0.0101619)
(-0.146092 0.376741 -0.0129517)
(-0.224571 0.396805 -0.0155979)
(-0.299181 0.419434 -0.0163918)
(-0.374136 0.444178 -0.0214898)
(-0.446353 0.474222 -0.0208796)
(-0.514224 0.506859 -0.0215537)
(-0.569641 0.534977 -0.0256434)
(-0.625995 0.570297 -0.0233123)
(-0.633374 0.616913 -0.0178274)
(-0.676071 0.663685 -0.0261203)
(-0.606464 0.691483 0.00473251)
(-0.418312 0.696808 0.0165996)
(-0.360759 0.709859 0.0278201)
(-0.343538 0.683014 0.0365728)
(-0.33857 0.6662 0.0367945)
(-0.323851 0.639809 0.0425521)
(-0.30668 0.607927 0.0437732)
(-0.275685 0.57102 0.0477963)
(-0.2479 0.529898 0.0410193)
(-0.222293 0.490107 0.0327851)
(-0.202345 0.445004 0.0226502)
(-0.19234 0.411812 0.0154404)
(-0.183802 0.374156 0.00786317)
(-0.177195 0.343324 -0.00415601)
(-0.154107 0.278827 -0.0138395)
(-0.104591 0.209441 -0.0147256)
(-0.0530857 0.161514 -0.0139599)
(-0.0174619 0.131096 -0.0118135)
(0.00254519 0.0969596 -0.0063086)
(0.0032256 0.0481424 0.00100247)
(0.00581339 -0.00379773 -0.000126863)
(0.0284291 0.00259565 -0.00680071)
(0.0597838 0.0293427 -0.00650001)
(0.0716506 0.0813422 -0.0101469)
(0.0661676 0.139188 -0.015101)
(0.0625695 0.202723 -0.0188398)
(0.0462745 0.278046 -0.0140655)
(0.0123713 0.332194 -0.00542378)
(-0.0406172 0.377339 -0.00562912)
(-0.110779 0.411451 -0.00779512)
(-0.18013 0.441234 -0.00992444)
(-0.245488 0.468605 -0.0101064)
(-0.304815 0.502067 -0.0083912)
(-0.363405 0.530007 -0.00536997)
(-0.413204 0.559832 0.000311844)
(-0.465709 0.588239 0.00596833)
(-0.498026 0.618304 0.00886563)
(-0.532668 0.649435 0.0085332)
(-0.534197 0.697795 0.0104917)
(-0.563598 0.732885 0.00946504)
(-0.49774 0.757381 0.0386468)
(-0.326938 0.708291 0.0529252)
(-0.285721 0.690428 0.0632335)
(-0.29037 0.632614 0.0749497)
(-0.300145 0.592188 0.0769481)
(-0.304378 0.549311 0.0764759)
(-0.303236 0.506646 0.0737635)
(-0.292416 0.464603 0.0673605)
(-0.278038 0.417501 0.0652489)
(-0.266494 0.378929 0.0439767)
(-0.256755 0.335357 0.0325594)
(-0.245716 0.304644 0.017636)
(-0.231593 0.278682 0.00671882)
(-0.238579 0.266858 -0.00509322)
(-0.241714 0.242589 -0.0168861)
(-0.175847 0.193662 -0.0147727)
(-0.0937024 0.162507 -0.0155507)
(-0.0410201 0.136611 -0.012152)
(-0.00506136 0.104988 -0.00709773)
(0.00226887 0.0517961 0.00153175)
(0.00663304 0.00168329 -0.000932907)
(0.0379439 0.015753 -0.0102329)
(0.0807995 0.056386 -0.0104317)
(0.105176 0.111667 -0.0126129)
(0.1002 0.177604 -0.0175794)
(0.0974937 0.250803 -0.0201536)
(0.0590625 0.318484 -0.0134117)
(-0.00483322 0.347039 0.00121355)
(-0.0560968 0.390886 -0.00374128)
(-0.113489 0.428907 -0.0043386)
(-0.16234 0.473732 -0.00435741)
(-0.213399 0.515908 -0.00243322)
(-0.260006 0.555741 0.00100446)
(-0.307229 0.589264 0.00607559)
(-0.34699 0.622399 0.0141959)
(-0.382095 0.647237 0.0195386)
(-0.404522 0.674963 0.0257526)
(-0.42287 0.686881 0.0290538)
(-0.411367 0.71279 0.0272686)
(-0.431798 0.725346 0.0177985)
(-0.426466 0.745449 0.034723)
(-0.289828 0.638708 0.0561073)
(-0.234772 0.589742 0.0604361)
(-0.256489 0.52704 0.072142)
(-0.27679 0.484979 0.072136)
(-0.297834 0.44642 0.071305)
(-0.312612 0.411357 0.067361)
(-0.318435 0.376727 0.0600043)
(-0.317211 0.339809 0.0467279)
(-0.317704 0.305446 0.0307494)
(-0.314515 0.272316 0.0173831)
(-0.306358 0.244271 0.00462554)
(-0.291853 0.224065 -0.00364957)
(-0.286911 0.20858 -0.0109705)
(-0.289936 0.219203 -0.0196033)
(-0.227895 0.194111 -0.0213479)
(-0.1283 0.168301 -0.0222811)
(-0.0563715 0.147734 -0.0171971)
(-0.0102426 0.114172 -0.0110549)
(0.00222478 0.0568738 -0.000223448)
(0.00726475 0.00803762 -0.00377909)
(0.0454468 0.0345066 -0.0139009)
(0.0993984 0.0835899 -0.0139244)
(0.125393 0.139694 -0.0117125)
(0.128229 0.199041 -0.0126473)
(0.117432 0.272368 -0.0137317)
(0.056847 0.305115 -0.00357591)
(0.0057274 0.35212 0.00440004)
(-0.0260702 0.398413 0.000158814)
(-0.0762713 0.452354 0.00171246)
(-0.118675 0.497146 0.00218616)
(-0.161852 0.535143 0.0087846)
(-0.198221 0.569156 0.0145345)
(-0.230186 0.596487 0.0228025)
(-0.257248 0.622928 0.0272223)
(-0.286403 0.638303 0.0315475)
(-0.304403 0.6505 0.0344645)
(-0.322589 0.648638 0.0337854)
(-0.319957 0.644551 0.0310522)
(-0.333083 0.619267 0.0154099)
(-0.375357 0.625043 0.0171311)
(-0.292197 0.544038 0.0364959)
(-0.222464 0.462337 0.0392028)
(-0.244537 0.420751 0.0503494)
(-0.27256 0.385389 0.0536702)
(-0.303812 0.360085 0.0548165)
(-0.328773 0.334513 0.0556747)
(-0.346044 0.308386 0.0481561)
(-0.356123 0.280763 0.0384694)
(-0.363334 0.250556 0.0162032)
(-0.364503 0.21903 0.00724888)
(-0.354651 0.194284 -0.00213641)
(-0.339592 0.181579 -0.00951536)
(-0.321457 0.171931 -0.0135242)
(-0.328268 0.193336 -0.0229701)
(-0.277785 0.197615 -0.0213014)
(-0.162416 0.173821 -0.0229238)
(-0.0749365 0.157125 -0.0178115)
(-0.0153966 0.12157 -0.0106557)
(0.00322743 0.0608435 0.000586864)
(0.00590642 0.0213224 -0.00650495)
(0.0538616 0.0658398 -0.0179486)
(0.119785 0.12226 -0.0194701)
(0.15207 0.17816 -0.01377)
(0.160468 0.239458 -0.0142455)
(0.131308 0.29293 -0.0137679)
(0.0753511 0.326296 -0.00395988)
(0.0350021 0.384751 0.00376826)
(0.00780119 0.422412 0.0100096)
(-0.0265756 0.463467 0.00960824)
(-0.0663549 0.500883 0.0138698)
(-0.0981714 0.528856 0.0192716)
(-0.124452 0.552037 0.0268098)
(-0.149617 0.565911 0.0331792)
(-0.173078 0.571263 0.0355066)
(-0.19901 0.568171 0.0360298)
(-0.221132 0.562607 0.0347458)
(-0.247991 0.546075 0.0300564)
(-0.26878 0.532115 0.0240552)
(-0.283755 0.4972 0.0100853)
(-0.335452 0.487104 -0.000462956)
(-0.315489 0.457299 0.0110251)
(-0.242738 0.358609 0.0204221)
(-0.243342 0.34031 0.0266028)
(-0.276644 0.315297 0.0343065)
(-0.312034 0.300312 0.0383812)
(-0.346366 0.282572 0.0435659)
(-0.371164 0.260849 0.0391905)
(-0.391341 0.237497 0.0235977)
(-0.408263 0.204517 0.00766865)
(-0.410112 0.179674 -0.00215801)
(-0.396852 0.156596 -0.00800252)
(-0.381327 0.143311 -0.0132544)
(-0.353001 0.143838 -0.022026)
(-0.342239 0.156926 -0.0256615)
(-0.307738 0.19285 -0.0298933)
(-0.198053 0.176843 -0.0267222)
(-0.0901975 0.166823 -0.0249492)
(-0.0204352 0.131907 -0.0139172)
(0.00415288 0.0673775 -0.00162032)
(0.00772478 0.0372513 -0.00913812)
(0.0629319 0.103817 -0.02554)
(0.138464 0.164392 -0.0245056)
(0.177502 0.218353 -0.0150104)
(0.180868 0.273117 -0.0156763)
(0.150065 0.30664 -0.0147932)
(0.106729 0.352529 -0.00512166)
(0.0741077 0.399726 0.00661462)
(0.04377 0.438392 0.0137069)
(0.0190008 0.465022 0.0245371)
(-0.00732098 0.488691 0.0217662)
(-0.0379143 0.502071 0.0320916)
(-0.0612436 0.510572 0.0373808)
(-0.0846409 0.502366 0.0430153)
(-0.107777 0.48793 0.0433567)
(-0.134936 0.465062 0.0401966)
(-0.162579 0.442568 0.0348072)
(-0.193847 0.416748 0.0270855)
(-0.225748 0.399987 0.0182782)
(-0.255686 0.380686 0.00437218)
(-0.307967 0.364512 -0.00875957)
(-0.339943 0.364141 -0.00701018)
(-0.274902 0.295613 0.00949852)
(-0.241429 0.285817 0.0117928)
(-0.277731 0.268023 0.0227529)
(-0.313632 0.260073 0.029623)
(-0.353763 0.241378 0.0390599)
(-0.386099 0.225144 0.0325302)
(-0.414926 0.195584 0.0243014)
(-0.429788 0.169061 0.00859444)
(-0.435088 0.141111 0.0096892)
(-0.429339 0.119003 0.0164084)
(-0.409371 0.0996781 0.0128162)
(-0.383289 0.101259 0.00841581)
(-0.362885 0.114549 -0.0145703)
(-0.330856 0.162836 -0.0255268)
(-0.228467 0.173977 -0.0257187)
(-0.108205 0.166933 -0.0217135)
(-0.026326 0.13965 -0.0130779)
(0.00510552 0.0717717 -0.000458783)
(0.00882143 0.0606261 -0.0117496)
(0.0718862 0.147605 -0.0318246)
(0.156465 0.211691 -0.031082)
(0.201792 0.261206 -0.0189887)
(0.200605 0.300277 -0.0117791)
(0.174711 0.333311 -0.0150393)
(0.146556 0.373772 -0.00438659)
(0.115613 0.411501 0.00317139)
(0.090441 0.440549 0.011336)
(0.0624704 0.46217 0.027272)
(0.0341737 0.468399 0.0359618)
(0.0162274 0.469172 0.0461646)
(-0.00671469 0.457402 0.0471076)
(-0.0358415 0.435337 0.049413)
(-0.0630546 0.407698 0.0480461)
(-0.0947638 0.37563 0.0418763)
(-0.127532 0.346503 0.0334432)
(-0.163582 0.319433 0.0242073)
(-0.19877 0.302926 0.0153585)
(-0.2371 0.289782 0.00246559)
(-0.2873 0.279264 -0.00793366)
(-0.334793 0.283002 -0.0116454)
(-0.280682 0.262777 0.00232511)
(-0.235573 0.249514 0.00331504)
(-0.266345 0.236957 0.0157226)
(-0.305044 0.225119 0.0240487)
(-0.350567 0.210348 0.0331926)
(-0.387224 0.188011 0.0307452)
(-0.419899 0.162532 0.019738)
(-0.442874 0.132779 0.0291857)
(-0.456671 0.098123 0.0308057)
(-0.45759 0.0698143 0.0169495)
(-0.442874 0.0544633 0.0121552)
(-0.408608 0.0515679 0.00338145)
(-0.37038 0.0660101 -0.00164417)
(-0.339113 0.11417 -0.023918)
(-0.252812 0.153606 -0.028925)
(-0.125369 0.163833 -0.0239353)
(-0.0294595 0.144165 -0.0151839)
(0.00447511 0.0770477 -0.00212642)
(0.00991847 0.0792549 -0.0124598)
(0.0778773 0.187352 -0.0358107)
(0.170346 0.254374 -0.0343789)
(0.215477 0.293045 -0.0181781)
(0.219486 0.321182 -0.0104112)
(0.203916 0.353598 -0.00789051)
(0.181213 0.385528 -0.00670381)
(0.155109 0.410229 0.00621646)
(0.128513 0.430895 0.0117157)
(0.104319 0.439931 0.0233078)
(0.0814425 0.443851 0.0352115)
(0.0528966 0.433439 0.0506453)
(0.02693 0.408967 0.0549845)
(0.00263362 0.374669 0.0548817)
(-0.028673 0.342321 0.0484457)
(-0.0641525 0.30968 0.0397252)
(-0.101301 0.28357 0.0287122)
(-0.138428 0.261121 0.0192279)
(-0.176794 0.252002 0.0103521)
(-0.220191 0.241039 0.000110878)
(-0.267289 0.236773 -0.00753036)
(-0.312362 0.237494 -0.0118408)
(-0.265738 0.238649 -0.000466463)
(-0.218374 0.223297 -0.00145099)
(-0.246763 0.207929 0.0107741)
(-0.282883 0.192427 0.0198032)
(-0.331169 0.175957 0.0278014)
(-0.371418 0.153156 0.0219494)
(-0.408393 0.125964 0.0376677)
(-0.440818 0.0910132 0.044597)
(-0.462188 0.0569653 0.0380127)
(-0.463737 0.0309797 0.0487505)
(-0.456058 0.00861334 0.0384479)
(-0.43681 0.00490486 0.0347431)
(-0.39814 0.0140074 0.0246061)
(-0.354411 0.0603639 0.00314863)
(-0.265903 0.115783 -0.025755)
(-0.139515 0.151342 -0.0255247)
(-0.0356213 0.142582 -0.0147293)
(0.00558119 0.0799428 -0.00208496)
(0.01057 0.101086 -0.0115175)
(0.0829626 0.228803 -0.0381307)
(0.176447 0.296654 -0.0372956)
(0.226961 0.32591 -0.0189864)
(0.241734 0.348314 -0.0061177)
(0.234117 0.372068 -0.000474046)
(0.21361 0.394648 0.00378615)
(0.18937 0.40948 0.00468524)
(0.168409 0.419384 0.0146203)
(0.14522 0.421742 0.0253225)
(0.118525 0.412818 0.0346618)
(0.091707 0.394259 0.0416973)
(0.0586033 0.366548 0.0545441)
(0.0263701 0.330833 0.0548158)
(-0.00235468 0.290535 0.0480242)
(-0.038863 0.263922 0.0351192)
(-0.0786136 0.240283 0.022957)
(-0.114846 0.224006 0.0144149)
(-0.15408 0.218462 0.00564613)
(-0.198458 0.20995 -0.000384784)
(-0.240179 0.210498 -0.00666666)
(-0.277065 0.20739 -0.00964194)
(-0.234243 0.226166 -0.00179403)
(-0.194697 0.203623 -0.00394456)
(-0.217208 0.181449 0.00700544)
(-0.252203 0.160203 0.0152434)
(-0.298993 0.137222 0.0199817)
(-0.34194 0.115054 0.0325487)
(-0.386741 0.0826402 0.0447806)
(-0.424845 0.050025 0.0459938)
(-0.447672 0.0184575 0.0662016)
(-0.47158 -0.0189572 0.0471212)
(-0.477797 -0.0584817 0.0341659)
(-0.460838 -0.0790123 0.0119511)
(-0.419356 -0.0667607 0.00394957)
(-0.372911 -0.0196301 0.00739984)
(-0.286807 0.0649001 -0.00283905)
(-0.15443 0.122003 -0.0314106)
(-0.0406073 0.13646 -0.0145994)
(0.00555726 0.0831456 -0.00361367)
(0.010174 0.106991 -0.0106644)
(0.0816059 0.251356 -0.0404384)
(0.176836 0.322246 -0.0411347)
(0.233003 0.348809 -0.0220278)
(0.258569 0.362964 -0.00375632)
(0.258503 0.375097 0.00583817)
(0.240315 0.387185 0.0120651)
(0.21794 0.396063 0.015405)
(0.197825 0.401634 0.0185652)
(0.175308 0.396443 0.0226786)
(0.151529 0.382071 0.0285009)
(0.119689 0.358523 0.0395065)
(0.0857952 0.326408 0.041099)
(0.0481299 0.294242 0.04916)
(0.0171386 0.258808 0.045983)
(-0.0140289 0.228812 0.0287814)
(-0.0560301 0.210984 0.0176513)
(-0.0885188 0.197302 0.0103716)
(-0.12754 0.192246 0.0027211)
(-0.167395 0.187207 -0.000171467)
(-0.205308 0.185319 -0.00513267)
(-0.223099 0.188374 -0.00445972)
(-0.189138 0.216911 -0.000964553)
(-0.1711 0.186166 -0.0020024)
(-0.189598 0.155287 0.00351662)
(-0.218823 0.12483 0.0110303)
(-0.260181 0.101782 0.0156055)
(-0.302956 0.0728503 0.0334724)
(-0.348808 0.0445626 0.0406259)
(-0.385922 0.0151443 0.0624526)
(-0.433344 -0.0260435 0.0460567)
(-0.474957 -0.0790076 0.0381429)
(-0.491787 -0.123301 0.0235346)
(-0.478528 -0.155567 0.0125267)
(-0.437364 -0.157764 -0.0081159)
(-0.376618 -0.117695 -0.00727056)
(-0.29305 -0.0165261 -0.00124417)
(-0.172241 0.0794721 -0.0173394)
(-0.0450646 0.12117 -0.0204516)
(0.00687627 0.0825757 -0.00233025)
(0.00905238 0.11772 -0.00843258)
(0.0807114 0.276312 -0.0396092)
(0.176975 0.351959 -0.0423709)
(0.23952 0.375874 -0.0228185)
(0.272209 0.382358 -0.00240904)
(0.277756 0.381703 0.0115683)
(0.26619 0.384449 0.0213042)
(0.249287 0.387288 0.0240178)
(0.230735 0.386344 0.0267478)
(0.207043 0.376093 0.0288838)
(0.180417 0.35805 0.030591)
(0.148991 0.329173 0.029102)
(0.112123 0.29863 0.0300328)
(0.073445 0.2623 0.0318838)
(0.0354054 0.236202 0.0351051)
(0.0036082 0.203039 0.0234045)
(-0.0301848 0.186429 0.0120522)
(-0.0625185 0.176497 0.00728934)
(-0.0955356 0.168388 0.00090364)
(-0.133397 0.16297 -0.000379614)
(-0.159513 0.161432 -0.00170296)
(-0.158388 0.182691 0.00262456)
(-0.142414 0.19127 0.000310481)
(-0.152857 0.161073 -0.000298227)
(-0.166733 0.128579 0.00278897)
(-0.185095 0.0931339 0.00693055)
(-0.22036 0.0661872 0.0197664)
(-0.2593 0.0363222 0.0287427)
(-0.29779 0.0102316 0.0479619)
(-0.35053 -0.0279107 0.0411366)
(-0.407797 -0.0803277 0.038657)
(-0.455924 -0.131452 0.0286034)
(-0.485892 -0.182863 0.0177986)
(-0.488698 -0.22351 0.00216998)
(-0.454307 -0.242374 -0.0133817)
(-0.387879 -0.211865 -0.021437)
(-0.297769 -0.122492 -0.0188118)
(-0.181548 0.0217677 0.00112774)
(-0.0543496 0.100281 -0.0269633)
(0.00581221 0.0853546 -0.00365486)
(0.00670521 0.0975432 -0.00880838)
(0.0744617 0.269673 -0.0398302)
(0.170997 0.351313 -0.0417251)
(0.238155 0.375845 -0.0223609)
(0.278018 0.377115 0.00105896)
(0.292122 0.37228 0.0151658)
(0.288007 0.370671 0.021396)
(0.272146 0.365629 0.0251129)
(0.252807 0.357572 0.027548)
(0.230253 0.345026 0.0284691)
(0.203688 0.324764 0.0281254)
(0.170342 0.299874 0.0249851)
(0.131969 0.268055 0.0204957)
(0.093646 0.237802 0.0140625)
(0.0556759 0.210965 0.0188994)
(0.0225405 0.190764 0.0130823)
(-0.00425834 0.170803 0.00758306)
(-0.0320866 0.160154 0.00260076)
(-0.0652099 0.148129 -0.000700546)
(-0.0929639 0.146771 0.000350205)
(-0.0978532 0.15687 0.00365568)
(-0.100573 0.167748 0.00432788)
(-0.111918 0.156899 0.00313791)
(-0.129216 0.13145 0.00239122)
(-0.146087 0.107657 0.00287587)
(-0.160801 0.0688161 0.0056156)
(-0.185859 0.0395198 0.0148923)
(-0.215862 0.0101488 0.0315325)
(-0.258872 -0.0234879 0.0313236)
(-0.313805 -0.0699713 0.034224)
(-0.369479 -0.118163 0.0304215)
(-0.422227 -0.174841 0.0259664)
(-0.460606 -0.233273 0.0157285)
(-0.476871 -0.288143 0.00218462)
(-0.455183 -0.320872 -0.0152224)
(-0.39601 -0.31022 -0.0279854)
(-0.291832 -0.231054 -0.0315785)
(-0.181431 -0.078214 -0.019265)
(-0.0607167 0.0549487 -0.0194467)
(0.00751445 0.074176 -0.00797233)
(0.00727095 0.105991 -0.00358482)
(0.073496 0.284652 -0.0340469)
(0.168855 0.370132 -0.0389694)
(0.242351 0.392277 -0.0183452)
(0.291765 0.387907 0.00640472)
(0.315363 0.37429 0.0152934)
(0.314058 0.364713 0.0232098)
(0.298905 0.353691 0.0249315)
(0.281996 0.343942 0.0239743)
(0.258946 0.327369 0.0214213)
(0.233005 0.304858 0.0184389)
(0.199119 0.276457 0.0138642)
(0.158845 0.246664 0.00970416)
(0.119546 0.216632 0.00622258)
(0.0821047 0.193329 0.00456336)
(0.0482376 0.175785 0.00348994)
(0.018291 0.163866 0.000675693)
(-0.00684578 0.153162 -0.000726063)
(-0.0277541 0.148166 -0.000363951)
(-0.0395636 0.149496 0.00166784)
(-0.0496508 0.152624 0.0041267)
(-0.0662147 0.139981 0.00620872)
(-0.0836473 0.125267 0.00581577)
(-0.10366 0.1045 0.00486691)
(-0.126037 0.0838322 0.00703304)
(-0.14187 0.053425 0.00573579)
(-0.157122 0.0182082 0.0142414)
(-0.187548 -0.0146573 0.0156376)
(-0.228286 -0.0565711 0.0206347)
(-0.277552 -0.0984969 0.0220121)
(-0.33199 -0.146374 0.0235696)
(-0.385006 -0.202554 0.0213709)
(-0.427911 -0.264302 0.0155277)
(-0.453333 -0.329711 0.00353843)
(-0.444091 -0.379035 -0.0129721)
(-0.395164 -0.391934 -0.0300447)
(-0.302003 -0.327997 -0.0435675)
(-0.186724 -0.179619 -0.0325345)
(-0.0591196 0.0119587 -0.00885505)
(0.00661313 0.073192 -0.0123472)
(-0.00299038 0.0780222 -0.0152391)
(0.0523375 0.265107 -0.0405065)
(0.149317 0.36094 -0.0463472)
(0.230415 0.385416 -0.0263579)
(0.28948 0.383056 -0.00467825)
(0.324558 0.362788 0.00868745)
(0.334561 0.345947 0.0148394)
(0.323037 0.327491 0.0154919)
(0.303955 0.314375 0.0141531)
(0.27793 0.303535 0.0106198)
(0.249145 0.290376 0.00770414)
(0.215006 0.271821 0.00459055)
(0.175647 0.250151 0.00204245)
(0.138669 0.228428 0.000288141)
(0.105492 0.20783 0.00105878)
(0.0770875 0.197024 0.00154382)
(0.0536378 0.189854 -0.00427976)
(0.0328261 0.180946 -0.00262299)
(0.0135633 0.172957 -0.00175763)
(-0.00389574 0.161331 0.00245548)
(-0.0211773 0.140219 0.00520515)
(-0.0408058 0.120897 0.00758273)
(-0.0598195 0.101153 0.00692511)
(-0.0813027 0.0820695 0.00699273)
(-0.10424 0.0628953 0.00428028)
(-0.12714 0.0422382 0.00352655)
(-0.144801 0.00781284 0.00247723)
(-0.168669 -0.0282029 0.00512744)
(-0.203218 -0.0661525 0.00845444)
(-0.243682 -0.111696 0.0124907)
(-0.290388 -0.163971 0.0146593)
(-0.339354 -0.228888 0.014462)
(-0.384394 -0.299758 0.0101953)
(-0.416848 -0.378544 0.000819115)
(-0.419598 -0.44402 -0.0138807)
(-0.380379 -0.474441 -0.0311627)
(-0.290838 -0.43178 -0.0552816)
(-0.178685 -0.302567 -0.0508304)
(-0.0533679 -0.0745109 -0.017128)
(0.00674117 0.049554 -0.00421559)
(-0.00357774 0.151697 -0.00551772)
(0.0485328 0.355507 -0.0202622)
(0.139181 0.454617 -0.0311836)
(0.223366 0.476271 -0.0116351)
(0.290836 0.464548 -0.00444563)
(0.332159 0.43258 0.0123378)
(0.347985 0.396883 0.015908)
(0.342902 0.382931 0.0183403)
(0.338057 0.388238 0.0145868)
(0.32063 0.389521 0.0101008)
(0.292849 0.381389 0.00431148)
(0.255179 0.36185 0.000292299)
(0.213248 0.33312 -0.00280538)
(0.171567 0.303293 -0.00348133)
(0.13897 0.273335 -0.00286562)
(0.11365 0.247694 0.00109932)
(0.083243 0.225699 -0.00384676)
(0.056691 0.205927 -0.00772565)
(0.0339984 0.181427 -0.00480062)
(0.00952234 0.157749 -0.00258867)
(-0.00881595 0.132699 0.00445207)
(-0.0248605 0.106083 0.00638176)
(-0.0424405 0.0853436 0.00733281)
(-0.0611544 0.0642398 0.00856924)
(-0.0824047 0.0441195 0.0022227)
(-0.10825 0.024465 0.00240521)
(-0.130321 0.00222847 0.00155834)
(-0.151782 -0.0318607 -0.00390695)
(-0.185148 -0.0711674 -0.00540788)
(-0.226678 -0.115196 -0.00352322)
(-0.272905 -0.158676 0.00176654)
(-0.317146 -0.214892 0.00680921)
(-0.358302 -0.28322 0.00849594)
(-0.390589 -0.367287 0.00335435)
(-0.394406 -0.448838 -0.0103795)
(-0.366425 -0.517605 -0.0350746)
(-0.304034 -0.51636 -0.0657709)
(-0.19076 -0.389594 -0.0598449)
(-0.0494062 -0.170805 -0.0364476)
(0.00930894 0.0268031 -0.00466133)
(-0.0180834 0.2355 -0.0236581)
(0.019007 0.476032 -0.0431103)
(0.108945 0.585792 -0.0514726)
(0.19441 0.625043 -0.0368)
(0.266386 0.615909 -0.0258716)
(0.315206 0.58593 -0.00903509)
(0.358271 0.541577 0.000786861)
(0.39197 0.5161 0.00118131)
(0.390737 0.504451 -0.00501979)
(0.355219 0.483794 -0.00913625)
(0.310257 0.455271 -0.0109533)
(0.259141 0.418839 -0.0117584)
(0.210968 0.376471 -0.0113124)
(0.17117 0.333718 -0.00986896)
(0.138036 0.293665 -0.007671)
(0.112974 0.254762 -0.0037005)
(0.0932151 0.220829 0.000631468)
(0.0687925 0.192404 -0.00219603)
(0.0442309 0.169111 -0.00404439)
(0.0252556 0.141751 -0.00179134)
(0.003352 0.119861 0.00136469)
(-0.0135061 0.0936743 0.00553235)
(-0.0277752 0.07055 0.00676391)
(-0.0482971 0.0479266 0.00647483)
(-0.0674932 0.0258416 0.00311378)
(-0.0879892 0.00519297 0.00673676)
(-0.112818 -0.0104914 0.00593023)
(-0.14232 -0.0340842 0.00393111)
(-0.17017 -0.0642077 0.00151597)
(-0.191932 -0.107446 -0.0024567)
(-0.22212 -0.159524 -0.00867156)
(-0.261292 -0.233027 -0.0145697)
(-0.303204 -0.319517 -0.018616)
(-0.340951 -0.428613 -0.0238795)
(-0.369699 -0.530249 -0.0323082)
(-0.368241 -0.631245 -0.0490689)
(-0.295903 -0.65857 -0.0720003)
(-0.215112 -0.550299 -0.0861618)
(-0.0829329 -0.266049 -0.0464)
(0.0143218 0.00820727 -0.00457822)
(0.000414904 0.205768 0.00128806)
(0.0386676 0.449347 -0.0360184)
(0.113013 0.574825 -0.0485517)
(0.198143 0.631533 -0.0444372)
(0.26918 0.636486 -0.0363546)
(0.319642 0.617353 -0.0250464)
(0.359108 0.581213 -0.0180857)
(0.388277 0.539084 -0.00857432)
(0.388716 0.49728 -0.010112)
(0.355522 0.460455 -0.00912305)
(0.313615 0.424336 -0.00863392)
(0.264599 0.387725 -0.00677463)
(0.217726 0.348327 -0.00520101)
(0.177901 0.311495 -0.00308997)
(0.147118 0.274399 -0.00261795)
(0.124979 0.240829 0.000110134)
(0.10201 0.205944 0.00140965)
(0.084051 0.174923 0.00404641)
(0.0603201 0.153262 0.00390383)
(0.0346741 0.129949 -0.000805322)
(0.0154132 0.107315 0.00200707)
(-0.0035529 0.0836978 0.00407609)
(-0.0184753 0.0590174 0.00722297)
(-0.0358844 0.0358236 0.00676114)
(-0.0532152 0.017151 0.00575002)
(-0.0690474 -0.00351476 0.00905247)
(-0.0877102 -0.0197224 0.00914548)
(-0.113917 -0.0364575 0.00608772)
(-0.152175 -0.0504501 0.00299506)
(-0.193622 -0.0796511 0.00343463)
(-0.239847 -0.123683 0.00616137)
(-0.281866 -0.192135 0.008308)
(-0.318153 -0.279149 0.00778948)
(-0.333338 -0.410245 9.09877e-05)
(-0.338883 -0.555294 -0.0110304)
(-0.332203 -0.696794 -0.0235366)
(-0.276933 -0.774758 -0.0459756)
(-0.166257 -0.748019 -0.0626948)
(-0.0453325 -0.46175 -0.0669395)
(0.00564706 -0.0963204 0.00646809)
(0.000402862 0.221119 -0.001294)
(0.037215 0.439848 -0.0317565)
(0.105202 0.563559 -0.0426614)
(0.183262 0.62006 -0.0406213)
(0.252824 0.626107 -0.026166)
(0.305983 0.604555 -0.0199808)
(0.351007 0.566553 -0.0107223)
(0.384654 0.526198 -0.00383962)
(0.388992 0.481953 -0.0037619)
(0.359907 0.446659 -0.0027152)
(0.316502 0.410948 -0.00204971)
(0.265192 0.372744 -0.000740955)
(0.219648 0.334822 0.000355108)
(0.183376 0.29842 0.00115671)
(0.152977 0.263879 0.00176766)
(0.128609 0.228137 0.00337436)
(0.108978 0.192978 0.00496623)
(0.0948981 0.158378 0.00706825)
(0.0749137 0.131567 0.00738427)
(0.0520219 0.111098 0.00805294)
(0.0272042 0.0924164 0.00389379)
(0.0064437 0.0701198 0.00383315)
(-0.00821662 0.0469436 0.00974693)
(-0.0224767 0.026453 0.00779528)
(-0.0376319 0.00599969 0.00695542)
(-0.0526302 -0.0119006 0.0089869)
(-0.0682445 -0.0317827 0.00961107)
(-0.0871147 -0.0527463 0.00973292)
(-0.114573 -0.0691305 0.00798164)
(-0.146899 -0.0872734 0.0057619)
(-0.187502 -0.105163 0.00565464)
(-0.231316 -0.143096 0.00597397)
(-0.293144 -0.195958 0.00838829)
(-0.348519 -0.292236 0.0124518)
(-0.373085 -0.416358 0.0120821)
(-0.371405 -0.573451 0.00710756)
(-0.328862 -0.69268 -0.00692975)
(-0.22833 -0.722403 -0.0298649)
(-0.0608198 -0.511911 -0.0435654)
(0.0248987 -0.0872677 -0.0216952)
(0.00671422 0.196116 -0.0018616)
(0.0455448 0.394629 -0.0256413)
(0.107141 0.526396 -0.0353941)
(0.181736 0.588125 -0.0346489)
(0.248634 0.604883 -0.0224526)
(0.30067 0.587496 -0.0147632)
(0.34721 0.551666 -0.0055471)
(0.378567 0.508434 0.000585925)
(0.384952 0.458891 0.00102646)
(0.361082 0.418021 0.00134922)
(0.31713 0.378499 0.00215337)
(0.268277 0.341288 0.00395055)
(0.226031 0.307107 0.00481489)
(0.191519 0.273671 0.00551891)
(0.161893 0.241185 0.00534794)
(0.138454 0.208219 0.00611322)
(0.114777 0.176752 0.0071772)
(0.10225 0.141821 0.0104775)
(0.0891225 0.112661 0.0121457)
(0.0679864 0.090472 0.0111745)
(0.0439199 0.0769593 0.0103221)
(0.0185875 0.0568342 0.00931019)
(0.00452671 0.0386243 0.00742211)
(-0.0099065 0.0192359 0.00809581)
(-0.0233604 -0.00128285 0.00896903)
(-0.0362559 -0.0199047 0.0085996)
(-0.0538684 -0.0375044 0.00893064)
(-0.0696492 -0.0605359 0.00942215)