/*--------------------------------*- C++ -*----------------------------------*\
| =========                 |                                                 |
| \\      /  F ield         | OpenFOAM: The Open Source CFD Toolbox           |
|  \\    /   O peration     | Version:  v1806                                 |
|   \\  /    A nd           | Web:      www.OpenFOAM.com                      |
|    \\/     M anipulation  |                                                 |
\*---------------------------------------------------------------------------*/
FoamFile
{
    version     2.0;
    format      ascii;
    class       volVectorField;
    location    "0.0885";
    object      U_0;
}
// * * * * * * * * * * * * * * * * * * * * * * * * * * * * * * * * * * * * * //

dimensions      [0 1 -1 0 0 0 0];


internalField   nonuniform List<vector> 
64000
(
(-0.0100572 -0.0116051 -0.00808366)
(0.0149318 -0.0113235 -0.00560869)
(0.0211048 -0.00380948 0.000376921)
(0.0257351 -0.00327645 0.00112654)
(0.0269465 -0.00232254 0.00146053)
(0.0272999 -0.00270058 0.00208235)
(0.02686 -0.0036916 0.00228322)
(0.0235989 -0.00403732 0.00276146)
(0.0223779 -0.00499354 0.00414307)
(0.0154096 -0.00465023 0.00373011)
(0.00979719 -0.00522705 0.00562311)
(-0.00257659 -0.00816123 0.00662771)
(-0.0207234 -0.0124611 0.00601069)
(-0.0450695 -0.0175187 0.00384884)
(-0.0732347 -0.0180418 0.00479425)
(-0.109651 -0.0170061 0.00241535)
(-0.137531 2.653e-05 0.00154547)
(-0.18263 -0.00446175 -0.00279269)
(-0.180896 -0.00954965 0.00497881)
(-0.242014 -0.0272114 -0.014337)
(-0.212784 -0.0212709 -0.021425)
(-0.106485 -0.0229863 -0.038257)
(-0.109301 -0.0080511 -0.0254341)
(-0.107263 -0.00303604 -0.0371501)
(-0.124908 0.00314517 -0.0481611)
(-0.11906 0.0113251 -0.0577819)
(-0.107477 0.0213996 -0.0624467)
(-0.0711693 0.0322137 -0.0586332)
(-0.0371545 0.0391129 -0.0540751)
(0.00655033 0.0510311 -0.0393253)
(0.0516699 0.0478331 -0.0319984)
(0.0877632 0.0383114 -0.0246264)
(0.104022 0.0278915 -0.0125083)
(0.10085 0.0142649 -0.00508521)
(0.0872624 0.00571703 0.00109145)
(0.0688584 -0.00228187 0.00369935)
(0.0497961 -0.00626842 0.00479823)
(0.0297119 -0.00561024 0.00564098)
(0.0158252 -0.00412766 0.00611717)
(0.00206841 -0.00267284 0.00399155)
(-0.00720623 0.00223413 -0.00446438)
(0.00875048 -0.0163306 -0.00422274)
(0.0240186 -0.0105944 -0.00182946)
(0.0344643 -0.0070867 -0.000927933)
(0.0401124 -0.00241084 -0.0013518)
(0.0401927 -0.000474773 -0.001728)
(0.0389584 0.00350266 -0.00321177)
(0.0318393 0.0050542 -0.00291845)
(0.0247439 0.0105421 -0.00719676)
(0.00729843 0.0162604 -0.00413926)
(-0.0164433 0.0248958 -0.00824276)
(-0.0535382 0.0320387 0.000750826)
(-0.10058 0.0426027 -0.0040407)
(-0.152978 0.0621248 -0.00681506)
(-0.211201 0.0755427 -0.0113509)
(-0.269336 0.0844871 -0.0182569)
(-0.34727 0.0929862 -0.0437882)
(-0.452849 0.0950942 -0.0587282)
(-0.499055 0.101275 -0.0762448)
(-0.585466 0.100569 -0.0979466)
(-0.539361 0.128014 -0.0953313)
(-0.404857 0.143075 -0.125759)
(-0.389257 0.188438 -0.135646)
(-0.373515 0.212482 -0.145683)
(-0.364345 0.237126 -0.157426)
(-0.325475 0.258505 -0.163682)
(-0.27708 0.279437 -0.165101)
(-0.205033 0.29481 -0.153504)
(-0.129619 0.300976 -0.133673)
(-0.0568095 0.305299 -0.10995)
(0.00727128 0.289718 -0.0766798)
(0.0707272 0.259226 -0.0467289)
(0.108307 0.211154 -0.0389979)
(0.120691 0.159657 -0.0263202)
(0.115744 0.109127 -0.012848)
(0.0971436 0.0694638 -0.00537921)
(0.0778887 0.0409455 -0.00102144)
(0.0534864 0.0261945 -3.61462e-05)
(0.0319628 0.0163656 0.00144531)
(0.00774992 0.00793883 0.00155283)
(-0.000511002 -0.00491677 0.00154928)
(0.0151303 -0.0222273 -0.00192106)
(0.0320061 -0.0169924 -0.00296667)
(0.042785 -0.00492326 -0.00417426)
(0.0450665 0.0047415 -0.00584145)
(0.0429383 0.0159237 -0.00718081)
(0.0357338 0.0310116 -0.00830456)
(0.0215012 0.04518 -0.00980736)
(0.00574099 0.0692686 -0.00183234)
(-0.0245854 0.0900635 -0.00498373)
(-0.0625004 0.116857 -0.00816103)
(-0.115363 0.149236 -0.0132638)
(-0.170237 0.182859 -0.0178108)
(-0.248562 0.211519 -0.0323729)
(-0.344385 0.231517 -0.0356842)
(-0.440915 0.245126 -0.0423471)
(-0.52512 0.250212 -0.0590589)
(-0.613414 0.270025 -0.0777835)
(-0.654444 0.300296 -0.0955438)
(-0.725755 0.335002 -0.116008)
(-0.665674 0.373167 -0.105528)
(-0.504671 0.402846 -0.123804)
(-0.465563 0.459749 -0.125347)
(-0.438632 0.490416 -0.123429)
(-0.420456 0.522553 -0.126357)
(-0.37733 0.544049 -0.124877)
(-0.32843 0.558432 -0.120286)
(-0.262246 0.561594 -0.10509)
(-0.19618 0.551546 -0.0829385)
(-0.130254 0.531382 -0.0594575)
(-0.0747733 0.499756 -0.0400204)
(-0.0304268 0.452096 -0.0278503)
(0.00307634 0.379559 -0.017197)
(0.0253252 0.306909 -0.0086256)
(0.0388056 0.227409 -0.0107734)
(0.0452347 0.162722 -0.0109297)
(0.045861 0.115256 -0.0072907)
(0.0372269 0.0783083 -0.0050742)
(0.0265503 0.0521833 -0.001406)
(0.00770405 0.0258427 0.00131917)
(0.000689877 -0.00904153 0.00196815)
(0.0174808 -0.0233437 -0.00122789)
(0.0383083 -0.0106863 -0.00376854)
(0.0459201 0.0063518 -0.00694472)
(0.0440086 0.0302722 -0.00767856)
(0.0399609 0.0547783 -0.00927613)
(0.0272654 0.0900408 -0.00905167)
(0.0087001 0.122808 -0.00588335)
(-0.0183504 0.167476 -0.0106109)
(-0.0641871 0.20751 -0.0130188)
(-0.1101 0.251711 -0.0173633)
(-0.174938 0.288868 -0.0249778)
(-0.258802 0.31781 -0.0274281)
(-0.349525 0.334544 -0.0291345)
(-0.43551 0.355661 -0.0318228)
(-0.514914 0.379055 -0.0365164)
(-0.583291 0.409381 -0.0516094)
(-0.658458 0.438203 -0.061557)
(-0.685531 0.479917 -0.0710388)
(-0.74287 0.524905 -0.0777626)
(-0.671962 0.558213 -0.0472039)
(-0.489992 0.578809 -0.0456881)
(-0.436607 0.621105 -0.0401351)
(-0.409909 0.627707 -0.0294873)
(-0.392803 0.640931 -0.0272504)
(-0.358833 0.641226 -0.0222887)
(-0.321602 0.633851 -0.018822)
(-0.272108 0.615024 -0.0112112)
(-0.223639 0.589328 0.00076194)
(-0.177953 0.556569 0.00799625)
(-0.146781 0.515702 0.0129408)
(-0.121429 0.47112 0.0116416)
(-0.0976441 0.4121 0.00581774)
(-0.0752974 0.349482 -0.00220765)
(-0.0518833 0.269795 -0.00578229)
(-0.0218786 0.202151 -0.0106149)
(-0.00102641 0.147392 -0.0108202)
(0.00796288 0.111186 -0.00809238)
(0.0162591 0.0780696 -0.00358572)
(0.00609514 0.0381829 0.00103293)
(0.00107069 -0.00930538 0.000681333)
(0.0233758 -0.012495 -0.00417297)
(0.0456733 0.00437848 -0.007783)
(0.0544692 0.0387301 -0.00872117)
(0.0519835 0.0759884 -0.00833487)
(0.046168 0.121787 -0.0155947)
(0.0279622 0.176438 -0.0134039)
(9.16389e-05 0.236175 -0.0065022)
(-0.0328168 0.292305 -0.00801509)
(-0.0860516 0.339414 -0.0101496)
(-0.146281 0.376679 -0.012934)
(-0.224817 0.396706 -0.0155811)
(-0.299445 0.419325 -0.0163867)
(-0.374411 0.444096 -0.0214783)
(-0.446678 0.474134 -0.0208391)
(-0.514536 0.506763 -0.0215311)
(-0.570043 0.534837 -0.0255955)
(-0.626354 0.570212 -0.0232307)
(-0.633835 0.61667 -0.0177956)
(-0.676448 0.663385 -0.0261166)
(-0.606905 0.691213 0.00460947)
(-0.418633 0.696492 0.0165455)
(-0.360786 0.709576 0.0277416)
(-0.343482 0.68282 0.0365618)
(-0.338424 0.665986 0.0368127)
(-0.323724 0.63962 0.0425732)
(-0.306502 0.607728 0.0437982)
(-0.275536 0.570847 0.047827)
(-0.247701 0.529738 0.0410581)
(-0.222119 0.489983 0.032838)
(-0.202143 0.444908 0.0227103)
(-0.192166 0.411742 0.0154919)
(-0.183673 0.374132 0.00790738)
(-0.177154 0.343307 -0.00411086)
(-0.154091 0.278764 -0.0138082)
(-0.104579 0.209366 -0.0146982)
(-0.0530717 0.161437 -0.0139389)
(-0.0174485 0.131015 -0.0118013)
(0.00254908 0.096863 -0.00629072)
(0.00323095 0.0480116 0.00102077)
(0.0058069 -0.00386217 -0.00012787)
(0.0284221 0.00256798 -0.00678116)
(0.0597983 0.0293093 -0.00647451)
(0.0716862 0.0813419 -0.0101319)
(0.0661804 0.139202 -0.0150825)
(0.0625678 0.202761 -0.0188145)
(0.0462365 0.278119 -0.0140434)
(0.0122538 0.332138 -0.005374)
(-0.0408189 0.377246 -0.00561391)
(-0.111048 0.411319 -0.00777047)
(-0.180382 0.44109 -0.00989634)
(-0.24571 0.468487 -0.0100783)
(-0.305077 0.501956 -0.00835748)
(-0.363671 0.529881 -0.00534012)
(-0.413521 0.559691 0.00035699)
(-0.466016 0.588084 0.00599132)
(-0.49837 0.618136 0.00884688)
(-0.533046 0.649283 0.00852875)
(-0.534723 0.697555 0.0105222)
(-0.564013 0.732568 0.00945051)
(-0.498217 0.757106 0.0385068)
(-0.327262 0.707983 0.0528396)
(-0.285721 0.690126 0.0631296)
(-0.290282 0.632409 0.0748998)
(-0.299979 0.591941 0.0769367)
(-0.304218 0.549087 0.076486)
(-0.303032 0.506406 0.0737784)
(-0.29224 0.464398 0.0673931)
(-0.277826 0.417302 0.0652705)
(-0.266309 0.378762 0.0440271)
(-0.25656 0.335215 0.0326243)
(-0.245535 0.304513 0.0177323)
(-0.231439 0.278593 0.00678356)
(-0.238516 0.266762 -0.00502717)
(-0.241704 0.242499 -0.0168352)
(-0.175813 0.19357 -0.0147438)
(-0.0936818 0.162422 -0.0155306)
(-0.0410077 0.136509 -0.0121353)
(-0.00505183 0.104885 -0.00708077)
(0.00227437 0.051644 0.0015499)
(0.00666504 0.00160593 -0.000891862)
(0.0379586 0.0156927 -0.0102302)
(0.0808085 0.0563318 -0.0104114)
(0.105195 0.111608 -0.0125795)
(0.100209 0.177492 -0.0175161)
(0.0975123 0.250755 -0.0200855)
(0.0588926 0.318253 -0.0133039)
(-0.00507417 0.346895 0.00126149)
(-0.0562563 0.39072 -0.00369932)
(-0.113661 0.428809 -0.0042935)
(-0.162544 0.47366 -0.00431453)
(-0.213635 0.51582 -0.00239138)
(-0.260273 0.555604 0.00103833)
(-0.307503 0.589106 0.00612258)
(-0.347294 0.622207 0.0142197)
(-0.382391 0.647039 0.0195714)
(-0.404891 0.674727 0.0257673)
(-0.423202 0.686632 0.0290744)
(-0.41186 0.712522 0.0272428)
(-0.432306 0.725104 0.0177932)
(-0.42697 0.745188 0.0346046)
(-0.290225 0.638546 0.0560176)
(-0.234836 0.589488 0.0603294)
(-0.256438 0.526839 0.0720757)
(-0.276642 0.484743 0.072104)
(-0.297678 0.446199 0.0712961)
(-0.312404 0.411125 0.0673614)
(-0.318248 0.376519 0.0600239)
(-0.316997 0.339617 0.0467635)
(-0.317498 0.305272 0.0308081)
(-0.31431 0.272157 0.017451)
(-0.306157 0.244126 0.00471793)
(-0.291703 0.22396 -0.00359321)
(-0.286864 0.208473 -0.0108994)
(-0.289914 0.219113 -0.0195531)
(-0.227864 0.194012 -0.0213214)
(-0.128278 0.168189 -0.0222615)
(-0.056364 0.147618 -0.0171777)
(-0.0102343 0.114045 -0.0110388)
(0.0022311 0.056699 -0.000206639)
(0.00726553 0.0079774 -0.00376239)
(0.0454455 0.0344514 -0.0138906)
(0.099411 0.0835488 -0.0139174)
(0.12538 0.139645 -0.0116887)
(0.128251 0.19897 -0.0126248)
(0.117328 0.272294 -0.0136698)
(0.0567088 0.304908 -0.00348896)
(0.00564444 0.35207 0.0044308)
(-0.0262596 0.398386 0.000208602)
(-0.0764775 0.45229 0.00175381)
(-0.118927 0.497053 0.00224765)
(-0.162125 0.535005 0.00883959)
(-0.198505 0.568981 0.0146005)
(-0.230455 0.596282 0.0228541)
(-0.257567 0.622677 0.0272767)
(-0.286718 0.638038 0.0315885)
(-0.304774 0.650178 0.0344925)
(-0.322981 0.64837 0.0338094)
(-0.320408 0.644205 0.0310732)
(-0.333593 0.619068 0.0154075)
(-0.375908 0.624765 0.0170726)
(-0.292653 0.543948 0.036418)
(-0.222653 0.462086 0.0391282)
(-0.244546 0.42052 0.0502874)
(-0.272443 0.385123 0.0536318)
(-0.303662 0.359838 0.0547944)
(-0.328565 0.334248 0.0556615)
(-0.345838 0.30815 0.0481622)
(-0.355878 0.280518 0.038499)
(-0.363114 0.250332 0.0162438)
(-0.364283 0.218811 0.00731926)
(-0.354433 0.194085 -0.00206116)
(-0.339407 0.181376 -0.00946367)
(-0.321369 0.171776 -0.0134718)
(-0.32823 0.193212 -0.0229107)
(-0.277758 0.197496 -0.0212782)
(-0.162386 0.173691 -0.0229036)
(-0.0749228 0.156993 -0.0178007)
(-0.0153818 0.121431 -0.0106414)
(0.00323711 0.0606547 0.000603795)
(0.00591576 0.0211975 -0.00647821)
(0.0538572 0.0657518 -0.0179442)
(0.119794 0.122186 -0.0194659)
(0.152057 0.178071 -0.0137479)
(0.160436 0.23939 -0.0142427)
(0.13119 0.292749 -0.0136833)
(0.0751664 0.326222 -0.00390038)
(0.0348989 0.384608 0.00382998)
(0.00762323 0.42227 0.0100572)
(-0.0268112 0.463292 0.00967719)
(-0.0666076 0.500765 0.0139357)
(-0.098445 0.528667 0.019349)
(-0.124747 0.551836 0.0268676)
(-0.14994 0.565664 0.033247)
(-0.173417 0.570961 0.035573)
(-0.199352 0.567856 0.0360928)
(-0.221512 0.562249 0.0348063)
(-0.248388 0.54575 0.030111)
(-0.269203 0.531778 0.0241067)
(-0.284263 0.496949 0.0101128)
(-0.335991 0.486817 -0.000448746)
(-0.315953 0.457118 0.0109709)
(-0.243022 0.358349 0.0203846)
(-0.243378 0.340035 0.026544)
(-0.276535 0.314992 0.0342595)
(-0.31188 0.300033 0.0383427)
(-0.346146 0.282284 0.0435345)
(-0.370938 0.260575 0.0391785)
(-0.391084 0.237223 0.0236169)
(-0.408014 0.204262 0.00771675)
(-0.409882 0.179446 -0.00211895)
(-0.396641 0.156371 -0.00792305)
(-0.38113 0.143087 -0.0132045)
(-0.352867 0.143651 -0.0219486)
(-0.342157 0.156755 -0.0256044)
(-0.307696 0.192707 -0.0298467)
(-0.198016 0.176684 -0.026713)
(-0.090178 0.166668 -0.0249338)
(-0.0204157 0.131743 -0.0139057)
(0.00416224 0.0671621 -0.00160001)
(0.00771799 0.0371378 -0.00911866)
(0.062924 0.103751 -0.0255361)
(0.138462 0.16434 -0.024508)
(0.17748 0.218291 -0.0149965)
(0.180791 0.273019 -0.0156616)
(0.149929 0.306504 -0.014739)
(0.106583 0.35245 -0.00504827)
(0.0739482 0.399616 0.00670458)
(0.0435667 0.438219 0.0137918)
(0.0188327 0.464845 0.0246222)
(-0.00756316 0.488468 0.0218131)
(-0.038241 0.501824 0.0321616)
(-0.0615547 0.510373 0.0374367)
(-0.0849855 0.502082 0.0430813)
(-0.108151 0.487615 0.0434254)
(-0.135314 0.464726 0.0402713)
(-0.162981 0.442192 0.0348819)
(-0.194265 0.416392 0.0271559)
(-0.226165 0.399627 0.0183476)
(-0.256168 0.38034 0.0044125)
(-0.3085 0.364188 -0.00871728)
(-0.340382 0.363812 -0.00703338)
(-0.275214 0.295335 0.00945576)
(-0.241491 0.285485 0.0117551)
(-0.277631 0.267688 0.0226949)
(-0.313462 0.259759 0.0295881)
(-0.35354 0.241061 0.0390176)
(-0.385849 0.224831 0.0325215)
(-0.414646 0.195284 0.0243246)
(-0.429526 0.168786 0.00865696)
(-0.434837 0.140852 0.00976183)
(-0.42913 0.118775 0.0164446)
(-0.409166 0.0994507 0.0128666)
(-0.383152 0.101058 0.00841432)
(-0.362799 0.114367 -0.0145188)
(-0.330802 0.162674 -0.0254876)
(-0.228427 0.173823 -0.0256885)
(-0.108168 0.166772 -0.0216993)
(-0.026303 0.139483 -0.0130569)
(0.0051173 0.0715479 -0.000433864)
(0.00881661 0.0604684 -0.0117279)
(0.0718612 0.147499 -0.0318214)
(0.156452 0.211607 -0.0310797)
(0.201722 0.261095 -0.0189556)
(0.200491 0.300123 -0.0117729)
(0.17459 0.333172 -0.0149783)
(0.146372 0.373647 -0.00433272)
(0.115416 0.411336 0.00324753)
(0.0902012 0.440348 0.0114407)
(0.0622107 0.461936 0.0273498)
(0.0338813 0.468075 0.0360269)
(0.0159981 0.468858 0.0462354)
(-0.00703591 0.457034 0.0470944)
(-0.0362871 0.435048 0.0494698)
(-0.0634639 0.407337 0.0480949)
(-0.095185 0.375263 0.0419374)
(-0.12795 0.34611 0.0335113)
(-0.164 0.319049 0.0242757)
(-0.199216 0.302575 0.0154193)
(-0.237558 0.289357 0.00251698)
(-0.287808 0.278892 -0.00789326)
(-0.335198 0.282603 -0.0116617)
(-0.280968 0.26245 0.00227455)
(-0.235642 0.249123 0.00325808)
(-0.266232 0.236583 0.0156572)
(-0.304873 0.224765 0.0240002)
(-0.350335 0.209992 0.0331547)
(-0.386976 0.187671 0.0307329)
(-0.419621 0.162206 0.0197742)
(-0.442605 0.132485 0.0292451)
(-0.456415 0.0978551 0.0308462)
(-0.457379 0.0695675 0.0170048)
(-0.442695 0.0542947 0.0121907)
(-0.408458 0.0513881 0.00342653)
(-0.370279 0.065866 -0.00160907)
(-0.339032 0.113959 -0.0238511)
(-0.252759 0.153438 -0.0289028)
(-0.12533 0.163636 -0.0239133)
(-0.0294261 0.143966 -0.0151692)
(0.00448792 0.0767793 -0.00209931)
(0.00989878 0.0791002 -0.0124381)
(0.0778508 0.187262 -0.0358066)
(0.170307 0.254304 -0.0343698)
(0.215385 0.292916 -0.0181551)
(0.219371 0.321064 -0.0103887)
(0.203796 0.353459 -0.0078601)
(0.181027 0.385367 -0.00665536)
(0.154871 0.410052 0.00629008)
(0.128253 0.430684 0.0117858)
(0.104043 0.439703 0.0234019)
(0.0811342 0.443574 0.0353311)
(0.0525478 0.433131 0.0507139)
(0.0266453 0.408522 0.0550422)
(0.00226726 0.374242 0.0548784)
(-0.0291514 0.341962 0.0484845)
(-0.0645865 0.309272 0.0397628)
(-0.101748 0.283129 0.0287651)
(-0.138831 0.260677 0.0192891)
(-0.177268 0.25158 0.0103822)
(-0.220662 0.24057 0.000178439)
(-0.267755 0.236342 -0.00750732)
(-0.312735 0.237064 -0.0118475)
(-0.266008 0.238311 -0.00051712)
(-0.218461 0.222894 -0.00150504)
(-0.246644 0.207545 0.0107126)
(-0.282701 0.192045 0.0197607)
(-0.330936 0.175566 0.0277566)
(-0.371165 0.152797 0.021942)
(-0.408111 0.12563 0.0377177)
(-0.440551 0.0907171 0.0446514)
(-0.461951 0.0567584 0.0381113)
(-0.463472 0.0307978 0.0488796)
(-0.455823 0.00838926 0.0384959)
(-0.436697 0.00468455 0.0347054)
(-0.398116 0.0138188 0.024606)
(-0.354387 0.0602097 0.0031952)
(-0.265841 0.115585 -0.0257199)
(-0.139475 0.151172 -0.0254995)
(-0.0355791 0.14239 -0.0147122)
(0.00559557 0.0796803 -0.00206133)
(0.0105537 0.100918 -0.0115033)
(0.0829131 0.228693 -0.0381359)
(0.17636 0.296552 -0.0372906)
(0.226836 0.325779 -0.0189683)
(0.241602 0.348176 -0.00610315)
(0.233948 0.371912 -0.0004477)
(0.213388 0.394443 0.00382685)
(0.189122 0.409252 0.00472324)
(0.168119 0.419123 0.0147248)
(0.144898 0.421449 0.0253967)
(0.11816 0.412481 0.0347523)
(0.0913155 0.393882 0.0417876)
(0.0581543 0.366124 0.0546498)
(0.0259897 0.330288 0.0548826)
(-0.00277453 0.290024 0.0479857)
(-0.0393952 0.263475 0.0351236)
(-0.0790904 0.239763 0.0229892)
(-0.115269 0.223498 0.0144632)
(-0.154548 0.217906 0.00567609)
(-0.198884 0.209443 -0.000331263)
(-0.240592 0.210011 -0.00665436)
(-0.27735 0.206923 -0.00965763)
(-0.234467 0.226001 -0.00183326)
(-0.194804 0.203339 -0.00397072)
(-0.217098 0.181064 0.00694279)
(-0.252047 0.159801 0.0151936)
(-0.298757 0.136801 0.0199442)
(-0.341676 0.114669 0.0325878)
(-0.386458 0.0822625 0.0447993)
(-0.424514 0.0497667 0.0460619)
(-0.447355 0.0181411 0.0662191)
(-0.471411 -0.0192545 0.0470891)
(-0.477666 -0.0588489 0.0342084)
(-0.46067 -0.0793675 0.0120144)
(-0.419221 -0.0670908 0.00395986)
(-0.372855 -0.0198725 0.00743995)
(-0.286765 0.0646986 -0.00279718)
(-0.154357 0.121765 -0.0313882)
(-0.0405629 0.136229 -0.0145869)
(0.00558655 0.0828349 -0.00359223)
(0.0101419 0.106793 -0.0106493)
(0.0815418 0.251231 -0.0404411)
(0.17674 0.322139 -0.0411338)
(0.23287 0.348675 -0.0220135)
(0.258428 0.362816 -0.0037369)
(0.258314 0.374907 0.00585871)
(0.240062 0.386972 0.0120958)
(0.217654 0.395835 0.0154474)
(0.197503 0.401384 0.0186188)
(0.174954 0.396165 0.0227273)
(0.151127 0.38176 0.0286169)
(0.119241 0.358176 0.0395856)
(0.0853217 0.326007 0.0412048)
(0.0476485 0.29382 0.0492914)
(0.0167341 0.258174 0.0459947)
(-0.0144951 0.228284 0.0287202)
(-0.0565573 0.210351 0.0176616)
(-0.0889707 0.19669 0.0103991)
(-0.128004 0.191558 0.00274173)
(-0.167757 0.186627 -0.000128639)
(-0.205677 0.18464 -0.00513752)
(-0.22314 0.188112 -0.00440725)
(-0.189203 0.216591 -0.00102299)
(-0.171413 0.18586 -0.0020138)
(-0.189623 0.154846 0.00346316)
(-0.218693 0.124336 0.0109796)
(-0.259954 0.101288 0.0156323)
(-0.3027 0.0723729 0.0334829)
(-0.348448 0.0442258 0.0406643)
(-0.385634 0.0147694 0.062426)
(-0.433147 -0.0264584 0.0460496)
(-0.474735 -0.0794188 0.0381636)
(-0.491606 -0.123647 0.0235795)
(-0.478382 -0.155893 0.0125836)
(-0.437246 -0.158092 -0.00804126)
(-0.376491 -0.117986 -0.00725148)
(-0.292979 -0.0167491 -0.00124098)
(-0.172207 0.0793023 -0.017315)
(-0.0449931 0.120974 -0.0204395)
(0.00689743 0.0822891 -0.00232153)
(0.00902073 0.117547 -0.00843317)
(0.0806263 0.276223 -0.0396255)
(0.176841 0.351885 -0.0423804)
(0.239354 0.375774 -0.0228123)
(0.272029 0.382237 -0.00240492)
(0.277531 0.381538 0.011573)
(0.26594 0.384283 0.0213137)
(0.249013 0.387112 0.0240329)
(0.230399 0.386113 0.0267752)
(0.206655 0.375793 0.0289075)
(0.179966 0.357652 0.0306353)
(0.148485 0.328707 0.0291356)
(0.111571 0.298089 0.0301544)
(0.0728002 0.261724 0.0320707)
(0.0348624 0.235549 0.0350463)
(0.00307013 0.202241 0.0232897)
(-0.0307608 0.185724 0.0120457)
(-0.0629995 0.175799 0.00728266)
(-0.0959554 0.167536 0.000929993)
(-0.133769 0.162168 -0.000374753)
(-0.159569 0.160823 -0.00163835)
(-0.158323 0.182325 0.00264956)
(-0.142662 0.19062 0.000306463)
(-0.153105 0.160582 -0.000331225)
(-0.166835 0.128115 0.00273074)
(-0.185009 0.0926139 0.00687727)
(-0.220132 0.0656786 0.0197415)
(-0.258914 0.0359145 0.0287411)
(-0.297435 0.00976059 0.0479263)
(-0.350281 -0.028453 0.0411098)
(-0.407487 -0.0808284 0.0386464)
(-0.455641 -0.131952 0.028603)
(-0.485627 -0.183365 0.0178248)
(-0.488478 -0.223977 0.00220843)
(-0.454129 -0.242823 -0.0133156)
(-0.387755 -0.212265 -0.0214105)
(-0.297623 -0.122883 -0.0187871)
(-0.181435 0.0214753 0.00112292)
(-0.0543214 0.100039 -0.0269422)
(0.00583895 0.0850529 -0.00364404)
(0.00667288 0.0973136 -0.00878109)
(0.0743778 0.26954 -0.0398242)
(0.170857 0.351191 -0.0417175)
(0.237976 0.375679 -0.0223492)
(0.277822 0.376914 0.00106911)
(0.291906 0.372027 0.0151678)
(0.287758 0.370436 0.0213865)
(0.271812 0.365382 0.0251014)
(0.252372 0.35731 0.0275518)
(0.229729 0.344707 0.028486)
(0.203103 0.324382 0.0281629)
(0.169723 0.299404 0.0250071)
(0.131355 0.267514 0.0205334)
(0.0930279 0.237206 0.0141484)
(0.0550352 0.210374 0.0189599)
(0.0220179 0.189902 0.0130408)
(-0.00469519 0.169968 0.00751634)
(-0.0326788 0.159173 0.00254053)
(-0.0657491 0.147217 -0.000668321)
(-0.0930528 0.145948 0.000397711)
(-0.0977817 0.156235 0.00370945)
(-0.100652 0.166906 0.00435447)
(-0.1121 0.156094 0.00312311)
(-0.129366 0.130786 0.00235115)
(-0.146157 0.107078 0.00285749)
(-0.160727 0.0682493 0.0055731)
(-0.185538 0.038889 0.0150518)
(-0.215596 0.00960747 0.031521)
(-0.258662 -0.0240956 0.0312921)
(-0.313548 -0.0704342 0.0341976)
(-0.369233 -0.118599 0.0304145)
(-0.421967 -0.175241 0.0259751)
(-0.460342 -0.233686 0.0157607)
(-0.476619 -0.288533 0.00222452)
(-0.454959 -0.321236 -0.0151731)
(-0.395821 -0.310567 -0.0279571)
(-0.291684 -0.231372 -0.0315474)
(-0.181249 -0.07854 -0.0192725)
(-0.0605634 0.0546938 -0.0194455)
(0.0075532 0.0738173 -0.00799788)
(0.00720429 0.105942 -0.00362755)
(0.0733495 0.28469 -0.0340905)
(0.168656 0.370182 -0.0390115)
(0.242119 0.392296 -0.0183728)
(0.291515 0.387909 0.00636125)
(0.315123 0.37426 0.0152739)
(0.313825 0.364654 0.0231677)
(0.298604 0.3536 0.0248917)
(0.281585 0.343767 0.0239362)
(0.258423 0.327067 0.0213932)
(0.23238 0.304385 0.018427)
(0.198428 0.275848 0.0138521)
(0.158139 0.245952 0.00969314)
(0.118828 0.215874 0.00622675)
(0.0812809 0.192526 0.00463389)
(0.0474491 0.17487 0.00335967)
(0.0175968 0.162907 0.000614159)
(-0.00738901 0.151896 -0.000744675)
(-0.0280028 0.147174 -0.000389148)
(-0.0396557 0.148575 0.00167794)
(-0.0497213 0.151543 0.00412945)
(-0.0663097 0.138927 0.00620734)
(-0.0837274 0.124287 0.00576864)
(-0.10369 0.103671 0.00481017)
(-0.126045 0.0830576 0.00703081)
(-0.141843 0.0528472 0.00570799)
(-0.156878 0.0175775 0.0140357)
(-0.187144 -0.0153024 0.0155353)
(-0.227858 -0.0571461 0.0205419)
(-0.27714 -0.0990541 0.0219357)
(-0.331613 -0.146954 0.0234932)
(-0.384681 -0.203158 0.0213025)
(-0.427589 -0.264888 0.0154879)
(-0.453006 -0.33028 0.00351232)
(-0.443818 -0.379606 -0.0129887)
(-0.394938 -0.392405 -0.030069)
(-0.301839 -0.32845 -0.0436281)
(-0.186564 -0.179901 -0.0325803)
(-0.0590372 0.0117939 -0.00882722)
(0.006613 0.073021 -0.0123115)
(-0.00306186 0.0779578 -0.0152466)
(0.0521883 0.265156 -0.0405124)
(0.149111 0.360986 -0.0463482)
(0.23016 0.385406 -0.0263845)
(0.289205 0.382994 -0.00474177)
(0.324248 0.362682 0.00859798)
(0.334203 0.345809 0.0147616)
(0.322538 0.32735 0.0154184)
(0.303269 0.314188 0.0141165)
(0.277074 0.303219 0.010597)
(0.248218 0.289864 0.00770001)
(0.214109 0.27109 0.00457131)
(0.17485 0.249303 0.0020393)
(0.137931 0.227505 0.000289718)
(0.104676 0.206948 0.00113053)
(0.0763993 0.196185 0.00135812)
(0.0528453 0.188829 -0.00439174)
(0.0322013 0.179561 -0.00258929)
(0.0133712 0.171607 -0.00180726)
(-0.00406635 0.159876 0.00240487)
(-0.0212322 0.138826 0.00515644)
(-0.0407844 0.119617 0.00751946)
(-0.0597734 0.10001 0.00683038)
(-0.0812399 0.0811229 0.00688577)
(-0.104054 0.0620365 0.00403173)
(-0.126919 0.041486 0.00340501)
(-0.144543 0.00731467 0.00239052)
(-0.168338 -0.0286764 0.00501766)
(-0.202924 -0.0664962 0.00836722)
(-0.243434 -0.111903 0.012429)
(-0.290191 -0.16409 0.0146278)
(-0.339108 -0.229129 0.0144531)
(-0.384089 -0.300132 0.0101748)
(-0.416535 -0.378924 0.000802448)
(-0.419233 -0.444335 -0.0138647)
(-0.380024 -0.474685 -0.0311932)
(-0.290459 -0.432138 -0.0552222)
(-0.178243 -0.302917 -0.0509588)
(-0.0530525 -0.0750253 -0.0172453)
(0.00682916 0.0490659 -0.00430515)
(-0.00365717 0.152144 -0.00556592)
(0.0483706 0.356143 -0.0203262)
(0.138947 0.455268 -0.031228)
(0.223055 0.476956 -0.0116744)
(0.290471 0.465252 -0.00447977)
(0.331804 0.43335 0.0123277)
(0.347661 0.397702 0.0159136)
(0.342506 0.383655 0.0183209)
(0.337435 0.388643 0.0145521)
(0.319738 0.389584 0.0100608)
(0.291769 0.38109 0.00428266)
(0.254129 0.361157 0.000290261)
(0.212338 0.332146 -0.00279184)
(0.170811 0.302173 -0.00345465)
(0.138221 0.272148 -0.0028494)
(0.112717 0.246513 0.0011355)
(0.0820103 0.224258 -0.00416426)
(0.0558299 0.204495 -0.00776829)
(0.0336923 0.179585 -0.00491447)
(0.00939522 0.156001 -0.00265835)
(-0.00870877 0.131112 0.00431232)
(-0.0246984 0.104594 0.00627899)
(-0.0421742 0.0840869 0.0072164)
(-0.0608864 0.0631218 0.0084528)
(-0.0822058 0.0430492 0.00193314)
(-0.107846 0.023538 0.00240254)
(-0.129783 0.00164727 0.00155599)
(-0.151206 -0.0322248 -0.00387299)
(-0.18443 -0.0715748 -0.00551504)
(-0.22603 -0.115693 -0.00373061)
(-0.272573 -0.159322 0.00143641)
(-0.317112 -0.215269 0.00657093)
(-0.35818 -0.283473 0.00835267)
(-0.390254 -0.367488 0.00323087)
(-0.39405 -0.4491 -0.0105658)
(-0.366285 -0.517794 -0.0354151)
(-0.303993 -0.516374 -0.066013)
(-0.19077 -0.389628 -0.0599991)
(-0.0494189 -0.170225 -0.036591)
(0.00936249 0.0270214 -0.00469398)
(-0.0180981 0.235982 -0.0236273)
(0.0189514 0.476537 -0.0431622)
(0.108852 0.586314 -0.0515268)
(0.1943 0.625621 -0.0369025)
(0.266266 0.616553 -0.0259887)
(0.315052 0.586671 -0.00919115)
(0.357857 0.542414 0.000670009)
(0.391 0.516855 0.00106848)
(0.389343 0.504847 -0.0050714)
(0.35364 0.483862 -0.00915109)
(0.308565 0.45501 -0.0109278)
(0.257568 0.418238 -0.0117317)
(0.209748 0.375562 -0.0112791)
(0.170224 0.33261 -0.00983736)
(0.137165 0.292298 -0.00764256)
(0.112036 0.253319 -0.00370833)
(0.0921781 0.219242 0.000616962)
(0.0677745 0.190937 -0.00253005)
(0.0437287 0.167302 -0.00413888)
(0.0253431 0.139944 -0.00194574)
(0.0035622 0.118077 0.00115662)
(-0.0131425 0.0922603 0.0053815)
(-0.0273434 0.0691384 0.00656747)
(-0.0480314 0.0466593 0.00619301)
(-0.0671008 0.0248453 0.00320598)
(-0.0872623 0.00457071 0.00682031)
(-0.11198 -0.011064 0.00595931)
(-0.141801 -0.0344468 0.00395104)
(-0.169993 -0.0645505 0.00166449)
(-0.191903 -0.107678 -0.0022265)
(-0.221782 -0.159687 -0.00837249)
(-0.260617 -0.232982 -0.0144907)
(-0.302664 -0.319607 -0.0187106)
(-0.34055 -0.429131 -0.0240725)
(-0.369182 -0.531203 -0.0324723)
(-0.367549 -0.632237 -0.0492965)
(-0.29533 -0.659599 -0.0722468)
(-0.214096 -0.551135 -0.0862906)
(-0.0824194 -0.267089 -0.0469955)
(0.0140834 0.00766522 -0.00474552)
(0.000399984 0.206014 0.00133495)
(0.0386228 0.449538 -0.0359532)
(0.112903 0.574994 -0.0484759)
(0.197969 0.631658 -0.0443477)
(0.268961 0.636564 -0.0362668)
(0.319416 0.617373 -0.0249531)
(0.358722 0.58122 -0.0179797)
(0.387374 0.539225 -0.00852403)
(0.387346 0.497411 -0.0100454)
(0.353916 0.46049 -0.00906031)
(0.311821 0.424183 -0.00857102)
(0.26287 0.387322 -0.00673419)
(0.216292 0.347761 -0.00519409)
(0.176679 0.310692 -0.00314251)
(0.146028 0.273319 -0.00268303)
(0.123824 0.239518 1.49075e-05)
(0.100756 0.204455 0.00126375)
(0.0829736 0.173436 0.00386009)
(0.0596839 0.151719 0.00361456)
(0.0345838 0.1282 -0.000965849)
(0.0159246 0.105667 0.00182133)
(-0.00300652 0.0822404 0.00378754)
(-0.018047 0.0577569 0.00713638)
(-0.0351857 0.0347451 0.0067113)
(-0.0523549 0.0164593 0.00572195)
(-0.0682045 -0.00398026 0.00899257)
(-0.0868934 -0.0202116 0.00912832)
(-0.113093 -0.0368675 0.00612085)
(-0.151319 -0.0506473 0.00302305)
(-0.192806 -0.0794273 0.00343628)
(-0.239272 -0.123116 0.00612724)
(-0.281823 -0.191433 0.00833744)
(-0.318669 -0.278331 0.00792365)
(-0.33392 -0.408973 0.000376361)
(-0.338913 -0.553577 -0.0107791)
(-0.331949 -0.695157 -0.0233666)
(-0.27655 -0.773491 -0.0457127)
(-0.166076 -0.747074 -0.0625823)
(-0.0449186 -0.461579 -0.0666063)
(0.00618089 -0.0960433 0.00642196)
(0.000390545 0.221439 -0.00124337)
(0.0371886 0.440132 -0.0316699)
(0.105148 0.563808 -0.0425629)
(0.183155 0.620309 -0.0405086)
(0.252668 0.626323 -0.02607)
(0.305767 0.60476 -0.0198545)
(0.350657 0.566712 -0.0105827)
(0.383739 0.526444 -0.00374829)
(0.387447 0.482146 -0.00364912)
(0.358028 0.446686 -0.00261784)
(0.314383 0.410673 -0.0019724)
(0.26323 0.372331 -0.000698034)
(0.218056 0.334288 0.000321918)
(0.181941 0.297708 0.00108037)
(0.151617 0.26292 0.00167388)
(0.127274 0.226928 0.00325331)
(0.107773 0.191643 0.00479659)
(0.093835 0.157095 0.00682214)
(0.0741624 0.130294 0.00708868)
(0.052019 0.109738 0.00781188)
(0.0277206 0.0909908 0.00369608)
(0.00720993 0.0689844 0.00359654)
(-0.00739183 0.0460379 0.00955133)
(-0.0216274 0.0258438 0.00770567)
(-0.0366094 0.00537416 0.00687815)
(-0.0516838 -0.0123297 0.00890619)
(-0.0673339 -0.0321726 0.0095595)
(-0.0862867 -0.0530503 0.00971595)
(-0.113741 -0.0694614 0.00803605)
(-0.146084 -0.0875674 0.00583621)
(-0.186671 -0.105472 0.00574024)
(-0.230393 -0.14311 0.00602748)
(-0.292081 -0.195585 0.00836292)
(-0.347372 -0.290951 0.0123179)
(-0.372406 -0.414481 0.0119181)
(-0.371313 -0.571294 0.00703004)
(-0.328988 -0.690411 -0.00697462)
(-0.228402 -0.720284 -0.029874)
(-0.0607233 -0.509761 -0.043648)
(0.0250362 -0.0857737 -0.0218466)
(0.00672339 0.196293 -0.00179486)
(0.0455094 0.394762 -0.0255863)
(0.107058 0.526497 -0.0353026)
(0.181619 0.588213 -0.0345563)
(0.24848 0.604934 -0.022344)
(0.300483 0.587506 -0.0146711)
(0.34692 0.551656 -0.00544026)
(0.377722 0.508413 0.000659626)
(0.383377 0.458926 0.0011392)
(0.359016 0.417934 0.0014518)
(0.314913 0.378297 0.00225635)
(0.266313 0.341148 0.00397184)
(0.224325 0.306896 0.00477093)
(0.189896 0.273318 0.00543273)
(0.160324 0.240638 0.00524733)
(0.136936 0.20749 0.00598336)
(0.113457 0.175944 0.00701164)
(0.101242 0.14102 0.01026)
(0.0884221 0.112073 0.011752)
(0.0677586 0.0897645 0.010789)
(0.0446718 0.0761243 0.0100112)
(0.0196697 0.0561441 0.00905267)
(0.00549546 0.0380847 0.00700668)
(-0.00891362 0.0189264 0.00780651)
(-0.0223061 -0.00148455 0.00886213)
(-0.0351618 -0.0201584 0.00846963)