/*--------------------------------*- C++ -*----------------------------------*\
| =========                 |                                                 |
| \\      /  F ield         | OpenFOAM: The Open Source CFD Toolbox           |
|  \\    /   O peration     | Version:  v1806                                 |
|   \\  /    A nd           | Web:      www.OpenFOAM.com                      |
|    \\/     M anipulation  |                                                 |
\*---------------------------------------------------------------------------*/
FoamFile
{
    version     2.0;
    format      ascii;
    class       surfaceScalarField;
    location    "0.03";
    object      phi;
}
// * * * * * * * * * * * * * * * * * * * * * * * * * * * * * * * * * * * * * //

dimensions      [0 3 -1 0 0 0 0];
oriented        oriented;


internalField   nonuniform List<scalar> 
187200
(
7.7163e-06
6.72737e-07
-8.39021e-06
3.71799e-05
-1.25472e-05
-1.69163e-05
5.77263e-05
-7.95813e-06
-1.25881e-05
7.62092e-05
-7.5268e-06
-1.0956e-05
9.52097e-05
-6.85764e-06
-1.21428e-05
0.000111894
-3.92683e-06
-1.27576e-05
0.000127434
-9.74065e-07
-1.45659e-05
0.00014154
1.89575e-06
-1.60015e-05
0.000154951
4.05211e-06
-1.74633e-05
0.000161946
9.08889e-06
-1.60835e-05
0.000169762
9.73646e-06
-1.75526e-05
0.000168135
1.80943e-05
-1.64677e-05
0.000153376
2.53919e-05
-1.06328e-05
0.000117196
4.17654e-05
-5.58573e-06
7.08907e-05
4.18246e-05
4.48013e-06
2.23436e-05
3.07244e-05
1.78225e-05
-3.70145e-05
3.25543e-05
2.68037e-05
-0.000105509
5.60235e-05
1.24705e-05
-0.000197129
9.76822e-05
-6.06189e-06
-0.000332894
0.000139628
-3.86355e-06
-0.000509612
0.000191685
-1.49663e-05
-0.00068418
0.000234405
-5.9837e-05
-0.000766528
0.000262057
-0.000179709
-0.000803092
0.000311196
-0.000274632
-0.000771981
0.000336986
-0.000368098
-0.000701314
0.000371411
-0.000442078
-0.000590006
0.000391832
-0.00050314
-0.000453922
0.000404325
-0.000540409
-0.000292315
0.00039378
-0.000555387
-0.000130939
0.000373513
-0.000534889
-8.82304e-06
0.000336802
-0.000458918
6.95555e-05
0.000295023
-0.000373402
9.5988e-05
0.000230554
-0.000256986
8.43317e-05
0.000172844
-0.000161187
5.38843e-05
0.00012185
-9.14025e-05
2.9738e-05
8.13214e-05
-5.71751e-05
1.23038e-05
5.54801e-05
-3.80458e-05
2.61024e-06
4.22452e-05
-3.25515e-05
-2.73478e-06
3.16464e-05
-2.63011e-05
2.00834e-05
-2.28177e-05
1.12113e-05
3.05375e-06
-1.35922e-05
4.76265e-05
-2.51347e-05
-2.38273e-05
8.54831e-05
-2.10039e-05
-2.48105e-05
0.000115501
-1.16751e-05
-2.58694e-05
0.00013949
-3.71773e-06
-2.7129e-05
0.00015247
1.44694e-05
-3.13768e-05
0.000160069
2.89417e-05
-3.7514e-05
0.00016035
4.51682e-05
-4.35536e-05
0.000150251
6.78746e-05
-5.37238e-05
0.000128349
9.11272e-05
-6.01365e-05
8.56489e-05
0.000128382
-7.5946e-05
2.57976e-05
0.000169947
-9.20016e-05
-5.5325e-05
0.000204878
-9.83632e-05
-0.000153722
0.000247676
-0.000107513
-0.00029178
0.000307241
-0.000127359
-0.000483438
0.0003873
-0.000164918
-0.000683331
0.000463635
-0.000231188
-0.000887382
0.000550993
-0.000290918
-0.00106329
0.000638711
-0.000365125
-0.00122132
0.000740015
-0.000442351
-0.00133397
0.000833782
-0.000529447
-0.00142403
0.000936026
-0.000611565
-0.00144509
0.00101518
-0.00073206
-0.00141645
0.00109315
-0.000810585
-0.00131968
0.00113196
-0.00089175
-0.001168
0.00116493
-0.000945199
-0.000971412
0.00116729
-0.000972052
-0.000743178
0.00114337
-0.000967277
-0.000514703
0.00108649
-0.000921181
-0.000289302
0.000999332
-0.000851219
-0.000100879
0.000873798
-0.00072542
5.98491e-05
0.000735844
-0.000601548
0.000133832
0.000591329
-0.000434757
0.000157924
0.000460286
-0.000311534
0.00014006
0.00034343
-0.000203717
0.000108117
0.000254
-0.000140735
7.5107e-05
0.000188136
-9.9646e-05
4.7992e-05
0.000147021
-7.76607e-05
2.00463e-05
0.000116331
-5.6739e-05
7.71807e-05
-3.70507e-05
1.94377e-05
-4.07873e-06
-1.2305e-05
5.75865e-05
-3.21917e-05
-3.10917e-05
9.76663e-05
-2.20592e-05
-3.90243e-05
0.000125387
1.41509e-06
-4.0811e-05
0.000143857
2.61799e-05
-4.83669e-05
0.000147278
6.65671e-05
-5.55185e-05
0.00013799
0.000105483
-6.72535e-05
0.0001182
0.000149992
-8.50334e-05
8.90281e-05
0.000207794
-0.000110748
3.58919e-05
0.000276855
-0.000132592
-4.58596e-05
0.000357277
-0.000147143
-0.000148966
0.000439457
-0.000166404
-0.000315928
0.000551995
-0.000180156
-0.00050673
0.000655345
-0.000216866
-0.00071605
0.000768281
-0.000251721
-0.000906301
0.000876312
-0.000298762
-0.00108151
0.000984493
-0.000345646
-0.00124345
0.00110997
-0.000397047
-0.0013841
0.0012321
-0.000452734
-0.00150452
0.00136696
-0.000506535
-0.0015918
0.00148428
-0.000563214
-0.00164555
0.00158389
-0.000594116
-0.00163712
0.00166547
-0.000658727
-0.0015846
0.00172301
-0.000682388
-0.00147884
0.00174009
-0.000713879
-0.0013316
0.00173779
-0.000720098
-0.00115294
0.00169592
-0.000707287
-0.000952577
0.00161829
-0.00067528
-0.000744153
0.00150693
-0.000628873
-0.000530553
0.00135734
-0.000571607
-0.000353875
0.0011944
-0.000497284
-0.000199169
0.00100716
-0.000426018
-8.21242e-05
0.000816316
-0.000342032
-4.78108e-07
0.000648963
-0.000270323
3.26104e-05
0.000508643
-0.000198301
4.57707e-05
0.000393841
-0.000153001
4.71764e-05
0.000307323
-0.000120593
3.71618e-05
0.000256352
-9.93167e-05
1.739e-05
0.000205769
-6.96657e-05
0.000132754
-3.81833e-05
1.95862e-05
-4.10333e-06
-1.95614e-05
5.84012e-05
-2.42273e-05
-4.67795e-05
9.60889e-05
1.37435e-06
-6.1121e-05
0.000122402
3.99272e-05
-6.48254e-05
0.000127948
9.4969e-05
-7.43344e-05
0.000115496
0.000167648
-8.86297e-05
9.63194e-05
0.000233968
-0.000109309
6.5348e-05
0.000321488
-0.000140525
1.25409e-05
0.000431898
-0.000171298
-7.19322e-05
0.000550086
-0.000188758
-0.000194636
0.000681275
-0.000201295
-0.00035694
0.000811515
-0.000209754
-0.000524655
0.000942505
-0.000222795
-0.000687279
0.00105911
-0.000241142
-0.000846626
0.00119179
-0.000264162
-0.00100105
0.00131703
-0.000286293
-0.00114796
0.00143741
-0.000305997
-0.00127583
0.00155861
-0.000320766
-0.00138301
0.0016704
-0.000331127
-0.00147331
0.00178495
-0.000327682
-0.00153899
0.00187223
-0.000322267
-0.00158891
0.00193117
-0.000297365
-0.00157895
0.00196662
-0.000311107
-0.00154117
0.00197503
-0.000289806
-0.00145987
0.0019432
-0.000284413
-0.00135168
0.00189537
-0.000265764
-0.00122376
0.00181275
-0.000244747
-0.00108169
0.00170038
-0.000224156
-0.000929157
0.00155851
-0.000204114
-0.000768823
0.00139471
-0.000197708
-0.000597537
0.00122
-0.00019688
-0.000431999
0.00104011
-0.000198489
-0.000294513
0.000871981
-0.000193151
-0.000170474
0.000713908
-0.000188984
-8.28848e-05
0.000586785
-0.000165731
-2.53068e-05
0.000485694
-0.00014943
1.00283e-05
0.000404149
-0.00013216
2.23437e-05
0.000352583
-0.000108546
1.72141e-05
0.00028729
-7.6391e-05
0.000185879
-3.59103e-05
1.86613e-05
1.30091e-05
-3.57738e-05
6.28825e-05
1.06544e-05
-7.9103e-05
0.000102531
5.57499e-05
-9.40239e-05
0.000128009
0.000117791
-0.000103341
0.000128939
0.000203168
-0.000109129
0.000103475
0.000317032
-0.00012392
7.01019e-05
0.000421123
-0.000153783
2.25722e-05
0.000556792
-0.000187775
-3.79653e-05
0.000696237
-0.000203801
-0.000125556
0.000845546
-0.000207871
-0.000230437
0.000993956
-0.0002078
-0.000357092
0.0011376
-0.000199426
-0.000499226
0.00128043
-0.00019579
-0.000650918
0.00140471
-0.000193911
-0.000785858
0.0015161
-0.000189366
-0.000902366
0.00161013
-0.000176599
-0.00100695
0.00169679
-0.000154804
-0.00109779
0.00177792
-0.000128475
-0.00118628
0.00183778
-7.88838e-05
-0.00126659
0.0018959
-3.06493e-05
-0.00134096
0.00192904
1.75672e-05
-0.00141137
0.00192872
7.28612e-05
-0.00141549
0.00189492
7.58267e-05
-0.00140989
0.00187177
9.7661e-05
-0.00137137
0.00181706
8.76164e-05
-0.00132005
0.0017579
8.61552e-05
-0.00125411
0.00167017
7.66261e-05
-0.00118224
0.00156495
6.35534e-05
-0.0010912
0.00143679
3.06813e-05
-0.000976183
0.00129306
-1.33592e-05
-0.000837285
0.00114144
-6.03438e-05
-0.000680557
0.000990212
-0.000106833
-0.000519436
0.000853536
-0.000142677
-0.00037629
0.000729534
-0.000158771
-0.000248308
0.000631871
-0.000173068
-0.000140208
0.000542749
-0.000165156
-6.14717e-05
0.000470174
-0.000144761
-8.5103e-06
0.00042111
-0.000121489
8.53322e-06
0.000350548
-8.03013e-05
0.000227188
-3.27757e-05
1.90363e-05
5.66559e-05
-6.26832e-05
6.03448e-05
8.59927e-05
-0.000116647
0.000115406
0.00014326
-0.000142572
0.000134539
0.000235454
-0.000136795
0.000124683
0.000349627
-0.000136604
9.94201e-05
0.000491434
-0.000149139
6.94224e-05
0.000631517
-0.000180396
3.40282e-05
0.000797689
-0.000205502
-1.82911e-05
0.000953288
-0.000204733
-8.95493e-05
0.00110856
-0.000191753
-0.000176808
0.00125501
-0.000173799
-0.000274227
0.00138638
-0.000151368
-0.000365828
0.00149799
-0.000125961
-0.000458446
0.0015969
-9.95675e-05
-0.000551465
0.00167595
-6.6833e-05
-0.000664478
0.00173534
-1.21938e-05
-0.000772607
0.00176156
4.336e-05
-0.000859594
0.00177224
9.26646e-05
-0.000944064
0.00177415
0.000148099
-0.00102236
0.00176673
0.000207466
-0.00109188
0.00175244
0.00024612
-0.00117981
0.00173933
0.000277318
-0.00122157
0.00166068
0.000275996
-0.00125966
0.00162023
0.000289633
-0.00127356
0.00155172
0.000279249
-0.00127856
0.00149352
0.000269375
-0.00127173
0.00142123
0.000242112
-0.00125987
0.00134204
0.000211057
-0.00122683
0.00124749
0.000156261
-0.00115191
0.00114806
7.00732e-05
-0.00104601
0.00103619
-6.33985e-07
-0.000903906
0.000924466
-7.63623e-05
-0.000734044
0.000816355
-0.000132681
-0.000557161
0.000723563
-0.000170913
-0.000380479
0.000642288
-0.0001871
-0.000229063
0.000581804
-0.000190471
-0.000113605
0.00052179
-0.000167074
-3.32692e-05
0.00047586
-0.000135086
3.85314e-06
0.00040153
-8.81041e-05
0.000262947
-3.19071e-05
2.6105e-05
0.00012575
-9.5199e-05
9.18526e-05
0.000186381
-0.000166135
0.000155529
0.000267007
-0.000187423
0.000172828
0.00038554
-0.000167386
0.000153114
0.000527453
-0.000158111
0.000137338
0.000681615
-0.000174405
0.000120467
0.000847004
-0.000198616
9.95679e-05
0.00101798
-0.000199395
5.67783e-05
0.00117055
-0.000174471
-2.24321e-06
0.00131319
-0.000145615
-7.07334e-05
0.0014367
-0.000113202
-0.000145113
0.00153883
-7.80675e-05
-0.000222296
0.00161844
-4.32688e-05
-0.000300286
0.00167146
3.42922e-06
-0.000373583
0.00169495
5.42959e-05
-0.000440366
0.00169503
0.000107092
-0.000514014
0.001672
0.000163214
-0.000606954
0.00164164
0.000223541
-0.000707381
0.00159525
0.000279323
-0.000802584
0.00153894
0.000322996
-0.000887204
0.00148471
0.000352345
-0.000991849
0.0014607
0.000383279
-0.00106738
0.00136584
0.000370373
-0.00113761
0.00132268
0.000367778
-0.00119635
0.00127033
0.000340131
-0.00124985
0.00123415
0.000312868
-0.00129235
0.0011929
0.000270828
-0.00132585
0.00114689
0.000228641
-0.00133767
0.00109222
0.000167097
-0.00129661
0.00103204
7.49588e-05
-0.00121631
0.000955509
3.81983e-07
-0.0010916
0.000873334
-7.35825e-05
-0.000920379
0.000789101
-0.000143967
-0.000724201
0.000715591
-0.000188205
-0.000512746
0.000652864
-0.000222031
-0.000322626
0.000615788
-0.000224103
-0.00017001
0.000568589
-0.000199417
-5.93427e-05
0.000523689
-0.000158497
-2.94354e-06
0.000446366
-0.000101235
0.000295117
-3.51138e-05
2.98267e-05
0.000223524
-0.000127601
0.000124507
0.00030929
-0.000217589
0.000200319
0.000418844
-0.000227649
0.000226375
0.000555041
-0.000195557
0.000217277
0.000712232
-0.000175682
0.000207537
0.000873175
-0.00018182
0.000199542
0.00104044
-0.000185438
0.00018912
0.00119512
-0.000166711
0.000156689
0.00133488
-0.0001319
0.00011041
0.00145094
-9.14679e-05
5.61933e-05
0.0015448
-5.38781e-05
-6.55374e-06
0.0016101
-8.5229e-06
-7.5453e-05
0.00164233
4.50141e-05
-0.000142301
0.00164589
9.24148e-05
-0.000214885
0.00162076
0.000146774
-0.000289593
0.00157034
0.000199403
-0.000369704
0.00150127
0.000250833
-0.000457425
0.00143125
0.000298121
-0.00055011
0.00135471
0.000333231
-0.000650552
0.00128325
0.000356126
-0.000743613
0.00121339
0.000364376
-0.000848142
0.00119145
0.00037378
-0.000953868
0.00111581
0.000355753
-0.00105645
0.00108411
0.000341144
-0.00114869
0.00104622
0.00031635
-0.00123611
0.00103523
0.000286334
-0.00130872
0.00102011
0.000245407
-0.0013712
0.000995078
0.000214285
-0.00141183
0.000967973
0.000164878
-0.00140629
0.000925156
0.000101345
-0.00135383
0.000871601
3.14497e-05
-0.00124715
0.000805935
-3.92786e-05
-0.00107973
0.000741775
-0.0001201
-0.000876686
0.000690201
-0.000177653
-0.000650697
0.000643221
-0.000216346
-0.000414121
0.000630981
-0.00025177
-0.000222108
0.000600913
-0.000224338
-8.31591e-05
0.000565055
-0.000180315
-9.24965e-06
0.000487965
-0.000115508
0.000325219
-3.93514e-05
5.31198e-05
0.00032227
-0.000151865
0.000170891
0.000448957
-0.000257437
0.000266019
0.000588324
-0.000264609
0.000302761
0.000734602
-0.000216303
0.00030279
0.0008927
-0.000180498
0.000294936
0.00104622
-0.000165186
0.000287379
0.00119864
-0.000150649
0.000284802
0.00132812
-0.000130424
0.000271674
0.00144062
-9.26127e-05
0.00023291
0.00153318
-4.34733e-05
0.000183046
0.0015867
7.96296e-06
0.000120803
0.00160702
6.53197e-05
5.18299e-05
0.00159916
0.000112143
-1.88115e-05
0.00155809
0.000158447
-9.49535e-05
0.00149197
0.000204935
-0.000175806
0.00140515
0.00024604
-0.000266555
0.00130946
0.000282567
-0.000368116
0.00122301
0.000309801
-0.000464133
0.00112818
0.000322541
-0.000568843
0.00106363
0.000324331
-0.000673816
0.00100316
0.000315209
-0.000772162
0.000980195
0.000309597
-0.000881442
0.000931347
0.000293745
-0.00100141
0.000921795
0.00028229
-0.00111906
0.000894621
0.000269253
-0.00122505
0.000893622
0.000247596
-0.00132123
0.000892474
0.000223817
-0.00140314
0.000880848
0.000196134
-0.00146927
0.000861588
0.000172513
-0.00149752
0.000823899
0.000129514
-0.00146966
0.000777776
6.59644e-05
-0.00137514
0.000724466
-1.30492e-05
-0.00121151
0.000668703
-9.05668e-05
-0.000992318
0.000628384
-0.000157371
-0.000748647
0.000607294
-0.000207744
-0.000497238
0.000617235
-0.000237663
-0.000276195
0.000623662
-0.000243791
-0.000108039
0.000594934
-0.000198036
-1.65927e-05
0.000526097
-0.000129578
0.000354119
-4.54925e-05
6.73197e-05
0.000422304
-0.000167354
0.000207333
0.000599964
-0.00029102
0.000327253
0.000759603
-0.0002912
0.000383583
0.000903143
-0.000224871
0.000398974
0.00104837
-0.000171058
0.000393071
0.00118529
-0.000133168
0.000382718
0.00131868
-0.000109683
0.000374011
0.00142576
-8.89317e-05
0.000357509
0.00150492
-4.7799e-05
0.000337273
0.00155191
1.49945e-06
0.000296017
0.00157563
5.23239e-05
0.000224639
0.00156715
0.000111252
0.0001504
0.00151738
0.000156018
7.36912e-05
0.00143858
0.000196219
-1.17261e-05
0.00134635
0.000231034
-0.000101375
0.00123753
0.000257264
-0.000208391
0.0011381
0.00027837
-0.000314746
0.00104201
0.000287351
-0.000428417
0.000958824
0.00028303
-0.000535483
0.000903673
0.000267024
-0.000639137
0.000856082
0.00025073
-0.000732244
0.000831641
0.000241661
-0.00083986
0.000806663
0.0002323
-0.000954233
0.000801984
0.000234184
-0.00108619
0.000794732
0.000231851
-0.00119797
0.000778876
0.000226525
-0.00130605
0.000785368
0.000215179
-0.00140514
0.000774422
0.000205517
-0.00149353
0.000749277
0.000200698
-0.00154412
0.000712745
0.000161748
-0.00154415
0.000675095
0.000102713
-0.0014716
0.000635514
1.64034e-05
-0.00132778
0.000598897
-7.40187e-05
-0.00111031
0.000564167
-0.000153258
-0.000855853
0.000546434
-0.000193594
-0.000578076
0.000559785
-0.000220327
-0.000321279
0.000614376
-0.000247511
-0.000131295
0.000610762
-0.000205813
-2.32527e-05
0.000556252
-0.000138197
0.000380426
-4.95594e-05
8.39326e-05
0.000510293
-0.000171922
0.000249377
0.000747672
-0.000313152
0.00039452
0.000920805
-0.000306346
0.00047126
0.00105258
-0.000226179
0.000499086
0.00117748
-0.000156943
0.000495575
0.00129107
-0.000102268
0.000484115
0.0013993
-6.91661e-05
0.000465361
0.00147802
-3.35121e-05
0.000434957
0.0015325
2.82376e-06
0.000396396
0.00155487
3.561e-05
0.00035543
0.00153645
8.01484e-05
0.000298143
0.00148804
0.000136392
0.000223019
0.00141596
0.00017654
0.000133399
0.00131813
0.000210066
4.15127e-05
0.00120597
0.00023227
-5.63074e-05
0.00109075
0.000244599
-0.000173556
0.00100051
0.000254843
-0.00028527
0.000904242
0.000249482
-0.000406654
0.000843879
0.000236329
-0.000505107
0.000787823
0.000214303
-0.000602062
0.00075563
0.000197407
-0.000696919
0.000733642
0.000192857
-0.000800771
0.000718772
0.000191742
-0.00090284
0.000701703
0.000202349
-0.0010266
0.000704182
0.000214309
-0.00115015
0.000679036
0.000223391
-0.00126462
0.000672484
0.000227358
-0.0013869
0.000658911
0.000237786
-0.0014923
0.000634508
0.000220173
-0.00156793
0.000605533
0.00018284
-0.00159861
0.000577628
0.000128153
-0.0015567
0.000548955
4.46473e-05
-0.00142941
0.00051224
-4.06404e-05
-0.00120577
0.000485034
-0.0001445
-0.000927511
0.000471674
-0.000203503
-0.000641179
0.000497905
-0.000224453
-0.000372237
0.00056087
-0.000215437
-0.000156529
0.000614997
-0.000219942
-3.05947e-05
0.000574025
-0.000143708
0.000405785
-5.59544e-05
9.25551e-05
0.000587089
-0.000169352
0.000283688
0.000877537
-0.000320998
0.000456779
0.00105983
-0.000312115
0.000552689
0.00117937
-0.000222695
0.000592662
0.0012811
-0.000143592
0.000593942
0.00136563
-7.58482e-05
0.000581266
0.00144441
-3.24278e-05
0.000552421
0.00149691
9.95651e-06
0.000509393
0.00152537
5.01553e-05
0.000455908
0.00151749
9.08576e-05
0.000396027
0.00148063
0.000115702
0.000326655
0.00140964
0.000147777
0.000255564
0.00130836
0.000178699
0.000168866
0.00119811
0.000206718
7.69174e-05
0.00108301
0.000214907
-3.25143e-05
0.000976518
0.000223667
-0.000140932
0.000886765
0.000222159
-0.000263536
0.000808873
0.000217973
-0.0003706
0.000754577
0.000196367
-0.000468995
0.000710595
0.000175623
-0.000560992
0.000683221
0.000164406
-0.000649929
0.000657032
0.000165547
-0.000738933
0.000636938
0.000170838
-0.000838513
0.000614088
0.000187196
-0.000942367
0.000595493
0.000212542
-0.00107195
0.000580256
0.00022836
-0.00119267
0.000543821
0.000249383
-0.00132628
0.000538441
0.000254078
-0.0014495
0.000520959
0.00023677
-0.00155236
0.00050212
0.000206275
-0.0016095
0.000486146
0.000148619
-0.00159482
0.000469754
6.45243e-05
-0.00150095
0.000431581
-1.32107e-05
-0.0013208
0.00040527
-0.00010039
-0.00103419
0.000393306
-0.000208237
-0.000709655
0.000418072
-0.000244706
-0.000406574
0.000483992
-0.000226203
-0.000176635
0.000583524
-0.000198466
-3.73441e-05
0.000582001
-0.000147268
0.000426451
-5.80108e-05
0.000100475
0.000645913
-0.000159299
0.000314918
0.000983908
-0.000320815
0.00051366
0.00117419
-0.000313102
0.000627311
0.00127893
-0.000213215
0.000675137
0.00135821
-0.000124932
0.000678948
0.00141703
-5.52061e-05
0.000664633
0.00146428
-5.55697e-06
0.00062878
0.00148686
4.59082e-05
0.000577211
0.00148875
8.81892e-05
0.00051118
0.00146141
0.00012211
0.000435316
0.00140503
0.000151465
0.000353198
0.00131907
0.000172689
0.000271265
0.00120975
0.000180535
0.000182894
0.00109339
0.000193094
9.34519e-05
0.000977852
0.000194598
-1.44841e-05
0.000885165
0.00019929
-0.000126446
0.000799458
0.000199269
-0.000238104
0.000732288
0.000188244
-0.000338229
0.000687848
0.000166853
-0.000430239
0.000648674
0.00015393
-0.000511244
0.000617464
0.000146762
-0.000589758
0.000584883
0.000150662
-0.000662457
0.000553556
0.000156082
-0.000756995
0.000531343
0.000177283
-0.000846346
0.000489773
0.000195071
-0.000962972
0.000475767
0.000221115
-0.00109588
0.000434783
0.00024195
-0.00122494
0.000412428
0.000255072
-0.00136072
0.000411045
0.000245689
-0.00148293
0.000408032
0.000216297
-0.00157906
0.000401384
0.000180894
-0.00160578
0.000371175
0.000125302
-0.00155508
0.000327839
5.30406e-05
-0.0014029
0.000287253
-3.41626e-05
-0.00114608
0.000276841
-0.000140359
-0.000801469
0.000312029
-0.000238564
-0.000461812
0.000402258
-0.000257923
-0.000198899
0.000510235
-0.000189623
-4.45498e-05
0.000578119
-0.000150467
0.000445666
-6.37662e-05
0.000106785
0.000682508
-0.00014338
0.000340345
0.00106387
-0.000313523
0.00055949
0.00126416
-0.000309117
0.000689488
0.00135742
-0.00020849
0.000746418
0.00141188
-0.000110601
0.000751379
0.00144523
-3.31615e-05
0.000734196
0.00146302
1.84436e-05
0.000689363
0.00145898
7.27068e-05
0.000631496
0.00143746
0.000109159
0.000559855
0.00138982
0.000143235
0.00047442
0.00132036
0.000170104
0.000379703
0.00122577
0.000188018
0.000284103
0.00111574
0.000189611
0.000193002
0.00100149
0.000182995
9.96232e-05
0.000894204
0.000177027
2.35005e-06
0.000802442
0.000179997
-0.000102741
0.000725803
0.000178746
-0.000209976
0.000677901
0.000161622
-0.000299659
0.00062964
0.000147892
-0.00038069
0.000587624
0.00014208
-0.000450228
0.000547676
0.000139327
-0.000517112
0.000511801
0.000139966
-0.000573796
0.0004647
0.00014554
-0.00065081
0.000445466
0.00016289
-0.0007395
0.000393971
0.000184491
-0.000833551
0.000364956
0.000204862
-0.000964448
0.000337104
0.000228577
-0.0010958
0.000303348
0.000240426
-0.00123089
0.000303644
0.000242498
-0.00138122
0.000319751
0.00023861
-0.00149571
0.000300071
0.000215797
-0.00157217
0.000256945
0.000190693
-0.00157277
0.00019685
0.00013159
-0.00147158
0.000141137
4.49292e-05
-0.00124069
0.000112686
-6.67379e-05
-0.000904235
0.000153031
-0.000177458
-0.000520821
0.000277014
-0.00025817
-0.00022647
0.000437616
-0.000221731
-5.01189e-05
0.000547634
-0.000145866
0.000462692
-6.71452e-05
0.000107246
0.000699935
-0.000124672
0.000354034
0.00111411
-0.000297024
0.00059319
0.00132624
-0.00030124
0.00074089
0.00141224
-0.000202518
0.000803976
0.00144666
-9.78647e-05
0.000805527
0.00145615
-1.2468e-05
0.000781791
0.00144406
4.26933e-05
0.000735935
0.00141866
8.61768e-05
0.000675449
0.00137764
0.000120304
0.000597252
0.00131183
0.000156184
0.000507158
0.00123326
0.000177194
0.000405115
0.00113484
0.000192968
0.000295986
0.00102997
0.000194901
0.000196567
0.000919419
0.000181495
9.93506e-05
0.000820194
0.000171226
5.19726e-06
0.000726692
0.000169903
-9.3711e-05
0.000664937
0.000159775
-0.000176167
0.00061381
0.000146547
-0.000249568
0.000566241
0.0001368
-0.000319574
0.000519904
0.000137727
-0.000382021
0.000475305
0.000134819
-0.000437432
0.000436127
0.000131085
-0.000490783
0.000381454
0.000136598
-0.000545351
0.000356157
0.000143876
-0.000625143
0.000312007
0.000161756
-0.000713026
0.000269826
0.000183012
-0.000819987
0.000235742
0.000208324
-0.000947578
0.000201777
0.000229161
-0.00108128
0.00019714
0.000240208
-0.00123256
0.000216494
0.000254537
-0.0013741
0.000183673
0.000257941
-0.00148674
0.0001354
0.000234177
-0.00153757
6.37311e-05
0.00018395
-0.00149058
-1.10455e-05
0.000105193
-0.00131426
-6.4614e-05
9.81189e-07
-0.00100852
-4.51007e-05
-0.000107604
-0.000600613
8.04981e-05
-0.000211392
-0.000246604
0.000331611
-0.000248005
-5.86429e-05
0.000499467
-0.000139794
0.000471223
-6.71737e-05
0.000115535
0.000665483
-8.10839e-05
0.000372212
0.00112095
-0.000263516
0.000621917
0.00135148
-0.000274946
0.000783083
0.0014328
-0.000181726
0.000853744
0.00145157
-7.5577e-05
0.000853361
0.00143759
1.89378e-05
0.000826268
0.00140502
6.61358e-05
0.000778302
0.00136061
0.000106021
0.000711712
0.00131075
0.000133483
0.000625251
0.00124323
0.000155064
0.000521929
0.0011587
0.00017788
0.000414608
0.00105
0.000192159
0.000319872
0.000935577
0.00018913
0.000233902
0.000826894
0.000178495
0.000140912
0.000740561
0.000172623
3.21405e-05
0.000668226
0.000167239
-6.10618e-05
0.000609224
0.000148916
-0.000136277
0.000556029
0.000132996
-0.000199861
0.000503017
0.000126807
-0.000258438
0.000452047
0.000126435
-0.000314376
0.000404014
0.000127229
-0.000362153
0.000360931
0.000122973
-0.000416614
0.000310339
0.000125575
-0.000456314
0.000272867
0.00012299
-0.0005156
0.000237601
0.000133691
-0.000592753
0.000186368
0.000160611
-0.000687855
0.000140018
0.000190826
-0.000807382
0.000103716
0.000217589
-0.000930521
7.12524e-05
0.000249025
-0.00106394
7.87752e-05
0.000271139
-0.00121746
5.70873e-05
0.0002801
-0.00135766
1.15427e-05
0.00026406
-0.00145499
-6.49194e-05
0.000225983
-0.00146327
-0.000161273
0.000158512
-0.00134705
-0.000244305
6.3467e-05
-0.00108628
-0.000259151
-4.672e-05
-0.000705601
-0.000152231
-0.000147951
-0.000295254
0.000130719
-0.000209455
-6.47116e-05
0.000426787
-0.000157864
0.000470906
-6.43934e-05
0.000106334
0.000608716
-4.95666e-05
0.000363763
0.00110781
-0.000244291
0.000629413
0.0013512
-0.00026537
0.000811134
0.00143101
-0.000179928
0.000887017
0.00143567
-5.99764e-05
0.000887015
0.0014062
3.13959e-05
0.000850416
0.00135357
8.80511e-05
0.000785369
0.00130411
0.000121543
0.000709384
0.00123804
0.000148695
0.000636244
0.00114778
0.000168586
0.000559915
0.00105258
0.000182449
0.000472628
0.000951527
0.000185765
0.000372973
0.000859129
0.000176103
0.000268912
0.000766904
0.000164052
0.000167087
0.000683098
0.000159288
6.37905e-05
0.000610948
0.000160574
-2.13069e-05
0.000551257
0.000143065
-8.75615e-05
0.000493284
0.000129
-0.000144504
0.000442531
0.00011743
-0.00019877
0.000390392
0.00011592
-0.000249019
0.000339446
0.000114817
-0.000294404
0.000295283
0.000111034
-0.000344979
0.000248049
0.000112864
-0.00038298
0.000204371
0.000106496
-0.000428578
0.000170936
0.000112262
-0.000498056
0.000115179
0.000140667
-0.000578896
5.53585e-05
0.000165499
-0.000673452
7.97645e-06
0.000190294
-0.000792399
-3.62995e-05
0.0002265
-0.000918983
-6.24428e-05
0.000267801
-0.00106993
-7.92234e-05
0.000287259
-0.00121171
-0.000141866
0.000295187
-0.00132861
-0.000217081
0.000269069
-0.00138579
-0.000316813
0.000212713
-0.00133113
-0.000429534
0.000130573
-0.0011279
-0.000495543
3.3163e-05
-0.000770127
-0.000425906
-8.40977e-05
-0.000361291
-0.000121586
-0.000156532
-6.55347e-05
0.000298259
-0.000167228
0.000457013
-5.16415e-05
0.000126311
0.000473476
8.92829e-06
0.000375767
0.00104392
-0.000185566
0.00064622
0.00130843
-0.000227675
0.000833904
0.00139408
-0.000150763
0.000914041
0.00139
-3.44729e-05
0.000913761
0.00134954
5.69375e-05
0.000880367
0.0012773
0.000109655
0.000836297
0.00120514
0.000143043
0.00078539
0.00112852
0.000160425
0.000710315
0.00105024
0.00017262
0.000610532
0.000972556
0.000179805
0.000495914
0.000885011
0.000181133
0.000385688
0.000797818
0.000171538
0.000288668
0.00070798
0.000155944
0.000200867
0.00063126
0.000139639
0.000115241
0.00055752
0.000139054
3.21273e-05
0.000494378
0.000139993
-3.74451e-05
0.00043667
0.000126186
-9.23587e-05
0.000384466
0.000112979
-0.000142992
0.000333704
0.000107322
-0.000190351
0.000283265
0.00010354
-0.000233681
0.000239863
9.87489e-05
-0.000279681
0.000195389
9.86594e-05
-0.000320727
0.000150679
9.47368e-05
-0.000359084
0.000112462
9.68313e-05
-0.00041481
5.10418e-05
0.000119863
-0.000488256
-3.77172e-06
0.000132576
-0.000568293
-6.16635e-05
0.000149676
-0.000665205
-0.000119634
0.000180246
-0.0007768
-0.000171528
0.00022068
-0.000903014
-0.000224323
0.000271313
-0.00105021
-0.000290087
0.00029542
-0.00121634
-0.000346031
0.000295079
-0.00130722
-0.000495998
0.000270061
-0.00129967
-0.000655993
0.000218914
-0.00115677
-0.000770379
0.000131938
-0.000836244
-0.000766814
2.03785e-05
-0.000420721
-0.000444512
-9.25974e-05
-7.47321e-05
8.11594e-05
-0.00012889
0.00041379
-3.15107e-05
0.000122548
0.000346832
4.09604e-06
0.000341781
0.000989534
-0.000164849
0.00062224
0.00125175
-0.00022378
0.000825497
0.00133998
-0.000149149
0.000924509
0.00132345
-3.2456e-05
0.000952154
0.00126344
5.84591e-05
0.000923258
0.00118341
0.000122791
0.000870018
0.00111602
0.000142361
0.000789453
0.00104889
0.0001602
0.000699567
0.000971608
0.000168517
0.000608158
0.000890236
0.000173729
0.000513614
0.000808077
0.000171478
0.000417261
0.000727227
0.000166943
0.000324658
0.000650621
0.000149962
0.000243484
0.000580632
0.000131802
0.00016799
0.000513783
0.000119231
9.13123e-05
0.000451155
0.000119901
1.69689e-05
0.000387842
0.000123172
-4.06383e-05
0.000331129
0.000110944
-9.13298e-05
0.000285318
9.90773e-05
-0.000139896
0.000236157
9.56737e-05
-0.000180226
0.000191993
8.82005e-05
-0.000222937
0.000150443
8.76575e-05
-0.000262368
0.000106624
8.34849e-05
-0.000299597
6.13509e-05
8.83385e-05
-0.000354965
4.77318e-06
0.000101636
-0.000414159
-5.16569e-05
0.00010708
-0.000483284
-0.000111168
0.000118629
-0.000571064
-0.000171611
0.000139757
-0.000677453
-0.000238735
0.000173596
-0.000792298
-0.000323116
0.000213638
-0.000910552
-0.000436578
0.000264745
-0.00101603
-0.000539447
0.00029889
-0.00113407
-0.000680389
0.000302432
-0.00121253
-0.000838515
0.000260982
-0.00115162
-0.00101699
0.000185704
-0.000931642
-0.001073
8.62055e-05
-0.000500618
-0.000854141
-2.13953e-05
-0.000111617
-0.000242096
-6.57465e-05
0.000289761
1.24111e-05
9.45489e-05
0.000239571
1.27116e-05
0.000339679
0.000889358
-0.000144955
0.00061529
0.00117518
-0.000199041
0.000828199
0.00127316
-0.000146095
0.000931483
0.00125738
-3.72167e-05
0.000954344
0.00119006
5.05174e-05
0.000909343
0.00110939
0.000119024
0.000856616
0.00102734
0.000141406
0.000794657
0.000955876
0.00015497
0.000721177
0.000883847
0.000161241
0.000637166
0.000810801
0.000163446
0.000546558
0.000738341
0.000160344
0.000455304
0.000665441
0.000153041
0.000366586
0.000598234
0.000141105
0.000283176
0.000532186
0.000131855
0.000210967
0.000472414
0.000113578
0.000144339
0.000411533
0.00010625
7.66494e-05
0.000352197
0.000103335
8.54278e-06
0.000293448
0.000105788
-4.09361e-05
0.000239552
9.52447e-05
-9.14283e-05
0.000196777
8.98722e-05
-0.000132844
0.000151614
8.17936e-05
-0.000175643
0.000113362
7.98798e-05
-0.000212104
6.51035e-05
7.79814e-05
-0.000250892
1.59376e-05
8.42006e-05
-0.000301386
-3.46627e-05
8.99301e-05
-0.000352579
-9.14946e-05
9.1031e-05
-0.000414746
-0.000150115
0.000101114
-0.000485787
-0.000214576
0.000114007
-0.000568254
-0.000291028
0.00013476
-0.000676915
-0.000383745
0.00016929
-0.000825312
-0.000494784
0.000206602
-0.000969237
-0.000650962
0.000255439
-0.00107986
-0.000858708
0.00028894
-0.00112688
-0.00107426
0.000282768
-0.00109621
-0.00129099
0.000243333
-0.000915076
-0.00139903
0.000144891
-0.000568758
-0.00124978
4.93188e-05
-0.000142996
-0.000640306
-2.75518e-05
9.23795e-05
5.43855e-05
6.49387e-05
0.000182876
-8.24338e-06
0.000306449
0.00078571
-0.000137862
0.00057569
0.00109303
-0.000187096
0.000802337
0.0012009
-0.000154392
0.000922424
0.00118749
-5.0197e-05
0.000960463
0.00111471
3.73079e-05
0.000934678
0.00102879
0.000106381
0.000886833
0.000944799
0.000130383
0.000824333
0.000871153