/*--------------------------------*- C++ -*----------------------------------*\
| =========                 |                                                 |
| \\      /  F ield         | OpenFOAM: The Open Source CFD Toolbox           |
|  \\    /   O peration     | Version:  v1806                                 |
|   \\  /    A nd           | Web:      www.OpenFOAM.com                      |
|    \\/     M anipulation  |                                                 |
\*---------------------------------------------------------------------------*/
FoamFile
{
    version     2.0;
    format      ascii;
    class       vectorField;
    location    "0.1005";
    object      currentcloudofpoints;
}
// * * * * * * * * * * * * * * * * * * * * * * * * * * * * * * * * * * * * * //


2409
(
(0.954602 1.40733 1.03297)
(0.871148 1.01996 1.2939)
(1.44289 1.178 1.00001)
(1.12174 1.30864 0.815343)
(1.24513 1.34044 1.22061)
(1.11612 1.18608 1.00328)
(1.13501 1.4712 1.00684)
(0.532718 1.25278 0.932068)
(1.65457 1.26371 0.996507)
(1.19146 1.02051 0.794596)
(1.19277 1.14454 1.23635)
(1.41477 1.19789 1.07109)
(1.38933 1.26235 1.09508)
(1.34373 1.36555 1.12733)
(1.33563 1.24953 1.09451)
(1.43303 1.18792 1.04349)
(1.38401 1.20518 1.07849)
(1.24104 1.42179 1.11378)
(1.36803 1.26148 1.07921)
(1.33855 1.25383 1.14497)
(0.82264 0.959951 1.36468)
(0.569393 1.20648 1.34436)
(0.931612 1.31312 1.30663)
(0.99717 1.3016 1.30516)
(0.942463 1.00801 1.27813)
(0.614824 1.05601 1.36363)
(0.748942 1.15804 1.38483)
(0.935083 1.45843 1.36883)
(1.04044 1.26713 1.19381)
(1.4124 1.19121 0.923136)
(1.3445 1.19913 0.924231)
(1.33263 1.32581 0.859367)
(1.30925 1.27458 0.852573)
(1.42895 1.17991 0.953386)
(1.37228 1.18851 0.925789)
(1.36132 1.25629 0.870665)
(1.3217 1.32473 0.861819)
(1.26949 1.32463 0.814392)
(0.961095 1.42366 0.623532)
(0.726125 1.06197 0.744407)
(0.772315 1.00458 0.609362)
(0.927625 0.991667 0.750019)
(0.965818 1.21561 0.662646)
(0.857683 1.24318 0.66718)
(0.743887 1.02909 0.669417)
(0.979613 0.958762 0.682201)
(0.831147 0.997686 1.04102)
(1.3373 1.36352 1.05423)
(1.05986 1.36202 1.21696)
(1.1347 1.30443 1.10003)
(1.00803 1.25085 1.01834)
(1.23156 1.3041 1.19233)
(1.24675 1.27771 1.11411)
(1.03728 1.36922 1.28628)
(1.2345 1.3143 0.999565)
(0.962162 1.34653 1.04862)
(1.00001 1.21698 0.964206)
(1.05693 1.50146 0.614486)
(1.09877 1.51953 0.666625)
(1.224 1.32529 0.868619)
(0.900184 1.43429 0.991113)
(1.22625 1.30368 0.950556)
(1.11181 1.54273 0.722281)
(1.03031 1.33052 0.715459)
(1.17615 1.36467 0.837024)
(0.918641 0.988748 1.33891)
(0.903825 0.99686 1.31573)
(0.855428 1.30248 1.06221)
(1.10111 1.50442 1.06995)
(0.933788 0.979792 1.3481)
(0.9097 0.992285 1.32801)
(0.8834 0.999079 1.28954)
(1.02309 1.51618 0.84461)
(0.891941 1.38998 1.00066)
(1.25353 1.50464 0.940079)
(1.47927 1.4538 1.02682)
(1.47616 1.4145 1.01818)
(1.4436 1.21863 0.999665)
(1.02626 1.4351 1.00889)
(1.40789 1.48693 1.01041)
(1.49455 1.42221 1.02077)
(1.43525 1.43196 1.01766)
(1.45761 1.20515 0.998391)
(0.460791 1.1927 1.09437)
(0.50244 1.08517 1.14769)
(0.704138 1.16699 1.42786)
(1.09085 1.2051 1.43771)
(1.12996 1.09188 1.33493)
(1.10852 1.05843 1.43159)
(1.23067 1.24279 1.32377)
(0.700461 1.18359 1.11789)
(0.472126 1.18428 1.13129)
(0.598227 1.19538 1.39802)
(1.00037 1.28172 1.3968)
(1.1448 1.02127 1.46766)
(1.08966 1.0242 1.37953)
(1.16011 1.23625 1.37598)
(1.22265 1.21124 1.29427)
(1.24822 1.08584 1.28901)
(1.32327 1.09171 1.32415)
(1.3829 1.11704 1.3161)
(1.42873 1.15238 1.30261)
(1.48356 1.15189 1.26363)
(1.55786 1.18339 1.20946)
(1.63175 1.239 1.12748)
(1.18161 1.1147 1.2453)
(1.29357 1.08403 1.31353)
(1.35309 1.09955 1.31865)
(1.40758 1.13613 1.30593)
(1.45247 1.15251 1.28458)
(1.51594 1.16082 1.2341)
(1.59401 1.2069 1.1741)
(1.6479 1.25103 1.06473)
(0.489517 1.22156 0.868422)
(0.531373 1.09611 0.865949)
(0.761712 1.13953 0.674405)
(1.04873 1.16018 0.572839)
(1.11482 0.998607 0.756199)
(1.08456 1.10028 0.594167)
(1.14345 1.09576 0.690966)
(0.6277 1.17731 0.87597)
(0.542408 1.22327 0.845122)
(0.710869 1.12058 0.588213)
(0.976857 1.16311 0.600161)
(1.15434 1.04868 0.539451)
(1.05289 1.05912 0.663548)
(1.11502 1.10691 0.612858)
(1.16591 1.0715 0.825272)
(1.62714 1.23902 0.870909)
(1.55797 1.18857 0.787059)
(1.48383 1.15966 0.73551)
(1.42808 1.15705 0.696127)
(1.37872 1.12972 0.682674)
(1.32271 1.10812 0.678063)
(1.27444 1.07909 0.686622)
(1.6427 1.25013 0.930577)
(1.59236 1.21007 0.82417)
(1.51636 1.16841 0.762381)
(1.45327 1.15843 0.715625)
(1.40414 1.14575 0.690537)
(1.35126 1.11517 0.683386)
(1.29724 1.09615 0.683652)
(1.24887 1.0407 0.716164)
(1.08772 1.63788 1.10481)
(0.909818 1.55379 1.26687)
(0.854789 1.53771 1.34434)
(0.978084 1.59973 1.36988)
(0.973326 1.51249 1.46234)
(1.06625 1.27471 1.48586)
(1.26549 1.2121 1.30827)
(1.12254 1.62836 1.00808)
(0.971908 1.62286 1.21806)
(0.851035 1.56846 1.30404)
(0.867206 1.55699 1.34781)
(0.985485 1.56596 1.42304)
(1.00666 1.40907 1.48686)
(1.25615 1.16618 1.41104)
(1.30602 1.19985 1.24562)
(1.01963 1.74707 0.806979)
(0.965673 1.5939 0.780164)
(0.840201 1.56481 0.707097)
(1.00497 1.59522 0.618672)
(0.96724 1.49606 0.549931)
(1.10185 1.27444 0.48857)
(1.20858 1.07207 0.75951)
(1.08322 1.75836 0.877313)
(0.986061 1.65655 0.81573)
(0.882171 1.56016 0.744005)
(0.834661 1.57822 0.695941)
(1.00873 1.52674 0.552316)
(1.02066 1.40234 0.538783)
(1.20321 1.1909 0.599959)
(1.20608 1.06342 0.806478)
(0.595346 1.28555 0.940944)
(0.833982 1.46026 0.980064)
(0.790042 1.41016 1.0212)
(1.02183 1.56329 0.913625)
(1.12305 1.5259 1.18469)
(1.11915 1.52623 1.01345)
(0.996202 1.41986 0.988192)
(0.566456 1.30047 0.954084)
(0.786372 1.4235 0.944912)
(0.795242 1.41957 0.998205)
(0.898322 1.25594 0.958798)
(1.06312 1.56726 1.1869)
(1.12921 1.47486 1.10349)
(0.987152 1.41081 0.983351)
(1.02796 1.44563 0.975141)
(1.31243 1.49805 1.09767)
(1.33279 1.50857 1.03801)
(1.36767 1.51265 1.05526)
(1.46055 1.50538 1.03449)
(1.54975 1.50332 1.00792)
(1.60905 1.47042 0.995192)
(1.65325 1.38686 0.995651)
(1.27067 1.49539 1.06753)
(1.34044 1.49618 1.09259)
(1.33454 1.5225 1.02769)
(1.41191 1.50785 1.06481)
(1.52108 1.50138 1.01598)
(1.58846 1.48478 0.998521)
(1.63851 1.4182 0.993851)
(1.66209 1.3314 0.996453)
(1.29622 1.21199 0.842499)
(1.20131 1.09606 0.831387)
(1.26196 1.35096 0.795309)
(1.29105 1.19726 1.16004)
(1.33822 1.3068 1.15421)
(1.24194 1.16773 1.22041)
(0.622092 1.22263 0.958549)
(1.04344 1.12878 0.761483)
(0.556312 1.21852 0.910823)
(1.52501 1.18272 0.994666)
(1.48847 1.18861 0.997796)
(1.57576 1.18294 0.99429)
(1.20341 1.50526 1.20206)
(1.3321 1.68425 1.15074)
(1.26549 1.39608 1.29259)
(1.55268 1.44185 1.20367)
(1.13579 1.69145 1.14821)
(1.33315 1.15785 1.28883)
(1.6203 1.34648 1.20253)
(1.5378 1.38779 1.2883)
(1.16332 1.62331 1.22895)
(1.45177 1.66412 1.23058)
(1.46405 1.62576 1.19128)
(0.88403 1.59691 1.27912)
(1.46194 1.45002 1.30627)
(1.5957 1.43849 1.17678)
(1.35032 1.59943 1.18064)
(1.62715 1.43592 1.0938)
(1.31445 1.30463 1.31359)
(1.58011 1.48267 1.10645)
(1.00003 1.7081 1.1952)
(1.25214 1.15196 1.27335)
(1.08431 1.44051 1.39584)
(1.37859 1.4489 1.3488)
(1.50162 1.26108 1.30924)
(1.25164 1.62838 1.07662)
(0.948742 1.65849 1.25507)
(1.28866 1.55379 1.27421)
(1.4108 1.28086 1.33149)
(1.4445 1.38308 1.28468)
(1.02655 1.65906 1.0306)
(1.20955 1.16197 1.28404)
(1.65559 1.36007 1.08837)
(1.18592 1.53174 1.25161)
(1.08947 1.55238 1.34125)
(1.34474 1.32043 1.31333)
(1.32109 1.50488 1.23145)
(1.51129 1.51083 1.14335)
(1.28802 1.11336 1.29054)
(1.32975 1.14479 1.32335)
(1.21307 1.17465 1.26467)
(1.21369 1.12867 1.2844)
(1.26733 1.12168 1.27036)
(1.3442 1.18201 1.34387)
(1.36273 1.1993 1.34471)
(1.33338 1.23996 1.31706)
(1.38396 1.21251 1.33505)
(1.39752 1.23329 1.3302)
(1.32428 1.31528 1.31592)
(1.42233 1.21842 1.31863)
(1.45639 1.20015 1.29961)
(1.3753 1.3076 1.32226)
(1.49148 1.19727 1.28078)
(1.53397 1.20869 1.25381)
(1.45204 1.26226 1.32331)
(1.59162 1.25281 1.21701)
(1.63052 1.2909 1.16604)
(1.56388 1.28737 1.27068)
(1.65155 1.30219 1.11114)
(1.66212 1.31408 1.04228)
(1.63996 1.34955 1.1482)
(1.65631 1.37411 1.04301)
(1.18816 1.63397 1.11879)
(1.11466 1.67895 1.07888)
(1.01407 1.69593 1.07183)
(1.14794 1.65283 1.04766)
(1.18338 1.60232 1.02139)
(1.34172 1.52064 1.12089)
(1.23944 1.60071 1.03858)
(1.20231 1.64901 1.18315)
(1.40245 1.53635 1.19733)
(1.34168 1.50291 1.20406)
(1.33202 1.53099 1.12751)
(1.54353 1.50324 1.06925)
(1.49094 1.51735 1.10275)
(1.46151 1.59463 1.23327)
(1.60277 1.47028 1.05313)
(1.57514 1.49042 1.05941)
(1.55707 1.48917 1.11506)
(1.64395 1.40608 1.04789)
(1.62303 1.44773 1.04356)
(1.60981 1.45418 1.10157)
(1.64431 1.39143 1.09598)
(1.16142 1.46999 1.2278)
(1.22079 1.6654 1.23544)
(1.25727 1.6662 1.21808)
(1.39055 1.67276 1.15398)
(1.33439 1.66722 1.18495)
(1.22357 1.67786 1.20547)
(1.29974 1.6622 1.11554)
(1.38165 1.61447 1.1068)
(1.46127 1.64416 1.18012)
(1.35031 1.55756 1.12746)
(1.33125 1.26855 1.28024)
(1.31759 1.32908 1.26021)
(1.29401 1.13476 1.26013)
(1.31555 1.26595 1.2886)
(1.34331 1.40725 1.29687)
(1.35113 1.36227 1.25913)
(1.16766 1.39861 1.30326)
(1.21358 1.37259 1.31631)
(1.21843 1.45065 1.32224)
(1.18337 1.47286 1.34683)
(1.32189 1.54429 1.31698)
(1.5429 1.46517 1.16701)
(1.5705 1.4537 1.15964)
(1.53352 1.47754 1.23055)
(1.52112 1.53947 1.23183)
(1.50474 1.4134 1.26552)
(1.51727 1.43184 1.26075)
(1.55493 1.41303 1.2477)
(1.57649 1.43399 1.19299)
(1.57877 1.40845 1.24167)
(1.59218 1.45586 1.14143)
(1.52246 1.47918 1.27377)
(1.44008 1.51626 1.35176)
(1.08266 1.67809 1.22051)
(1.07305 1.71852 1.1503)
(1.14981 1.68184 1.21441)
(0.982639 1.67906 1.08863)
(0.994303 1.6684 1.12506)
(0.922235 1.63811 1.20698)
(1.04295 1.64477 1.05194)
(0.905032 1.58707 1.22637)
(0.864745 1.56753 1.27682)
(0.966272 1.67682 1.24177)
(0.873952 1.56518 1.31138)
(0.896085 1.5634 1.33814)
(0.908727 1.62262 1.26834)
(1.03382 1.55645 1.40506)
(1.03174 1.59022 1.34846)
(0.91892 1.58743 1.32118)
(1.04783 1.47167 1.44631)
(1.0885 1.34472 1.46498)
(1.08619 1.49747 1.38038)
(1.26867 1.19126 1.37455)
(1.24015 1.18766 1.2907)
(1.25741 1.18921 1.26788)
(1.23292 1.16342 1.26756)
(1.10405 1.50136 1.27084)
(1.17057 1.47888 1.24614)
(1.00397 1.59971 1.29608)
(1.27168 1.59988 1.16006)
(1.26689 1.63003 1.15588)
(1.11021 1.54969 1.24516)
(1.38666 1.63061 1.22841)
(1.62988 1.38771 1.15389)
(1.12354 1.51955 1.30794)
(1.16797 1.49984 1.34649)
(1.27634 1.57262 1.21575)
(1.32243 1.5783 1.18882)
(1.40768 1.60106 1.1726)
(1.61095 1.39273 1.20091)
(1.57983 1.35973 1.26221)
(1.512 1.33166 1.30978)
(1.61422 1.42932 1.14352)
(1.48724 1.3821 1.28806)
(1.47018 1.42726 1.2785)
(1.4516 1.3284 1.31515)
(1.10923 1.62824 1.22718)
(1.38509 1.49837 1.37119)
(1.33665 1.54542 1.34033)
(1.4126 1.44093 1.33956)
(1.42445 1.41937 1.2969)
(1.39261 1.38679 1.26643)
(1.38094 1.35519 1.27731)
(1.40852 1.33782 1.30087)
(0.738512 1.47062 1.45333)
(0.743314 1.38278 1.31879)
(0.740591 1.03375 1.20552)
(0.559843 1.18635 1.23228)
(0.733144 1.43726 1.32404)
(0.84 1.47007 1.45631)
(0.592196 1.1409 1.15309)
(0.89351 1.52903 1.30758)
(1.1781 1.19496 1.47984)
(0.783294 1.18776 1.20592)
(0.584287 1.21895 1.23884)
(0.815179 1.51834 1.30036)
(0.846161 1.57534 1.43669)
(0.951262 1.3962 1.41401)
(0.93624 1.50003 1.48766)
(0.826335 1.61225 1.32919)
(0.513638 1.12978 1.18977)
(1.07548 1.26262 1.47785)
(0.59061 1.19785 1.06409)
(0.773729 1.37845 1.0908)
(0.913469 1.43218 1.42731)
(0.790651 1.55162 1.24522)
(0.936319 1.47322 1.46747)
(0.81215 1.39122 1.19983)
(0.898143 1.34463 1.34153)
(0.813795 1.21173 1.38252)
(0.75944 1.11729 1.17707)
(0.690973 1.412 1.40902)
(0.954838 1.39006 1.40589)
(0.813925 1.43273 1.3865)
(0.693781 1.23819 1.09105)
(0.72148 1.23967 1.09317)
(0.698778 1.14775 1.19669)
(1.2347 1.23954 1.3481)
(0.758742 1.43385 1.09727)
(1.07064 1.5863 1.14656)
(0.898667 1.32494 1.13554)
(0.598679 1.16654 1.13058)
(0.705967 1.13301 1.23431)
(0.537606 1.13768 1.23364)
(0.49555 1.24942 1.10766)
(0.582427 1.17902 1.08705)
(0.510476 1.10593 1.20743)
(0.523182 1.08215 1.20088)
(0.484498 1.2462 1.11882)
(0.561456 1.08891 1.13956)
(0.563753 1.15966 1.08973)
(0.506527 1.09147 1.17117)
(1.0895 1.10199 1.41098)
(1.14762 1.24434 1.38412)
(1.13947 1.1947 1.48073)
(1.18827 1.08879 1.45788)
(1.00508 1.36068 1.44012)
(1.30805 1.22406 1.24689)
(1.3173 1.18778 1.22015)
(1.14783 1.19039 1.40513)
(0.761235 1.46652 1.30218)
(0.740554 1.48954 1.2781)
(0.725385 1.43048 1.31154)
(0.79749 1.52475 1.25721)
(0.717249 1.48046 1.2968)
(0.678921 1.44011 1.25144)
(0.695904 1.46671 1.26177)
(0.874907 1.61491 1.3904)
(0.827871 1.27115 1.31917)
(0.668871 1.43516 1.23838)
(0.765302 1.57643 1.29412)
(0.815647 1.27801 1.3256)
(0.578901 1.19002 1.3235)
(0.625005 1.15117 1.12247)
(0.675228 1.22862 1.11078)
(0.617751 1.20039 1.053)
(0.843501 1.13468 1.15209)
(0.759981 1.03272 1.0926)
(0.646442 1.28767 1.03384)
(0.80341 1.45933 1.06171)
(0.829063 1.546 1.28183)
(0.818843 1.56217 1.25123)
(0.939751 1.48479 1.28204)
(1.0049 1.5987 1.22621)
(0.792575 1.37897 1.31586)
(0.840227 1.43561 1.29019)
(1.11728 1.59075 1.18895)
(0.897296 1.50948 1.48519)
(0.953099 1.5759 1.44411)
(0.88457 1.48587 1.47843)
(0.844577 1.46849 1.48622)
(0.79253 1.5065 1.46766)
(0.79383 1.45233 1.4631)
(0.647144 1.4302 1.24539)
(1.12971 1.18391 1.4749)
(0.968435 1.3948 1.42011)
(0.934787 1.42225 1.42662)
(1.0056 1.35335 1.4552)
(0.882427 1.43098 1.38979)
(0.85564 1.44656 1.39804)
(0.901425 1.43458 1.39681)
(0.89958 1.42649 1.38386)
(0.85849 1.39515 1.36614)
(0.973184 1.56728 1.4371)
(0.940104 1.61138 1.37511)
(0.944965 1.52635 1.4622)
(0.94516 1.50647 1.46121)
(0.902627 1.51894 1.4573)
(0.877705 1.49793 1.4521)
(0.823938 1.5322 1.35116)
(0.806195 1.55545 1.33825)
(1.21615 1.101 1.31971)
(1.07064 1.26313 1.48218)
(1.01063 1.32959 1.47052)
(0.987021 1.36892 1.47606)
(1.23718 1.21202 1.35503)
(1.1822 1.15683 1.33402)
(1.15333 1.23285 1.4825)
(1.04091 1.30955 1.46675)
(0.959986 1.42981 1.46772)
(0.719559 1.20647 1.34783)
(0.575204 1.20856 1.24927)
(0.767113 1.0713 1.1644)
(0.701906 1.24452 1.33016)
(0.68039 1.30446 1.08029)
(0.757409 1.15812 1.12126)
(0.780899 1.1892 1.10584)
(0.567636 1.1445 1.21467)
(0.891299 1.53966 1.30135)
(1.02239 1.63502 1.19793)
(1.08374 1.62674 1.13227)
(0.996114 1.43768 1.09821)
(0.820945 1.58333 1.2826)
(0.809151 1.46994 1.42149)
(0.758861 1.43835 1.431)
(0.702635 1.38667 1.33297)
(0.771389 1.15497 1.16248)
(0.713097 1.43677 1.43645)
(0.77812 1.21262 1.3466)
(0.756286 1.41827 1.40051)
(0.637562 1.28543 1.00619)
(0.846202 1.48621 1.05354)
(0.971076 1.52966 1.06132)
(0.809344 1.37055 1.09482)
(0.819538 1.33369 1.1404)
(0.869707 1.46139 1.18457)
(0.772731 1.40614 1.14469)
(0.803992 1.40019 1.17008)
(0.993288 1.46242 1.18844)
(0.952424 1.41975 1.1644)
(0.84432 1.2808 1.11542)
(0.982397 1.39872 1.18369)
(0.89877 1.37195 1.12304)
(0.557823 1.2688 1.31041)
(0.950814 1.37424 1.39457)
(0.731621 1.15859 1.39396)
(0.602307 1.28527 1.31622)
(1.02441 1.33427 1.41397)
(0.919959 1.41289 1.38699)
(0.859237 1.47084 1.42989)
(0.64458 1.31748 1.33617)
(0.787069 1.21118 1.22558)
(0.760194 1.20516 1.12831)
(0.76218 1.20748 1.0961)
(0.904802 1.30332 1.33087)
(0.675245 1.35808 1.37427)
(0.655979 1.3888 1.31414)
(0.744524 1.37713 1.38372)
(0.712714 1.298 1.08479)
(0.785505 1.23216 1.2033)
(0.695784 1.31416 1.09593)
(0.696879 1.29491 1.09817)
(0.698444 1.25735 1.08706)
(0.595389 1.23834 0.704614)
(0.707726 1.49208 0.762741)
(0.518888 1.11318 0.765349)
(0.513091 1.1149 0.67765)
(0.849695 1.49827 0.821738)
(0.775215 1.46282 0.638533)
(0.963929 1.55593 0.770445)
(0.915233 1.42511 0.592556)
(0.65524 1.23447 0.6211)
(0.70397 1.4422 0.775208)
(0.857934 1.3128 0.64484)
(0.884892 1.62878 0.648652)
(0.735563 1.53012 0.6171)
(0.585916 1.36501 0.750936)
(0.829315 1.26032 0.759872)
(0.816973 1.47863 0.733725)
(0.843538 1.51111 0.590648)
(0.622747 0.972325 0.769287)
(1.21041 1.10418 0.569251)
(0.679251 1.1024 0.876202)
(0.916542 1.24976 0.845046)
(0.876017 1.37559 0.681404)
(0.835241 1.21393 0.87295)
(0.849354 1.12586 0.955631)
(0.836582 1.5379 0.725536)
(0.676913 1.39359 0.664834)
(0.693324 1.206 0.628729)
(0.792173 1.09381 0.902177)
(0.915238 1.51397 0.526562)
(0.985563 1.39114 0.73702)
(0.947525 1.3719 0.602568)
(0.849858 1.2281 0.914324)
(0.984978 1.7248 0.849515)
(0.658733 1.42068 0.597013)
(0.874693 1.54951 0.541334)
(1.19315 1.14292 0.705834)
(0.588149 1.34984 0.701023)
(0.597715 1.31088 0.737271)
(0.562329 1.15681 0.744348)
(0.540095 1.11035 0.763669)
(0.533775 1.15247 0.75669)
(0.628524 1.42676 0.622251)
(0.668499 1.52855 0.66552)
(0.542813 1.04097 0.742182)
(0.594238 1.30521 0.652387)
(0.657454 1.3448 0.581826)
(0.905958 1.42172 0.605231)
(0.860331 1.45655 0.610715)
(1.03032 1.30826 0.532311)
(0.799439 1.50264 0.615426)
(0.875233 1.47573 0.596924)
(1.0486 1.28374 0.533026)
(0.857461 1.41393 0.625421)
(0.842613 1.3643 0.666779)
(0.736884 1.44859 0.654902)
(0.742768 1.50197 0.63589)
(0.792228 1.52279 0.594985)
(0.852076 1.37852 0.641615)
(1.20766 1.08812 0.766157)
(1.21275 1.09415 0.801377)
(1.17179 1.15817 0.675125)
(0.873082 1.4984 0.722774)
(0.862567 1.48228 0.739579)
(0.945437 1.52723 0.768677)
(0.830324 1.50144 0.717778)
(0.873097 1.51657 0.719631)
(1.02361 1.58949 0.808663)
(0.916819 1.56179 0.881073)
(0.864683 1.54809 0.733798)
(0.905787 1.54539 0.742432)
(1.01597 1.61641 0.799395)
(0.989533 1.59712 0.77997)
(1.04329 1.63667 0.848249)
(1.17701 1.19209 0.537908)
(1.16681 1.07508 0.734397)
(0.932281 1.46428 0.565408)
(0.991133 1.36218 0.547263)
(1.16745 1.21665 0.530087)
(0.697168 1.3357 0.651594)
(0.636388 1.43496 0.677269)
(0.574868 1.08138 0.645387)
(0.691878 1.07738 0.793427)
(0.732689 1.12623 0.833527)
(1.13184 1.08113 0.638)
(1.14252 1.14823 0.623671)
(1.19883 1.02509 0.634851)
(0.616859 1.39775 0.784885)
(0.646757 1.46968 0.704518)
(0.680694 1.46333 0.721657)
(0.653087 1.42298 0.710251)
(0.76288 1.46351 0.771597)
(0.785277 1.47534 0.793608)
(0.726827 1.46047 0.734378)
(0.694402 1.44099 0.809092)
(0.723932 1.56446 0.863439)
(0.691086 1.41325 0.682334)
(0.727355 1.39511 0.65719)
(0.846101 1.23914 0.738941)
(0.789216 1.23147 0.767336)
(0.926836 1.38304 0.61248)
(1.06591 1.23923 0.54255)
(1.02982 1.30427 0.570678)
(0.790104 1.19079 0.77214)
(0.829632 1.23635 0.60675)
(1.14376 1.12849 0.517216)
(0.805874 1.6148 0.706032)
(0.802781 1.53132 0.731868)
(0.800159 1.56753 0.705465)
(1.01506 1.59391 0.596143)
(0.824503 1.5946 0.716288)
(0.820724 1.55975 0.701106)
(0.974632 1.54218 0.529249)
(0.993262 1.52684 0.536177)
(0.951984 1.58572 0.559783)
(0.837772 1.60963 0.620689)
(0.889092 1.52599 0.530236)
(0.791186 1.57034 0.597178)
(0.727681 1.56299 0.649515)
(0.694313 1.48169 0.643628)
(0.873316 1.51808 0.559078)
(0.816512 1.52233 0.561512)
(0.785418 1.53986 0.580506)
(0.897638 1.5139 0.576722)
(0.929769 1.51885 0.550791)
(0.510644 1.05443 0.754302)
(0.49534 1.08768 0.731075)
(0.503005 1.13295 0.734204)
(0.533364 1.05234 0.658667)
(0.510752 1.03704 0.697143)
(0.674358 1.09891 0.900393)
(0.62997 1.17691 0.580425)
(0.673356 1.10682 0.891975)
(0.621981 1.02349 0.818871)
(0.766588 1.17887 0.695389)
(0.930712 1.32006 0.79097)
(0.582995 1.03749 0.649239)
(0.779232 1.0783 0.923833)
(0.557486 1.03341 0.650455)
(0.608539 0.988565 0.718145)
(0.989913 1.73772 0.829177)
(1.06489 1.74713 0.899739)
(0.653062 1.25607 0.8898)
(0.642972 1.22775 0.863764)
(0.63348 1.2797 0.9038)
(0.649172 1.18482 0.804709)
(0.890326 1.18041 0.88084)
(0.844382 1.48498 0.904075)
(0.850483 1.49344 0.910141)
(0.951134 1.17489 0.829926)
(0.901588 1.45688 0.771082)
(0.808391 1.32927 0.774589)
(0.922652 1.22363 0.822363)
(0.981045 1.43389 0.740744)
(0.904432 1.39369 0.85455)
(0.77736 1.2136 0.86682)
(0.874284 1.45153 0.88663)
(0.942121 1.41449 0.925824)
(0.906478 1.365 0.893413)
(1.11281 1.56654 0.84797)
(0.63127 1.0932 0.862907)
(0.55997 1.23792 0.847286)
(0.663755 1.09347 0.864467)
(0.863302 1.13983 0.871158)
(0.77458 1.13428 0.868864)
(0.741342 1.20959 0.805383)
(1.35337 1.62556 0.777359)
(1.21441 1.64264 0.846934)
(1.58862 1.44189 0.779718)
(1.14192 1.44484 0.684564)
(1.11785 1.73626 0.811136)
(1.61823 1.33504 0.79529)
(1.29421 1.1819 0.696959)
(1.32141 1.35275 0.753779)
(1.24693 1.68472 0.874042)
(1.23836 1.56436 0.672869)
(0.939381 1.61835 0.729149)
(1.35271 1.56309 0.780893)
(1.39744 1.4459 0.734883)
(1.29623 1.30782 0.744707)
(1.42971 1.48845 0.670992)
(1.24867 1.16655 0.716624)
(1.52856 1.30631 0.697198)
(1.14325 1.38391 0.660986)
(1.24252 1.52794 0.914341)
(1.63265 1.42561 0.89442)
(1.56363 1.51766 0.896973)
(1.48242 1.42253 0.719691)
(1.31628 1.25581 0.662694)
(0.972956 1.67044 0.780188)
(1.26056 1.5342 0.87515)
(1.54348 1.50446 0.76048)
(1.36475 1.27482 0.658383)
(1.3889 1.37301 0.742635)
(1.11928 1.72528 0.906968)
(1.65396 1.34301 0.904882)
(1.2418 1.08728 0.719976)
(1.48855 1.56998 0.794342)
(1.49734 1.52178 0.927008)
(1.42078 1.28997 0.659796)
(0.901075 1.57893 0.756059)
(1.12878 1.56115 0.665668)
(1.65607 1.36193 0.949166)
(1.65852 1.30593 0.951782)
(1.6463 1.29237 0.885133)
(1.29165 1.62721 0.836409)
(1.25169 1.66296 0.839209)
(1.27634 1.62219 0.786485)
(1.19738 1.57948 0.824517)
(1.30808 1.6073 0.678725)
(1.35817 1.60551 0.788141)
(1.31281 1.59889 0.857306)
(1.35611 1.49283 0.651434)
(1.41191 1.5891 0.700774)
(1.42637 1.60762 0.765302)
(1.44332 1.58131 0.801478)
(1.47776 1.5675 0.730035)
(1.27415 1.51081 0.912663)
(1.25754 1.51205 0.788955)
(1.14135 1.66964 0.953509)
(1.20232 1.5028 0.959239)
(1.23186 1.62246 0.974197)
(1.28325 1.51808 0.783406)
(1.34348 1.51736 0.815625)
(1.23265 1.53656 0.902628)
(1.352 1.53189 0.798232)
(1.41568 1.52885 0.852129)
(1.30135 1.54785 0.828007)
(1.5301 1.50679 0.968616)
(1.47998 1.50028 0.958406)
(1.45203 1.54758 0.857441)
(1.5613 1.50735 0.948966)
(1.5992 1.47782 0.935085)
(1.54008 1.5241 0.913542)
(1.62813 1.43883 0.944076)
(1.64655 1.39268 0.940512)
(1.60802 1.46326 0.884662)
(1.64584 1.37486 0.893262)
(1.21967 1.04158 0.75713)
(1.22405 1.06466 0.763123)
(1.25508 1.09472 0.699577)
(0.982736 1.70815 0.801849)
(1.04994 1.74045 0.798729)
(1.10966 1.74608 0.850181)
(1.07236 1.75556 0.828226)
(0.985807 1.62832 0.784644)
(1.0462 1.69798 0.770959)
(1.22384 1.6711 0.935724)
(1.15748 1.71599 0.906795)
(1.18038 1.72066 0.854015)
(1.1573 1.70143 0.803865)
(1.60237 1.38559 0.776522)
(1.56204 1.37616 0.72554)
(1.57666 1.31235 0.738862)
(1.54823 1.23465 0.742839)
(1.5906 1.25236 0.782804)
(1.63075 1.37873 0.837338)
(1.63858 1.33507 0.847005)
(1.61349 1.42782 0.829575)
(1.62716 1.28284 0.833211)
(0.942379 1.59028 0.762496)
(0.845592 1.57384 0.694684)
(0.865876 1.57127 0.730519)
(0.964815 1.61531 0.776076)
(1.09347 1.5034 0.566285)
(1.06872 1.58915 0.630656)
(0.869027 1.60294 0.747496)
(1.16265 1.33637 0.636638)
(1.11743 1.44471 0.583564)
(1.11073 1.48419 0.63291)
(1.22544 1.1064 0.728413)
(1.21252 1.18849 0.651245)
(1.26461 1.24456 0.705377)
(1.24888 1.11256 0.730346)
(1.34767 1.40484 0.738331)
(1.31261 1.47613 0.691075)
(1.24563 1.42829 0.699003)
(1.20257 1.40064 0.693646)
(1.30856 1.33768 0.759853)
(1.25932 1.35544 0.699685)
(1.11852 1.38514 0.680199)
(1.11281 1.47808 0.669424)
(1.16267 1.51444 0.811086)
(1.15307 1.54463 0.749684)
(1.21492 1.5342 0.683951)
(1.34023 1.49121 0.672763)
(1.03974 1.58707 0.703776)
(1.10035 1.63258 0.788504)
(1.1351 1.51901 0.805103)
(0.940567 1.64101 0.787275)
(1.32306 1.20819 0.726792)
(1.33594 1.24947 0.72934)
(1.31192 1.217 0.677361)
(1.34131 1.30334 0.738847)
(1.291 1.20955 0.726983)
(1.28688 1.16594 0.72029)
(1.26814 1.1451 0.704833)
(1.30259 1.16261 0.666061)
(1.33674 1.17334 0.65569)
(1.27702 1.13966 0.688205)
(1.35407 1.36496 0.749936)
(1.40805 1.40903 0.758958)
(1.34996 1.3247 0.719527)
(1.2771 1.63185 0.918441)
(1.41671 1.45924 0.717794)
(0.933465 1.60338 0.781564)
(1.50418 1.54792 0.862859)
(1.46912 1.45559 0.720473)
(1.44805 1.43875 0.750738)
(1.43757 1.40079 0.737207)
(1.51203 1.45522 0.717966)
(1.49288 1.50621 0.705068)
(1.52285 1.538 0.775741)
(1.44179 1.36891 0.691387)
(1.46971 1.28894 0.671568)
(1.49637 1.3742 0.695849)
(1.46216 1.21657 0.696562)
(1.50318 1.21928 0.717264)
(1.5345 1.42329 0.721841)
(1.38707 1.34084 0.692681)
(1.38977 1.28608 0.660813)
(1.3627 1.33051 0.701355)
(1.42821 1.22685 0.677744)
(1.40847 1.21491 0.673103)
(1.58664 1.47807 0.833142)
(1.5621 1.50474 0.825984)
(1.54059 1.52622 0.847823)
(1.56713 1.46507 0.768167)
(1.33666 1.27079 0.659541)
(1.36107 1.19138 0.659219)
(1.38523 1.20064 0.667508)
(0.967468 1.4322 1.35712)
(0.819106 1.01121 1.1069)
(0.952725 1.12251 1.15633)
(1.07496 1.20391 1.20357)
(1.01698 1.29718 1.12968)
(0.861042 1.19147 1.3418)
(0.73874 1.27049 1.36896)
(0.758057 1.21396 1.37182)
(0.822058 1.07661 1.31284)
(1.09693 1.30859 1.18376)
(1.0231 1.16495 1.15614)
(0.959298 1.20122 1.27591)
(1.23088 1.27395 1.10021)
(1.00997 1.152 1.14066)
(0.962392 1.25361 1.03328)
(0.937157 1.30623 0.996013)
(0.958076 1.30142 1.01674)
(1.05987 1.23651 1.04034)
(1.26959 1.30082 1.05797)
(1.01853 1.2479 1.05187)
(0.617249 1.19892 1.35335)
(0.717222 1.30207 1.35443)
(0.656747 1.13794 1.36281)
(0.922723 1.12455 1.11558)
(0.719269 1.08188 1.36408)
(0.989366 1.09568 1.16651)
(1.00177 1.11152 1.16312)
(0.976804 1.11447 1.13891)
(1.01415 1.16879 1.14028)
(0.668694 1.22261 1.36857)
(0.58625 1.10471 1.35099)
(0.76578 0.94379 1.21859)
(0.896318 1.05145 1.14506)
(0.797149 1.04592 1.33083)
(0.912835 1.24548 1.21718)
(0.92069 1.1647 1.26744)
(0.895964 1.14035 1.22455)
(0.929574 1.09105 1.14382)
(0.929756 1.14556 1.29459)
(1.10581 1.27295 1.08664)
(1.23592 1.23385 1.16405)
(1.1522 1.26434 1.08627)
(0.937248 1.28165 1.04256)
(0.988029 1.20241 1.27106)
(1.01057 1.29676 1.33109)
(0.948323 1.1796 1.36182)
(1.12456 1.28883 1.16719)
(1.06718 1.28845 1.22474)
(1.02909 1.16845 1.259)
(1.28185 1.30259 1.16353)
(1.27037 1.2564 1.17773)
(0.853863 1.20804 1.35416)
(0.774189 1.3129 1.36682)
(0.804442 1.17081 1.3723)
(0.832478 1.15791 1.35914)
(0.955187 1.06754 1.19895)
(0.956687 1.06941 1.19863)
(0.966188 1.06677 1.19488)
(0.985849 1.07952 1.17539)
(0.944003 1.38834 1.3409)
(0.927734 1.25049 1.30133)
(0.960244 1.32981 1.31399)
(0.884423 1.23363 1.33825)
(0.96572 1.40756 1.34524)
(1.06629 1.29469 1.13779)
(1.0258 1.30512 1.18008)
(1.00899 1.38655 1.31439)
(0.983727 1.43467 1.34272)
(1.00898 1.14833 1.30451)
(0.922602 1.045 1.18356)
(0.829839 1.13037 1.25384)
(0.870823 1.16491 1.33018)
(1.15651 1.42745 1.00335)
(1.42107 1.43676 1.04954)
(1.45025 1.43443 1.04831)
(1.40525 1.48835 1.1777)
(1.43104 1.43287 1.16421)
(1.18988 1.42089 1.04488)
(1.46459 1.36632 1.1108)
(1.4802 1.40897 1.0955)
(1.24618 1.31067 1.08187)
(1.44026 1.2275 1.04258)
(1.41007 1.42452 1.21566)
(1.17911 1.41227 1.0509)
(1.30711 1.43272 1.2854)
(1.04122 1.34071 1.03205)
(1.31933 1.37379 1.0453)
(1.47902 1.40203 1.0517)
(1.47007 1.39308 1.05948)
(1.48017 1.38551 1.10892)
(1.40889 1.45943 1.24988)
(1.44703 1.49183 1.17315)
(1.45318 1.42891 1.07827)
(1.40201 1.47227 1.12237)
(1.46214 1.39644 1.09921)
(1.43518 1.44385 1.05999)
(1.4507 1.42057 1.13567)
(1.45664 1.38339 1.13292)
(1.44022 1.47197 1.17291)
(1.03935 1.28666 1.03207)
(1.04774 1.42768 1.03046)
(1.24515 1.3531 0.993595)
(1.1256 1.27486 1.00138)
(1.08364 1.29675 1.01649)
(1.41394 1.36223 1.03625)
(1.41568 1.22685 1.05446)
(1.43281 1.28509 1.0245)
(1.43565 1.21874 1.05798)
(1.45654 1.20928 1.02908)
(1.26769 1.42865 1.01753)
(1.26953 1.47191 1.07534)
(1.2813 1.43649 1.19019)
(1.3591 1.45929 1.14309)
(1.37378 1.42721 1.24506)
(1.27072 1.40635 1.03108)
(1.25576 1.36199 1.0819)
(1.30153 1.34151 1.04529)
(1.17881 1.30206 1.1048)
(1.28013 1.31397 1.05898)
(1.29275 1.31635 1.07155)
(1.33335 1.38847 1.03299)
(1.19399 1.38238 1.04316)
(1.166 1.31763 1.09096)
(1.23785 1.35262 1.04809)
(1.27932 1.3945 1.25864)
(1.38225 1.411 1.21832)
(1.36781 1.41609 1.22021)
(1.06789 1.41861 1.01095)
(1.19642 1.32253 1.05704)
(1.23067 1.45803 1.03943)
(1.23891 1.43038 1.20077)
(1.26033 1.4751 1.01355)
(1.31735 1.43486 1.30788)
(1.16319 1.39637 1.12831)
(1.32498 1.39651 1.26232)
(1.4421 1.21926 1.02133)
(1.41981 1.39838 1.00923)
(1.42253 1.41691 1.01069)
(1.36301 1.48221 1.13465)
(1.41181 1.50196 1.16515)
(1.48637 1.41566 1.04213)
(1.48009 1.43566 1.06833)
(1.37867 1.46636 1.26883)
(1.46017 1.43963 1.04336)
(1.18947 1.35838 0.930124)
(1.39955 1.42365 0.981436)
(1.32725 1.46394 0.774255)
(1.14924 1.40421 0.983463)
(1.41792 1.44443 0.860118)
(1.45259 1.43626 0.989177)
(1.09234 1.36926 0.872783)
(1.44404 1.45071 0.929311)
(1.05505 1.36308 0.867921)
(1.27991 1.49275 0.891028)
(1.43685 1.24736 0.973412)
(1.23043 1.35664 0.887677)
(1.49501 1.40502 0.989896)
(1.03226 1.33816 1.00207)
(1.16177 1.30281 0.968778)
(1.03279 1.35039 0.724762)
(0.975534 1.35773 1.00951)
(1.01186 1.26556 0.975197)
(1.09362 1.3064 0.98812)
(1.08732 1.3676 0.878614)
(1.06606 1.41877 0.66772)
(1.06272 1.35892 0.731133)
(1.08756 1.3188 0.87144)
(1.19423 1.32304 0.875322)
(1.26585 1.37176 0.931119)
(1.2412 1.36187 0.916493)
(1.19569 1.38532 0.965708)
(1.45209 1.44044 0.918212)
(1.24369 1.47394 0.752295)
(1.236 1.47603 0.742234)
(1.27637 1.47219 0.772582)
(1.09195 1.34477 0.876317)
(1.15863 1.35954 0.922622)
(1.17683 1.45421 0.750861)
(1.10572 1.45448 0.965924)
(1.14848 1.434 0.765619)
(1.13706 1.42789 0.885338)
(1.39304 1.45203 0.824692)
(1.12497 1.45242 0.945137)
(1.18961 1.36527 0.862931)
(1.2087 1.38553 0.92269)
(1.20186 1.4244 0.948917)
(1.34393 1.48834 0.907837)
(1.34637 1.47553 0.846986)
(1.45676 1.449 0.970252)
(1.22961 1.48981 0.850305)
(1.47147 1.42291 0.95964)
(1.33342 1.49077 0.931558)
(1.36323 1.49009 0.962556)
(1.39964 1.24775 0.92995)
(1.3641 1.47368 0.944082)
(1.26095 1.48264 0.852033)
(1.18221 1.46906 0.918063)
(1.43506 1.46558 1.01007)
(1.40771 1.40081 0.982788)
(1.42248 1.20521 0.954311)
(1.39946 1.20394 0.944914)
(1.32413 1.48308 0.837652)
(1.48683 1.4094 1.00555)
(1.48715 1.4419 0.998513)
(1.45531 1.46089 0.936371)
(1.38311 1.47839 0.859756)
(1.4393 1.22403 0.981581)
(1.44233 1.43113 1.01226)
(1.45793 1.4329 1.00993)
(1.47805 1.42002 0.988846)
(1.4446 1.2015 0.968859)
(1.48634 1.42626 0.959079)
(1.05402 1.23601 0.826431)
(0.693571 1.31395 0.878423)
(0.902069 1.29888 0.698737)
(0.781348 1.36777 0.932767)
(0.879316 1.24511 0.674716)
(1.24018 1.26702 0.842578)
(0.694875 1.03182 0.718248)
(0.936105 1.2409 0.794412)
(0.884701 1.4274 0.747188)
(0.914984 1.17054 0.747035)