/*--------------------------------*- C++ -*----------------------------------*\
| =========                 |                                                 |
| \\      /  F ield         | OpenFOAM: The Open Source CFD Toolbox           |
|  \\    /   O peration     | Version:  v1806                                 |
|   \\  /    A nd           | Web:      www.OpenFOAM.com                      |
|    \\/     M anipulation  |                                                 |
\*---------------------------------------------------------------------------*/
FoamFile
{
    version     2.0;
    format      ascii;
    class       vectorField;
    location    "0.055";
    object      currentcloudofpoints;
}
// * * * * * * * * * * * * * * * * * * * * * * * * * * * * * * * * * * * * * //


2409
(
(0.796475 1.35986 1.00274)
(0.720582 0.941279 1.00142)
(1.26221 1.35103 0.999513)
(0.975087 1.07946 0.775802)
(0.979458 1.08149 1.22338)
(1.10185 1.10187 1.00019)
(0.733285 1.50009 0.998911)
(0.645087 0.736747 1.00105)
(1.39849 1.51552 0.999789)
(1.01343 1.09036 0.592319)
(0.995073 1.09538 1.39722)
(1.24724 1.33606 1.08309)
(1.20637 1.29676 1.15072)
(1.14108 1.23807 1.20038)
(1.06407 1.15773 1.24153)
(1.25553 1.34536 1.04226)
(1.22832 1.31632 1.11784)
(1.17425 1.26795 1.17446)
(1.10182 1.20014 1.2212)
(1.02349 1.1151 1.24157)
(0.7385 0.946624 1.05787)
(0.788995 0.950468 1.10069)
(0.852138 0.962966 1.12906)
(0.915193 1.01429 1.16263)
(0.726697 0.946321 1.02957)
(0.763574 0.951084 1.07786)
(0.822793 0.952586 1.11399)
(0.887518 0.984278 1.13999)
(0.94411 1.05047 1.18733)
(1.24538 1.33586 0.915071)
(1.20287 1.29689 0.847948)
(1.13752 1.23823 0.800463)
(1.06138 1.15428 0.759377)
(1.25509 1.34458 0.956313)
(1.2252 1.31663 0.880699)
(1.1707 1.26852 0.8246)
(1.09936 1.19834 0.780521)
(1.01781 1.11168 0.758572)
(0.915217 1.0123 0.836929)
(0.85324 0.96386 0.871284)
(0.789306 0.9544 0.899928)
(0.742031 0.946506 0.944491)
(0.943368 1.04962 0.81293)
(0.887776 0.982475 0.85909)
(0.823263 0.955935 0.886778)
(0.765814 0.952077 0.92367)
(0.72966 0.946492 0.973388)
(0.931587 1.15301 1.1649)
(0.87427 1.23832 1.15315)
(0.830391 1.30288 1.11769)
(0.804414 1.34231 1.08393)
(0.956095 1.11606 1.18032)
(0.903879 1.1928 1.15735)
(0.850295 1.27573 1.13117)
(0.815797 1.32224 1.10049)
(0.798839 1.35297 1.04511)
(0.803193 1.34304 0.919067)
(0.827287 1.30605 0.87488)
(0.871741 1.24288 0.841744)
(0.92942 1.15344 0.838725)
(0.798273 1.35215 0.960475)
(0.813852 1.32508 0.895899)
(0.847385 1.27977 0.862064)
(0.901002 1.19589 0.841186)
(0.954119 1.11494 0.822422)
(0.681588 1.05192 1.00123)
(0.670096 1.13241 1.00135)
(0.677182 1.20502 0.999926)
(0.714632 1.28935 0.999704)
(0.702509 1.00162 1.00279)
(0.678599 1.09618 1.00029)
(0.676225 1.16789 1.00116)
(0.692677 1.24599 0.999309)
(0.752399 1.32512 1.00122)
(0.898706 1.40628 1.00687)
(0.996822 1.4225 1.0069)
(1.10171 1.41543 1.00022)
(1.19062 1.39317 0.999668)
(0.848089 1.38376 1.00417)
(0.949288 1.41495 1.00827)
(1.0473 1.41767 1.00296)
(1.14966 1.40154 0.999587)
(1.22744 1.37814 0.999522)
(0.662997 0.756952 1.14028)
(0.709558 0.78658 1.24881)
(0.745917 0.819153 1.32135)
(0.788951 0.856073 1.36406)
(0.841702 0.898478 1.37327)
(0.894671 0.959192 1.39169)
(0.955167 1.025 1.39838)
(0.648139 0.748922 1.07432)
(0.688168 0.767874 1.19622)
(0.728082 0.806484 1.28775)
(0.76719 0.837067 1.34478)
(0.816513 0.877315 1.36828)
(0.867291 0.925896 1.38021)
(0.92819 0.991612 1.39244)
(0.977643 1.06002 1.39467)
(1.07321 1.1573 1.40798)
(1.15686 1.21385 1.38436)
(1.2196 1.27259 1.34987)
(1.2758 1.33371 1.30897)
(1.33289 1.39256 1.24911)
(1.36974 1.45601 1.17576)
(1.3921 1.50123 1.0918)
(1.02796 1.12668 1.40393)
(1.11816 1.18714 1.39597)
(1.19018 1.24106 1.36509)
(1.24615 1.30333 1.32859)
(1.30456 1.36053 1.27998)
(1.3523 1.42331 1.21224)
(1.38198 1.47921 1.13487)
(1.39605 1.50934 1.04622)
(0.666253 0.753031 0.858923)
(0.701418 0.784252 0.743547)
(0.744768 0.81393 0.675082)
(0.786576 0.853396 0.6367)
(0.838483 0.898777 0.620372)
(0.893495 0.958601 0.609464)
(0.955321 1.0238 0.598465)
(0.65132 0.740635 0.928385)
(0.682824 0.771138 0.79774)
(0.724857 0.798845 0.705573)
(0.766702 0.834165 0.65548)
(0.81329 0.875195 0.62937)
(0.865382 0.926927 0.615652)
(0.925738 0.990711 0.608653)
(0.986021 1.0567 0.595814)
(1.39155 1.50123 0.908317)
(1.37016 1.45691 0.824191)
(1.33344 1.39283 0.751044)
(1.27728 1.33286 0.690537)
(1.22023 1.2715 0.648916)
(1.15665 1.2148 0.616502)
(1.08162 1.15537 0.597188)
(1.39546 1.50918 0.953522)
(1.38191 1.4797 0.865355)
(1.35285 1.42418 0.787632)
(1.30566 1.36012 0.720194)
(1.24747 1.30208 0.670195)
(1.18998 1.24095 0.634489)
(1.11906 1.18724 0.607929)
(1.04737 1.12265 0.594378)
(0.734589 1.48945 1.13384)
(0.73375 1.46791 1.23067)
(0.757386 1.4238 1.31458)
(0.815493 1.35176 1.38343)
(0.868271 1.29303 1.39323)
(0.911554 1.23393 1.39971)
(0.943193 1.16905 1.38444)
(0.734466 1.49735 1.07265)
(0.736104 1.47799 1.18901)
(0.743561 1.44803 1.27522)
(0.788162 1.38707 1.35503)
(0.844437 1.31933 1.39294)
(0.890634 1.26632 1.38843)
(0.925513 1.20196 1.39574)
(0.969178 1.13352 1.3876)
(0.733979 1.48868 0.866102)
(0.732681 1.4684 0.773444)
(0.762441 1.42111 0.68258)
(0.814655 1.35131 0.618181)
(0.869017 1.29289 0.610361)
(0.908332 1.23738 0.605698)
(0.96048 1.16694 0.600062)
(0.736042 1.49425 0.925442)
(0.733396 1.47929 0.814727)
(0.74641 1.44655 0.723997)
(0.789692 1.38622 0.645715)
(0.845094 1.31832 0.609371)
(0.890595 1.2671 0.614443)
(0.925707 1.20333 0.604393)
(0.991066 1.12973 0.591243)
(0.592098 0.822238 1.00072)
(0.563043 0.899837 1.00114)
(0.539255 0.989554 1.00131)
(0.53009 1.08784 0.998877)
(0.534326 1.18698 0.999556)
(0.564039 1.28533 0.999398)
(0.632137 1.3928 0.999779)
(0.61428 0.783474 1.00077)
(0.576312 0.862741 1.00091)
(0.550941 0.942479 1.00141)
(0.533499 1.03878 0.999838)
(0.530613 1.13696 0.999097)
(0.546206 1.23646 0.999237)
(0.594414 1.33729 0.999925)
(0.681198 1.44797 0.999121)
(0.830883 1.57499 0.998139)
(0.910395 1.61984 0.998777)
(0.995964 1.64161 1.00026)
(1.08498 1.63314 1.00099)
(1.16294 1.61695 1.00028)
(1.23481 1.59669 0.999605)
(1.31348 1.56282 0.999923)
(0.786376 1.54181 0.998757)
(0.874135 1.59906 0.99825)
(0.954775 1.63261 0.999388)
(1.04359 1.63721 1.00081)
(1.12592 1.62204 1.00077)
(1.1988 1.60351 0.999731)
(1.272 1.57895 0.999754)
(1.35675 1.53848 0.999847)
(0.989614 1.08498 0.687898)
(1.00843 1.08711 0.629338)
(0.981643 1.07903 0.732077)
(1.00205 1.08076 1.314)
(0.992627 1.07727 1.26977)
(1.00143 1.08783 1.36347)
(0.694533 0.822432 0.996921)
(0.710927 0.881772 0.998085)
(0.65138 0.7779 0.999668)
(1.33336 1.41491 0.999448)
(1.29521 1.38237 0.999614)
(1.37316 1.45778 0.999448)
(0.962781 1.55413 1.26954)
(0.982499 1.61571 1.18035)
(1.0447 1.32229 1.3888)
(1.15955 1.5885 1.16501)
(0.857088 1.5919 1.09729)
(1.07095 1.2447 1.40628)
(1.30524 1.5396 1.13976)
(1.22732 1.54182 1.22551)
(0.876824 1.58357 1.19272)
(1.06797 1.58513 1.2219)
(1.06414 1.62352 1.12141)
(0.856461 1.48396 1.31502)
(1.12973 1.51823 1.28145)
(1.22746 1.57974 1.13491)
(1.04678 1.49663 1.31981)
(1.2641 1.58072 1.06646)
(1.13315 1.30864 1.39927)
(1.19739 1.59955 1.07644)
(0.798866 1.5453 1.15943)
(0.979384 1.24574 1.38663)
(0.959266 1.33664 1.40029)
(1.10183 1.41219 1.36096)
(1.28915 1.46854 1.24329)
(0.96259 1.63204 1.08991)
(0.79751 1.51447 1.24065)
(1.02482 1.4013 1.37637)
(1.25728 1.40538 1.3051)
(1.20096 1.4636 1.31349)
(0.795708 1.55208 1.08167)
(1.01062 1.18694 1.40149)
(1.33599 1.54698 1.06025)
(0.959537 1.45763 1.35751)
(0.893015 1.38215 1.38895)
(1.19806 1.37184 1.35582)
(1.02912 1.63759 1.05308)
(1.13569 1.61288 1.07561)
(1.06465 1.2036 1.40993)
(1.10928 1.23146 1.40397)
(0.99562 1.14274 1.39976)
(1.03356 1.17321 1.41001)
(1.04102 1.2163 1.40295)
(1.14636 1.26176 1.39261)
(1.17896 1.29148 1.37344)
(1.10591 1.27556 1.4033)
(1.2092 1.32197 1.34932)
(1.23672 1.3517 1.32716)
(1.16525 1.34019 1.37807)
(1.26584 1.36822 1.3042)
(1.29463 1.39513 1.27243)
(1.22705 1.38928 1.33129)
(1.31228 1.42735 1.24233)
(1.3269 1.45943 1.20597)
(1.27641 1.4332 1.27401)
(1.33862 1.49694 1.15932)
(1.34798 1.51852 1.11501)
(1.29765 1.50553 1.19583)
(1.36505 1.52496 1.07617)
(1.36875 1.53095 1.02997)
(1.3198 1.54308 1.09992)
(1.32484 1.55469 1.03032)
(0.889721 1.60645 1.04785)
(0.846824 1.58437 1.05237)
(0.828145 1.57342 1.09136)
(0.815171 1.56496 1.04022)
(0.767415 1.52865 1.04634)
(0.983287 1.63527 1.04544)
(0.940282 1.62564 1.04775)
(0.913373 1.61396 1.09577)
(1.05923 1.63336 1.02789)
(1.01378 1.63955 1.02717)
(0.997898 1.63553 1.07149)
(1.14931 1.61293 1.03811)
(1.11213 1.62 1.03866)
(1.08727 1.62004 1.06701)
(1.21547 1.59617 1.03839)
(1.18012 1.60505 1.03873)
(1.16691 1.60366 1.07705)
(1.28805 1.57073 1.03406)
(1.24893 1.58777 1.03287)
(1.22966 1.5886 1.07201)
(1.29848 1.56234 1.06481)
(0.919987 1.57037 1.23428)
(0.93101 1.6014 1.18846)
(0.971487 1.58694 1.22574)
(1.02654 1.60151 1.20238)
(1.01554 1.57216 1.24559)
(0.924585 1.61263 1.14309)
(0.974305 1.62587 1.13626)
(1.02646 1.6221 1.15091)
(1.0679 1.60637 1.17353)
(1.01572 1.63046 1.10588)
(1.06312 1.28393 1.3894)
(1.09052 1.31652 1.39205)
(1.02918 1.24484 1.38682)
(1.01398 1.28413 1.38335)
(1.07362 1.36454 1.37723)
(1.11642 1.35945 1.38109)
(1.00121 1.32949 1.39166)
(0.969351 1.29199 1.39271)
(1.03389 1.35896 1.38374)
(0.992969 1.36765 1.38941)
(1.06269 1.405 1.36481)
(1.14778 1.59887 1.12205)
(1.17879 1.59128 1.12276)
(1.11469 1.59998 1.14776)
(1.10286 1.61341 1.10167)
(1.17813 1.52585 1.25804)
(1.1486 1.55538 1.22759)
(1.19282 1.56444 1.19688)
(1.19352 1.58142 1.15182)
(1.22929 1.5619 1.18167)
(1.21176 1.58885 1.1056)
(1.11828 1.58136 1.19736)
(1.10063 1.54961 1.25277)
(0.838777 1.56585 1.17897)
(0.829448 1.57124 1.1293)
(0.868361 1.58966 1.149)
(0.798658 1.5493 1.12415)
(0.769093 1.51843 1.15082)
(0.768442 1.50652 1.19897)
(0.765821 1.52303 1.10952)
(0.76658 1.49178 1.23754)
(0.776767 1.47046 1.28063)
(0.798461 1.53008 1.20326)
(0.808813 1.45389 1.31725)
(0.836282 1.41561 1.35597)
(0.826275 1.50149 1.27995)
(0.881632 1.33485 1.395)
(0.854923 1.36729 1.3862)
(0.875955 1.43123 1.35894)
(0.913271 1.31829 1.39499)
(0.932905 1.28801 1.39406)
(0.928212 1.35949 1.3952)
(0.942353 1.24135 1.39528)
(0.95945 1.20863 1.38457)
(0.977004 1.17864 1.38771)
(0.997399 1.21623 1.38592)
(0.913169 1.51935 1.29597)
(0.963061 1.50681 1.31693)
(0.910601 1.4711 1.33938)
(1.00575 1.4777 1.33982)
(1.00863 1.52557 1.2968)
(0.868819 1.53509 1.25922)
(1.05572 1.54244 1.27177)
(1.28431 1.56023 1.10449)
(0.92668 1.41957 1.37492)
(0.961367 1.39143 1.38536)
(0.9953 1.42912 1.36903)
(1.03617 1.44874 1.35233)
(1.04826 1.62952 1.0877)
(1.26537 1.55921 1.14094)
(1.26666 1.53847 1.18652)
(1.2579 1.50517 1.24151)
(1.24499 1.57817 1.10168)
(1.21401 1.49999 1.2737)
(1.16255 1.49032 1.29972)
(1.24808 1.46278 1.28173)
(0.839455 1.54927 1.21945)
(1.08764 1.50589 1.29858)
(1.07459 1.45084 1.34233)
(1.11638 1.4648 1.32653)
(1.15013 1.43872 1.33975)
(1.1503 1.39333 1.36283)
(1.20087 1.41657 1.33843)
(1.23104 1.434 1.3134)
(0.667271 1.12636 1.37136)
(0.580564 1.21414 1.24215)
(0.59707 0.985304 1.23002)
(0.621512 0.920764 1.23555)
(0.610358 1.2563 1.29686)
(0.750504 1.17065 1.38652)
(0.640852 0.835893 1.19939)
(0.670647 1.41161 1.19696)
(0.865807 1.06054 1.39461)
(0.606186 1.17796 1.31054)
(0.652124 0.980776 1.31724)
(0.600403 1.30775 1.20668)
(0.686825 1.22239 1.37268)
(0.79898 1.00473 1.37745)
(0.782386 1.26292 1.39151)
(0.699822 1.30927 1.35372)
(0.677754 0.888441 1.28235)
(0.882414 1.15306 1.39762)
(0.583357 0.898968 1.13755)
(0.546999 1.18776 1.1428)
(0.805967 1.11377 1.37837)
(0.659496 1.36138 1.27626)
(0.83659 1.21485 1.37977)
(0.543398 1.09351 1.13299)
(0.721115 0.994681 1.36261)
(0.722985 0.914999 1.34449)
(0.607768 1.0785 1.30158)
(0.668339 1.0483 1.36027)
(0.773457 0.935731 1.37098)
(0.729542 1.07715 1.37876)
(0.575715 1.06458 1.20824)
(0.581314 1.13956 1.23863)
(0.612126 0.811726 1.10471)
(0.92622 1.10026 1.3852)
(0.551571 0.997315 1.10855)
(0.633246 1.38183 1.09992)
(0.563006 1.2669 1.0926)
(0.607687 0.872671 1.17197)
(0.602146 0.911555 1.1918)
(0.630188 0.8792 1.21575)
(0.622747 0.827629 1.15618)
(0.59542 0.857159 1.12249)
(0.649748 0.904588 1.2578)
(0.66298 0.860078 1.24242)
(0.650112 0.79802 1.17205)
(0.676286 0.810394 1.22214)
(0.634395 0.787963 1.12374)
(0.693159 0.839359 1.26555)
(0.8866 1.00874 1.39283)
(0.918448 1.04112 1.39155)
(0.823388 0.953304 1.37758)
(0.847819 0.97843 1.38713)
(0.831176 1.03031 1.38361)
(0.944424 1.06237 1.39078)
(0.96333 1.09875 1.38793)
(0.898567 1.07934 1.39038)
(0.588806 1.25992 1.22786)
(0.609448 1.28261 1.26094)
(0.597378 1.23561 1.27419)
(0.632885 1.33507 1.24975)
(0.635547 1.30655 1.29277)
(0.648021 1.24036 1.34102)
(0.653792 1.28378 1.32983)
(0.695655 1.26337 1.36561)
(0.609522 1.21613 1.30665)
(0.64304 1.20126 1.34564)
(0.676597 1.33755 1.31862)
(0.59777 1.19691 1.28261)
(0.609305 0.952787 1.23399)
(0.591409 0.943068 1.18561)
(0.569207 0.947431 1.12258)
(0.576971 0.993111 1.17424)
(0.57043 0.895485 1.07091)
(0.584181 0.857125 1.07197)
(0.600594 0.814273 1.05313)
(0.55474 0.945479 1.05589)
(0.634402 1.35877 1.20801)
(0.665706 1.38683 1.24234)
(0.615528 1.34452 1.16069)
(0.653832 1.39769 1.15513)
(0.570668 1.24186 1.18056)
(0.582093 1.28849 1.15761)
(0.595132 1.32214 1.09871)
(0.738311 1.24229 1.38422)
(0.746021 1.28376 1.37965)
(0.767158 1.21764 1.38475)
(0.723776 1.19569 1.3844)
(0.679323 1.17442 1.37239)
(0.71175 1.1483 1.3823)
(0.635529 1.15243 1.34633)
(0.810234 0.917506 1.37458)
(0.787949 0.97054 1.37196)
(0.798258 1.05815 1.37441)
(0.834802 1.08691 1.38233)
(0.76242 1.04206 1.37159)
(0.766155 1.09526 1.377)
(0.760256 1.00022 1.36712)
(0.74647 0.966503 1.36282)
(0.724259 1.03576 1.36861)
(0.800002 1.3049 1.38922)
(0.762962 1.32985 1.37138)
(0.826122 1.27855 1.38929)
(0.851236 1.25491 1.38286)
(0.810191 1.24007 1.38229)
(0.793342 1.1933 1.37783)
(0.731643 1.36323 1.34102)
(0.710135 1.39266 1.3011)
(0.910081 1.16093 1.39313)
(0.896986 1.19371 1.39831)
(0.863344 1.18384 1.38417)
(0.875817 1.22495 1.38619)
(0.930974 1.13511 1.38161)
(0.897818 1.12706 1.39129)
(0.87017 1.10751 1.3922)
(0.846513 1.13221 1.38224)
(0.821763 1.16499 1.37467)
(0.62542 0.984267 1.27862)
(0.638725 0.953136 1.27733)
(0.606069 1.03356 1.26958)
(0.628965 1.0301 1.31288)
(0.563679 1.0312 1.16053)
(0.586362 1.025 1.21897)
(0.596351 1.07351 1.2601)
(0.666648 0.936659 1.29849)
(0.703863 1.43997 1.21859)
(0.703228 1.4494 1.16854)
(0.684862 1.43675 1.12388)
(0.680149 1.44277 1.05321)
(0.697446 1.41319 1.25986)
(0.738538 1.12499 1.38139)
(0.70223 1.10251 1.37763)
(0.631911 1.10382 1.34147)
(0.610221 1.1283 1.30932)
(0.667899 1.08775 1.36604)
(0.633337 1.06535 1.33616)
(0.700314 1.06266 1.37075)
(0.624791 0.774788 1.05345)
(0.542419 0.991789 1.05533)
(0.53451 1.04099 1.05502)
(0.536382 1.18602 1.07013)
(0.531743 1.13633 1.07172)
(0.530814 1.08883 1.0651)
(0.546642 1.04541 1.12139)
(0.544712 1.14056 1.14063)
(0.563967 1.275 1.04531)
(0.545236 1.22691 1.04523)
(0.551672 1.22786 1.11932)
(0.632626 1.38708 1.05142)
(0.596845 1.33177 1.05026)
(0.711548 0.85844 1.30279)
(0.757244 0.885896 1.35641)
(0.734978 0.868823 1.33407)
(0.700016 0.905038 1.31524)
(0.782788 0.896581 1.36898)
(0.74815 0.924981 1.35865)
(0.777957 1.14418 1.37835)
(0.687176 0.951038 1.32861)
(0.582363 1.17719 1.24339)
(0.598999 1.16052 1.28066)
(0.599502 1.10925 1.27395)
(0.722219 0.955822 1.35203)
(0.685633 0.988624 1.34475)
(0.659338 1.01511 1.34067)
(0.695664 1.02191 1.36119)
(0.565418 1.16378 1.19778)
(0.567305 1.20194 1.1996)
(0.560877 1.07923 1.17456)
(0.565087 1.11731 1.1928)
(0.579746 1.10235 1.22548)
(0.642475 1.03887 0.665155)
(0.644513 1.2245 0.654752)
(0.63157 0.990481 0.703796)
(0.615239 0.931285 0.769613)
(0.588155 1.26428 0.787927)
(0.786971 1.12978 0.622545)
(0.635293 1.3577 0.791115)
(0.869312 1.1523 0.609772)
(0.612989 1.06884 0.698627)
(0.590717 1.20732 0.718915)
(0.748208 0.984747 0.638792)
(0.706051 1.30893 0.644505)
(0.720294 1.16629 0.619218)
(0.622002 1.13006 0.664836)
(0.739066 1.08429 0.629559)
(0.617258 1.29165 0.715975)
(0.816881 1.21195 0.61648)
(0.663041 0.892636 0.714085)
(0.865642 1.05843 0.606575)
(0.633934 0.840764 0.809555)
(0.548753 0.963955 0.912692)
(0.554265 1.1786 0.841303)
(0.54127 1.06236 0.870815)
(0.582366 0.890278 0.884421)
(0.67726 1.37218 0.712339)
(0.584801 1.1162 0.746435)
(0.696302 0.949722 0.660998)
(0.585105 1.00623 0.7897)
(0.770679 1.25736 0.606988)
(0.575975 1.2994 0.897438)
(0.802401 1.01944 0.620525)
(0.613293 0.806819 0.907096)
(0.665874 1.42127 0.868568)
(0.683141 1.06067 0.634302)
(0.706899 1.23771 0.623201)
(0.935317 1.09756 0.60119)
(0.618278 1.09986 0.679738)
(0.633831 1.08493 0.662758)
(0.627961 1.05442 0.67986)
(0.638963 1.01512 0.683284)
(0.62425 1.02986 0.699706)
(0.660399 1.0495 0.647527)
(0.65235 1.09639 0.645572)
(0.663634 0.970942 0.679034)
(0.670664 0.994821 0.661879)
(0.689876 1.00556 0.648374)
(0.828405 1.0956 0.621964)
(0.831657 1.1408 0.623221)
(0.864626 1.10578 0.610414)
(0.800583 1.17173 0.621743)
(0.845805 1.18407 0.621366)
(0.833697 1.03692 0.61333)
(0.794841 1.07496 0.627351)
(0.762583 1.10669 0.62714)
(0.729933 1.12689 0.626919)
(0.754715 1.14893 0.622685)
(0.768767 1.18905 0.618397)
(0.771 1.05323 0.631967)
(0.947271 1.13257 0.599765)
(0.979875 1.09545 0.593487)
(0.949162 1.06052 0.600772)
(0.628021 1.3239 0.747305)
(0.603718 1.27864 0.745789)
(0.611081 1.30938 0.785312)
(0.648013 1.33078 0.709793)
(0.657064 1.36629 0.746642)
(0.609083 1.32942 0.834567)
(0.585596 1.28199 0.83744)
(0.706558 1.41907 0.737512)
(0.686578 1.41284 0.772274)
(0.650514 1.38937 0.82528)
(0.70425 1.44572 0.809297)
(0.617461 1.35987 0.876978)
(0.894273 1.12435 0.604746)
(0.898653 1.07705 0.606932)
(0.864006 1.22571 0.618826)
(0.886654 1.19578 0.609515)
(0.907408 1.15946 0.603187)
(0.600382 1.094 0.720661)
(0.606221 1.12646 0.699721)
(0.610474 1.00075 0.740929)
(0.603045 1.04107 0.737626)
(0.587132 1.06273 0.76486)
(0.884186 1.00669 0.609789)
(0.916839 1.0398 0.608226)
(0.84644 0.984571 0.611205)
(0.636077 1.17616 0.657688)
(0.610219 1.16939 0.687012)
(0.615078 1.21754 0.683715)
(0.591013 1.16181 0.727754)
(0.603228 1.24842 0.71389)
(0.588903 1.23633 0.747247)
(0.630072 1.25859 0.680228)
(0.577686 1.19477 0.766789)
(0.572932 1.22151 0.808793)
(0.568995 1.14722 0.785138)
(0.712869 1.07225 0.632909)
(0.742739 1.03463 0.637974)
(0.717731 1.02284 0.639667)
(0.775783 1.00268 0.632892)
(0.793689 0.944181 0.630912)
(0.770143 0.921205 0.641818)
(0.723918 0.966383 0.648495)
(0.74589 0.903277 0.655699)
(0.820544 0.960276 0.620762)
(0.67727 1.26522 0.646875)
(0.661581 1.30259 0.674292)
(0.692216 1.34082 0.673062)
(0.764038 1.33 0.628948)
(0.738135 1.36117 0.6575)
(0.722451 1.39616 0.693167)
(0.740393 1.28172 0.620738)
(0.794113 1.30203 0.610613)
(0.706985 1.27206 0.631743)
(0.677565 1.23092 0.637142)
(0.739984 1.24731 0.613764)
(0.687255 1.19461 0.631084)
(0.672468 1.14833 0.636892)
(0.703274 1.11461 0.631133)
(0.796308 1.23475 0.61266)
(0.745332 1.21217 0.614789)
(0.71569 1.20135 0.619958)
(0.842125 1.25321 0.616812)
(0.821303 1.27566 0.610867)
(0.647147 0.942752 0.710419)
(0.636457 0.915111 0.739666)
(0.623699 0.963085 0.733576)
(0.623221 0.886971 0.790798)
(0.646192 0.869108 0.756697)
(0.680028 0.839781 0.728167)
(0.706314 0.853546 0.694227)
(0.664202 0.815758 0.773848)
(0.682654 0.921145 0.685881)
(0.724126 0.884876 0.672286)
(0.564472 1.23759 0.865949)
(0.600535 0.968606 0.780476)
(0.6082 0.867354 0.847312)
(0.599495 0.910506 0.826409)
(0.581633 0.947916 0.838275)
(0.700113 1.45554 0.864701)
(0.69903 1.46084 0.929402)
(0.568856 0.89237 0.940558)
(0.583327 0.854773 0.940102)
(0.599232 0.813758 0.953286)
(0.6246 0.770915 0.952688)
(0.596971 0.850558 0.89524)
(0.542331 0.973834 0.956237)
(0.555105 0.928613 0.955656)
(0.566096 0.926158 0.897928)
(0.534516 1.07024 0.934057)
(0.536567 1.02141 0.935362)
(0.542631 1.01288 0.891578)
(0.537082 1.13091 0.919866)
(0.540688 1.18085 0.920624)
(0.546961 1.12166 0.852925)
(0.567333 1.29264 0.948436)
(0.550163 1.24341 0.948998)
(0.598288 1.34492 0.945768)
(0.648003 1.40832 0.929018)
(0.637981 0.781296 0.882453)
(0.648625 0.798642 0.832729)
(0.624158 0.823855 0.85696)
(0.565209 0.985298 0.84853)
(0.563949 1.03307 0.825841)
(0.565996 1.09109 0.800952)
(1.01923 1.6091 0.81013)
(0.94139 1.57599 0.755752)
(1.23627 1.57 0.838418)
(1.00747 1.41049 0.617644)
(0.821115 1.55841 0.854319)
(1.31441 1.53454 0.86293)
(1.07549 1.25513 0.589976)
(1.08625 1.36206 0.617487)
(0.916955 1.60711 0.855033)
(1.02151 1.52891 0.706711)
(0.91372 1.48285 0.664619)
(1.02393 1.63179 0.91419)
(1.0999 1.47975 0.676952)
(1.02251 1.31911 0.604124)
(1.10716 1.56445 0.765666)
(0.985158 1.25098 0.607708)
(1.28407 1.49628 0.775968)
(0.959537 1.31535 0.602035)
(0.867119 1.59157 0.922628)
(1.26965 1.57867 0.93204)
(1.1828 1.60673 0.912411)
(1.18849 1.52399 0.738139)
(1.1599 1.31829 0.610698)
(0.833143 1.53059 0.748897)
(0.938626 1.62543 0.937084)
(1.1663 1.58552 0.822268)
(1.21399 1.36617 0.652846)
(1.1605 1.42157 0.65176)
(0.802654 1.5479 0.917881)
(1.33874 1.54494 0.939877)
(1.02305 1.18679 0.592238)
(1.09997 1.61217 0.857134)
(1.11435 1.62436 0.936476)
(1.25149 1.42143 0.698016)
(0.826569 1.45355 0.670905)
(0.915869 1.36875 0.609449)
(1.32635 1.55345 0.969625)
(1.36978 1.53 0.969852)
(1.36591 1.52387 0.923976)
(0.968441 1.60969 0.829057)
(0.928526 1.59574 0.804049)
(0.982911 1.59462 0.781406)
(0.98447 1.55307 0.727679)
(1.02357 1.57207 0.75422)
(1.02275 1.61845 0.860333)
(0.975749 1.61899 0.880934)
(1.06568 1.54378 0.735319)
(1.06735 1.58703 0.785503)
(1.06219 1.60915 0.831953)
(1.0636 1.61922 0.883275)
(1.10538 1.5928 0.810427)
(0.852138 1.58343 0.956573)
(0.891831 1.60644 0.960676)
(0.770824 1.52591 0.95282)
(0.819018 1.56213 0.957847)
(0.837654 1.57101 0.919111)
(0.926167 1.62295 0.966574)
(0.969306 1.63443 0.9685)
(0.904581 1.60962 0.929537)
(1.01209 1.63677 0.956463)
(1.05721 1.63256 0.957082)
(0.983241 1.62994 0.92415)
(1.14014 1.61955 0.967926)
(1.10038 1.62825 0.968299)
(1.07197 1.62615 0.923969)
(1.1737 1.61025 0.955779)
(1.20919 1.59772 0.954632)
(1.14975 1.61293 0.923506)
(1.25217 1.58648 0.966106)
(1.29098 1.56912 0.965282)
(1.22504 1.58941 0.920097)
(1.30265 1.56008 0.934655)
(1.0151 1.13996 0.587788)
(0.994776 1.17666 0.598092)
(1.04539 1.17185 0.588066)
(0.776647 1.51644 0.81042)
(0.780998 1.52517 0.855553)
(0.814174 1.5525 0.88216)
(0.770009 1.51947 0.890102)
(0.785364 1.50035 0.757252)
(0.82511 1.54812 0.800148)
(0.894273 1.59883 0.885861)
(0.847566 1.57523 0.88698)
(0.871757 1.58513 0.852894)
(0.877834 1.57512 0.799027)
(1.27404 1.55081 0.846924)
(1.2598 1.53574 0.802659)
(1.29941 1.51575 0.818315)
(1.32547 1.47355 0.803081)
(1.34356 1.4953 0.842778)
(1.29156 1.55728 0.895653)
(1.32616 1.53989 0.901503)
(1.25254 1.57324 0.883933)
(1.35277 1.5164 0.886688)
(0.798861 1.47617 0.711374)
(0.821445 1.40049 0.640569)
(0.79587 1.43713 0.675617)
(0.829229 1.49325 0.706801)
(0.893085 1.32943 0.610296)
(0.866784 1.35964 0.614568)
(0.873772 1.40854 0.632097)
(0.93376 1.2775 0.607098)
(0.914201 1.30709 0.611034)
(0.939795 1.34211 0.606647)
(0.969889 1.21011 0.607732)
(0.943527 1.24517 0.605063)
(0.970999 1.28344 0.60464)
(1.00774 1.21911 0.607262)
(1.08981 1.41619 0.645464)
(1.05323 1.44376 0.649583)
(1.04556 1.38295 0.6197)
(1.01506 1.36104 0.60679)
(1.05499 1.34012 0.61204)
(0.991148 1.31753 0.602832)
(0.985143 1.35934 0.605229)
(0.963932 1.39172 0.613128)
(0.970159 1.50786 0.684311)
(0.965606 1.4462 0.639255)
(1.01445 1.47059 0.658434)
(1.0623 1.50132 0.692188)
(0.915268 1.42305 0.630595)
(0.887822 1.55463 0.749512)
(0.927678 1.52995 0.706702)
(0.873076 1.50855 0.701125)
(1.05236 1.28845 0.606904)
(1.08862 1.30892 0.606546)
(1.12152 1.28642 0.597151)
(1.1237 1.34167 0.612322)
(1.00569 1.28533 0.607563)
(1.03543 1.25358 0.607296)
(1.04886 1.22202 0.595308)
(1.11246 1.23766 0.594034)
(1.16215 1.26599 0.614266)
(1.0709 1.20775 0.590657)
(1.12168 1.39045 0.635616)
(1.12857 1.44877 0.663843)
(1.15859 1.36877 0.629468)
(0.931803 1.61426 0.894061)
(1.10297 1.51965 0.71908)
(0.870475 1.46895 0.666261)
(1.10766 1.61568 0.895722)
(1.14557 1.53958 0.751698)
(1.14382 1.50047 0.70578)
(1.17744 1.47265 0.688933)
(1.17746 1.55333 0.778834)
(1.13757 1.57342 0.792184)
(1.13402 1.59809 0.839064)
(1.22162 1.47391 0.708357)
(1.271 1.4557 0.73561)
(1.23685 1.50889 0.750877)
(1.29207 1.4029 0.730001)
(1.31106 1.441 0.766382)
(1.21378 1.54557 0.785318)
(1.20698 1.42275 0.670434)
(1.23203 1.39322 0.675097)
(1.18753 1.39416 0.648542)
(1.26446 1.37519 0.697691)
(1.24592 1.34846 0.676391)
(1.20822 1.58844 0.875333)
(1.17469 1.59617 0.866504)
(1.14307 1.60504 0.882528)
(1.201 1.57525 0.828203)
(1.18652 1.34252 0.631609)
(1.19249 1.29516 0.632745)
(1.21869 1.31886 0.653672)
(0.840684 1.06616 1.13651)
(0.722741 1.0534 1.07549)
(0.696478 1.16342 1.06179)
(0.84807 1.15326 1.14917)
(0.706384 1.24821 1.06805)
(0.788927 1.14385 1.13111)
(0.790379 1.03449 1.11836)
(0.742702 1.13263 1.08961)
(0.74549 1.22064 1.10395)
(0.901469 1.08901 1.14879)
(0.68287 1.08929 1.03594)
(0.805123 1.21967 1.13748)
(0.760617 1.27865 1.10248)
(0.6979 1.02049 1.03755)
(0.747787 1.31125 1.06101)
(0.769674 1.33674 1.03174)
(0.774374 1.32636 1.07136)
(0.779777 1.30996 1.09237)
(0.793929 1.29125 1.10779)
(0.752359 1.29433 1.0837)
(0.760037 1.04046 1.09579)
(0.768394 1.08397 1.10395)
(0.738448 1.0897 1.07848)
(0.718369 1.11021 1.05902)
(0.722682 1.14937 1.0709)
(0.695638 1.12678 1.04429)
(0.703451 1.07325 1.05425)
(0.71036 1.03832 1.05644)
(0.690777 1.05729 1.03548)
(0.792703 0.988618 1.10828)
(0.757734 0.998915 1.08895)
(0.731174 1.00144 1.0671)
(0.718313 0.984251 1.0479)
(0.724538 1.19067 1.07545)
(0.72592 1.23446 1.08561)
(0.700947 1.20397 1.06122)
(0.690093 1.2278 1.03246)
(0.686136 1.18522 1.03423)
(0.750838 1.24922 1.10151)
(0.73271 1.26375 1.08522)
(0.708441 1.26969 1.03598)
(0.72468 1.27919 1.0643)
(0.730044 1.30168 1.031)
(0.88068 1.03472 1.13922)
(0.90876 1.05041 1.15235)
(0.871093 1.07629 1.13993)
(0.940172 1.08443 1.17189)
(0.875932 1.12037 1.14388)
(0.844239 1.11104 1.1401)
(0.916664 1.12234 1.15283)
(0.890872 1.15154 1.1496)
(0.792871 1.08736 1.12109)
(0.767299 1.13728 1.1088)
(0.745486 1.17691 1.09085)
(0.768689 1.18559 1.11184)
(0.682326 1.07198 1.01818)
(0.678495 1.11308 1.01847)
(0.689616 1.03788 1.01922)
(0.68542 1.14918 1.03057)
(0.848998 1.01108 1.12918)
(0.816667 1.04748 1.12673)
(0.815443 1.10569 1.13467)
(0.822203 0.99504 1.1217)
(0.817843 1.14868 1.142)
(0.859814 1.1956 1.15181)
(0.814447 1.26307 1.12298)
(0.838458 1.23027 1.14566)
(0.826726 1.18821 1.14729)
(0.781365 1.25205 1.10989)
(0.708599 0.9844 1.02032)
(0.77531 1.22146 1.11615)
(0.795941 1.1825 1.13396)
(0.895613 1.36486 1.10724)
(1.15695 1.36288 1.10562)
(1.13082 1.39686 1.06043)
(1.09278 1.33522 1.13877)
(1.01129 1.33529 1.15761)
(1.03214 1.25006 1.19198)
(1.06761 1.38026 1.12208)
(1.03812 1.40977 1.06997)
(0.960965 1.24297 1.17881)
(1.203 1.38078 1.05485)
(0.985385 1.37787 1.12129)
(0.936896 1.3216 1.13776)
(0.942564 1.40717 1.07115)
(0.865163 1.38682 1.06126)
(0.992358 1.16899 1.20683)
(1.08631 1.40367 1.06339)
(1.09893 1.38911 1.09106)
(1.05272 1.39541 1.09628)
(1.01009 1.3945 1.0974)
(1.02583 1.38063 1.12196)
(1.1131 1.36944 1.10997)
(1.12611 1.34761 1.12096)
(1.0822 1.35856 1.13097)
(1.14335 1.37984 1.08471)
(1.05057 1.33724 1.14822)
(1.04048 1.35952 1.14033)
(1.00108 1.3579 1.13908)
(0.834392 1.36517 1.07195)
(0.83074 1.37444 1.03175)
(0.863409 1.33503 1.10848)
(0.849869 1.35505 1.09321)
(0.879495 1.37666 1.08659)
(1.18062 1.33207 1.12238)
(1.2025 1.35422 1.09447)
(1.17974 1.37205 1.08164)
(1.22537 1.36297 1.06816)
(1.23561 1.37125 1.02725)
(1.04234 1.19946 1.2157)
(1.07864 1.24206 1.19335)
(1.10709 1.28572 1.15603)
(1.14493 1.31425 1.13591)
(1.05802 1.29869 1.15922)
(1.02317 1.15947 1.22704)
(0.986285 1.12416 1.21116)
(1.01019 1.20712 1.20329)
(0.920433 1.23772 1.16092)
(0.945752 1.1944 1.17362)
(0.975356 1.2039 1.18843)
(0.962616 1.15986 1.18355)
(0.948263 1.28643 1.15463)
(0.904101 1.2819 1.14091)
(0.994911 1.24496 1.18602)
(0.983346 1.2936 1.16441)
(0.97487 1.32836 1.14728)
(1.01855 1.29608 1.16724)
(0.881769 1.39768 1.03439)
(0.884734 1.31413 1.12166)
(0.917172 1.34332 1.11645)
(0.91888 1.38573 1.09084)
(0.905034 1.39726 1.06579)
(0.96311 1.39031 1.09522)
(0.942144 1.36964 1.10916)
(0.963474 1.35046 1.12828)
(1.1976 1.38717 1.02784)
(1.16653 1.3858 1.05724)
(1.16261 1.39367 1.0306)
(0.921619 1.40834 1.04012)
(0.970443 1.41676 1.03953)
(1.07122 1.41307 1.03472)
(1.01837 1.4169 1.0384)
(0.989912 1.40755 1.06967)
(1.11878 1.40652 1.02983)
(0.964809 1.25843 0.827492)
(1.17278 1.35258 0.884781)
(0.977954 1.39655 0.909338)
(1.04343 1.24678 0.808275)
(0.980334 1.35209 0.865888)
(1.09049 1.37466 0.879095)
(0.909998 1.29772 0.853206)
(1.0409 1.32525 0.84455)
(0.890606 1.36085 0.877213)
(1.11224 1.31825 0.849511)
(1.17357 1.38891 0.93822)
(0.991883 1.1685 0.798248)
(1.06958 1.41107 0.943677)
(0.893924 1.39625 0.945354)
(0.845768 1.35396 0.89925)
(0.859023 1.33545 0.87738)
(0.846209 1.37974 0.976096)
(0.848867 1.37191 0.931932)
(0.890618 1.37983 0.905932)
(0.901662 1.33221 0.86929)
(0.86867 1.3063 0.86434)
(0.889294 1.27174 0.847565)
(0.944418 1.20273 0.829226)
(0.9767 1.21206 0.817087)
(0.961231 1.15965 0.822094)
(1.01567 1.20472 0.799555)
(1.00261 1.25075 0.819047)
(1.01081 1.33863 0.858051)
(1.00067 1.29397 0.838844)
(0.97358 1.30971 0.857)
(1.04048 1.28947 0.831079)
(0.91987 1.24816 0.837976)
(0.9382 1.27737 0.844104)
(0.947086 1.32481 0.864755)
(0.897075 1.40152 0.977126)
(0.937922 1.35634 0.875023)
(0.937133 1.37912 0.89267)
(0.980119 1.37518 0.885801)
(0.936716 1.39688 0.926343)
(0.983051 1.12274 0.790003)
(1.02103 1.15713 0.775882)
(1.04721 1.19584 0.785666)
(1.10513 1.34703 0.867174)
(1.07651 1.32276 0.848567)
(1.0681 1.35113 0.862349)
(1.07614 1.28746 0.831741)
(1.03361 1.36461 0.87343)
(1.1441 1.33449 0.867262)
(1.133 1.36206 0.88634)
(1.18672 1.32625 0.868697)
(1.15378 1.308 0.85058)
(1.11768 1.27872 0.830157)
(1.08423 1.24145 0.80559)
(1.13272 1.38201 0.909385)
(1.17205 1.37182 0.911451)
(1.2075 1.36732 0.928159)
(1.20897 1.34772 0.899079)
(0.947569 1.40928 0.979178)
(1.08768 1.41446 0.972063)
(1.03329 1.41493 0.975166)
(1.02178 1.40261 0.929546)