/*--------------------------------*- C++ -*----------------------------------*\
| =========                 |                                                 |
| \\      /  F ield         | OpenFOAM: The Open Source CFD Toolbox           |
|  \\    /   O peration     | Version:  v1806                                 |
|   \\  /    A nd           | Web:      www.OpenFOAM.com                      |
|    \\/     M anipulation  |                                                 |
\*---------------------------------------------------------------------------*/
FoamFile
{
    version     2.0;
    format      ascii;
    class       volVectorField;
    location    "0.055";
    object      U;
}
// * * * * * * * * * * * * * * * * * * * * * * * * * * * * * * * * * * * * * //

dimensions      [0 1 -1 0 0 0 0];


internalField   nonuniform List<vector> 
64000
(
(-0.00751762 -0.00879664 -0.00483262)
(0.014575 -0.0095327 -0.00241033)
(0.0220533 -0.0041223 0.00156401)
(0.0235859 -0.00378141 0.00182241)
(0.0229786 -0.00294247 0.00256437)
(0.0226833 -0.0030348 0.00336342)
(0.0216023 -0.00352489 0.00347969)
(0.018262 -0.00405625 0.00354385)
(0.016385 -0.00519663 0.00481962)
(0.00979358 -0.00440819 0.00423493)
(0.00334352 -0.0061743 0.00621712)
(-0.0112393 -0.00903539 0.00659869)
(-0.0317456 -0.0131727 0.00674046)
(-0.0560886 -0.0179025 0.0042739)
(-0.0888885 -0.0178309 0.00528048)
(-0.123303 -0.0136817 0.00317793)
(-0.158562 0.00186355 0.00248996)
(-0.19927 -0.0038135 -0.00084655)
(-0.209815 -0.0101816 0.0060723)
(-0.261711 -0.029194 -0.0158308)
(-0.229919 -0.0265546 -0.0284174)
(-0.11053 -0.0262527 -0.0399159)
(-0.097083 -0.0129272 -0.0287855)
(-0.094144 -0.00535453 -0.0372898)
(-0.101705 0.00156042 -0.048238)
(-0.10013 0.0103852 -0.0567751)
(-0.084759 0.0199808 -0.0619298)
(-0.0537259 0.0318987 -0.0565474)
(-0.0221131 0.0375304 -0.052127)
(0.0204624 0.0543435 -0.0319475)
(0.0711892 0.0436152 -0.0315955)
(0.102456 0.0364797 -0.0221496)
(0.117781 0.025446 -0.0107074)
(0.112972 0.0115045 -0.00355372)
(0.0981689 0.00372539 0.00242557)
(0.0775631 -0.00469101 0.00487964)
(0.0554305 -0.00757288 0.0070377)
(0.0333253 -0.00646428 0.00785258)
(0.0175088 -0.00472929 0.00804873)
(0.00278493 -0.00318475 0.00605736)
(-0.00564155 -0.00252162 -0.0018945)
(0.0113031 -0.0175161 -0.00154826)
(0.0286977 -0.0139273 -7.69643e-05)
(0.0357543 -0.00922622 -0.000613229)
(0.0389384 -0.00475022 0.000128182)
(0.0386123 -0.00156209 -0.000921427)
(0.0362843 0.0026941 -0.00257857)
(0.0286515 0.00475631 -0.00234038)
(0.0216576 0.0103486 -0.00702451)
(0.00408633 0.016646 -0.00427529)
(-0.0207713 0.0243301 -0.00800256)
(-0.0582675 0.0318304 0.000181913)
(-0.106844 0.0435088 -0.00399066)
(-0.158509 0.0657216 -0.00674333)
(-0.218632 0.0777171 -0.0105238)
(-0.277295 0.086356 -0.0184917)
(-0.365802 0.0929678 -0.0428271)
(-0.467471 0.0957852 -0.0576514)
(-0.526767 0.101225 -0.075319)
(-0.602005 0.0980232 -0.0997075)
(-0.561958 0.122527 -0.10576)
(-0.419472 0.138475 -0.127904)
(-0.386919 0.18161 -0.140918)
(-0.371531 0.210009 -0.148303)
(-0.35136 0.235297 -0.159255)
(-0.317247 0.258033 -0.164963)
(-0.262151 0.277875 -0.166332)
(-0.195212 0.294642 -0.15467)
(-0.116373 0.299918 -0.134258)
(-0.0491226 0.309493 -0.1098)
(0.0186989 0.289298 -0.074557)
(0.0843364 0.259382 -0.0475954)
(0.118357 0.207193 -0.0386397)
(0.130734 0.158869 -0.0270595)
(0.124428 0.10781 -0.0129686)
(0.104012 0.0677335 -0.00528567)
(0.0830187 0.0395115 -0.000824341)
(0.0567018 0.0248958 0.000379058)
(0.0336305 0.015174 0.00206049)
(0.00873383 0.00654671 0.00327287)
(-0.000254064 -0.010797 0.00187317)
(0.0162768 -0.0245283 -0.00067851)
(0.0365435 -0.020351 -0.00114827)
(0.045111 -0.00832039 -0.00156512)
(0.044858 0.00462024 -0.00354771)
(0.0423138 0.0156365 -0.00552916)
(0.0338708 0.0317661 -0.00700222)
(0.019776 0.0455951 -0.00906689)
(0.00375145 0.0693341 -0.00190478)
(-0.0266044 0.0902074 -0.00457045)
(-0.0655784 0.118514 -0.00827154)
(-0.11842 0.152102 -0.0131248)
(-0.173385 0.184708 -0.0169156)
(-0.253632 0.2097 -0.0315942)
(-0.357164 0.227785 -0.0340569)
(-0.452535 0.240935 -0.0425149)
(-0.543952 0.24652 -0.0582672)
(-0.627731 0.268604 -0.0751622)
(-0.680698 0.296945 -0.0929832)
(-0.74029 0.329263 -0.115272)
(-0.68674 0.367658 -0.113645)
(-0.519015 0.395358 -0.123542)
(-0.462123 0.45059 -0.128533)
(-0.436549 0.485829 -0.123753)
(-0.407396 0.516999 -0.125394)
(-0.369464 0.540303 -0.123059)
(-0.314036 0.553429 -0.118697)
(-0.251911 0.557706 -0.104612)
(-0.182101 0.547634 -0.0833451)
(-0.119345 0.528622 -0.0597907)
(-0.0625319 0.501273 -0.0396917)
(-0.0221293 0.452699 -0.0276616)
(0.0131069 0.380114 -0.0140991)
(0.0372215 0.307197 -0.0078838)
(0.0457097 0.228554 -0.0108406)
(0.0508445 0.162679 -0.0106348)
(0.0495337 0.11356 -0.00687481)
(0.0397607 0.0757187 -0.00452988)
(0.0278656 0.049672 -0.000680752)
(0.00857193 0.0223543 0.00246516)
(0.000389604 -0.0165129 0.0022466)
(0.018483 -0.028269 -0.00182372)
(0.0418477 -0.0158033 -0.00171101)
(0.0508013 0.00269438 -0.00578862)
(0.0463712 0.0280521 -0.00594462)
(0.0398022 0.0544 -0.00788442)
(0.0260178 0.0895463 -0.00807132)
(0.0058465 0.123174 -0.00471348)
(-0.0203954 0.168853 -0.0099949)
(-0.064577 0.209524 -0.012244)
(-0.110966 0.250801 -0.0164422)
(-0.179142 0.280797 -0.0232764)
(-0.269357 0.307259 -0.0260227)
(-0.360621 0.322685 -0.0283327)
(-0.447196 0.345548 -0.0300586)
(-0.525459 0.372578 -0.0374074)
(-0.601844 0.402624 -0.0503898)
(-0.672274 0.43328 -0.0585333)
(-0.710115 0.471217 -0.0673846)
(-0.754023 0.512798 -0.0757903)
(-0.688155 0.54716 -0.0563617)
(-0.500655 0.565979 -0.0472911)
(-0.429682 0.607237 -0.0443644)
(-0.405054 0.620257 -0.0300105)
(-0.378242 0.631657 -0.0259874)
(-0.349831 0.634227 -0.0200307)
(-0.306706 0.625509 -0.0166663)
(-0.261583 0.607873 -0.00973468)
(-0.209682 0.58272 0.00167234)
(-0.165499 0.550823 0.00893703)
(-0.132222 0.512595 0.0145583)
(-0.10912 0.469012 0.0132174)
(-0.0885314 0.417827 0.00826631)
(-0.0653766 0.352164 8.94126e-05)
(-0.0442677 0.274302 -0.00407689)
(-0.0184786 0.202712 -0.00955313)
(0.00112568 0.146135 -0.0099791)
(0.0102018 0.109135 -0.00724303)
(0.0179106 0.0751543 -0.00293217)
(0.00700533 0.0335032 0.00206629)
(0.00117799 -0.0179851 0.000892492)
(0.0244311 -0.0202624 -0.00491411)
(0.0511667 -0.00133283 -0.00490186)
(0.0598527 0.0326262 -0.00675445)
(0.0553646 0.0749643 -0.0059013)
(0.0478674 0.122747 -0.0141334)
(0.0276562 0.182434 -0.0109586)
(0.0010939 0.237356 -0.00474298)
(-0.0326122 0.287492 -0.0071137)
(-0.0906732 0.324741 -0.00921405)
(-0.159748 0.354533 -0.0122432)
(-0.237887 0.373519 -0.0146358)
(-0.307856 0.398838 -0.0163264)
(-0.381607 0.428766 -0.02089)
(-0.456932 0.462223 -0.0184081)
(-0.523197 0.494672 -0.0207095)
(-0.584744 0.526164 -0.0223318)
(-0.63467 0.561952 -0.0184416)
(-0.653689 0.602043 -0.0163562)
(-0.685669 0.644549 -0.0247887)
(-0.620403 0.672924 -0.00400417)
(-0.426983 0.681581 0.0129162)
(-0.352452 0.693251 0.0220166)
(-0.336578 0.676514 0.0363366)
(-0.321532 0.656498 0.038193)
(-0.312161 0.63304 0.0449793)
(-0.290272 0.599807 0.0458907)
(-0.263077 0.564591 0.0497434)
(-0.232116 0.524157 0.0433615)
(-0.208449 0.485359 0.0361473)
(-0.187183 0.441873 0.0265783)
(-0.176021 0.407311 0.0192013)
(-0.169108 0.37313 0.0113153)
(-0.16625 0.341823 -0.000246488)
(-0.149323 0.279621 -0.0116116)
(-0.104571 0.20671 -0.0126839)
(-0.0519983 0.159311 -0.0126632)
(-0.0165019 0.128055 -0.0108956)
(0.00318307 0.0931891 -0.00519501)
(0.00409314 0.0418681 0.00204655)
(0.0050686 -0.0156798 0.000634467)
(0.0309912 -0.00668805 -0.00386326)
(0.0647584 0.0188572 -0.00450322)
(0.0814114 0.0678032 -0.00818284)
(0.0759231 0.122943 -0.0121759)
(0.0699283 0.189446 -0.0187325)
(0.0454797 0.259328 -0.0135127)
(-0.00171222 0.304227 -0.00094615)
(-0.0590945 0.344515 -0.00481158)
(-0.129247 0.377915 -0.00632375)
(-0.190217 0.410615 -0.00842308)
(-0.250304 0.445893 -0.00864738)
(-0.309704 0.48267 -0.00673822)
(-0.366626 0.511989 -0.00359812)
(-0.420948 0.543926 0.00315097)
(-0.468919 0.573734 0.00829852)
(-0.509241 0.605929 0.0072463)
(-0.543469 0.638888 0.010088)
(-0.555007 0.681821 0.0106294)
(-0.577785 0.713846 0.00846015)
(-0.511522 0.739044 0.0292314)
(-0.333337 0.693088 0.0472243)
(-0.276063 0.673631 0.0553027)
(-0.280169 0.627027 0.0714983)
(-0.282072 0.582808 0.0755213)
(-0.290042 0.542848 0.0769396)
(-0.28524 0.498835 0.074138)
(-0.278213 0.458681 0.0691217)
(-0.262338 0.411833 0.0665007)
(-0.252656 0.374302 0.0471607)
(-0.243591 0.332346 0.0367701)
(-0.233078 0.301217 0.0234189)
(-0.220882 0.276716 0.0110344)
(-0.226044 0.260906 0.000951953)
(-0.234844 0.237972 -0.0132505)
(-0.174797 0.191312 -0.0128122)
(-0.0913048 0.1599 -0.0144157)
(-0.0397943 0.133224 -0.0114585)
(-0.00387256 0.101131 -0.00632716)
(0.00311759 0.0446768 0.00240383)
(0.00851974 -0.0130258 0.000291706)
(0.0393114 0.00480959 -0.00954508)
(0.0818384 0.042501 -0.00913782)
(0.104871 0.0963787 -0.00934437)
(0.103715 0.152445 -0.0108886)
(0.0966363 0.228635 -0.0137921)
(0.0439297 0.272266 -0.00310321)
(-0.0181615 0.313426 0.00362252)
(-0.0617815 0.358862 -0.000755243)
(-0.1172 0.40701 -0.00195319)
(-0.166797 0.455619 -0.00238726)
(-0.216597 0.498918 -0.000683516)
(-0.263279 0.537026 0.00196708)
(-0.309389 0.571875 0.00805131)
(-0.350752 0.604112 0.0139454)
(-0.384495 0.631714 0.020202)
(-0.413009 0.656282 0.0256545)
(-0.4275 0.675168 0.0295435)
(-0.430556 0.700814 0.0245742)
(-0.450894 0.716447 0.0172028)
(-0.442264 0.733839 0.0273053)
(-0.300136 0.638074 0.0493389)
(-0.227572 0.578691 0.0528508)
(-0.247866 0.525508 0.0671752)
(-0.259617 0.478724 0.0692458)
(-0.282828 0.442686 0.0697993)
(-0.294265 0.40574 0.0659852)
(-0.30315 0.371932 0.0602465)
(-0.300818 0.335271 0.04845)
(-0.302189 0.301196 0.0346373)
(-0.300123 0.269067 0.0219161)
(-0.290932 0.24154 0.0109794)
(-0.280755 0.222893 0.000300146)
(-0.27836 0.207612 -0.00553058)
(-0.281958 0.214238 -0.0154861)
(-0.225348 0.19337 -0.0197998)
(-0.127035 0.165043 -0.0211207)
(-0.0559966 0.14456 -0.0164601)
(-0.00965483 0.109651 -0.00985571)
(0.00312861 0.0488851 0.000813831)
(0.00894421 -0.00354549 -0.00043144)
(0.0469556 0.0245321 -0.0128299)
(0.0997026 0.0735155 -0.0135448)
(0.124218 0.127509 -0.010043)
(0.1307 0.18624 -0.0114738)
(0.104813 0.251128 -0.0098629)
(0.0437903 0.280338 0.00149252)
(0.00339641 0.338141 0.00590004)
(-0.0346005 0.385105 0.00245097)
(-0.0824121 0.438756 0.00374578)
(-0.123818 0.482057 0.00528946)
(-0.165495 0.519132 0.0107936)
(-0.200667 0.551425 0.0173218)
(-0.230378 0.579221 0.0233946)
(-0.260531 0.603164 0.0280767)
(-0.287151 0.619747 0.0324458)
(-0.310434 0.630702 0.0345901)
(-0.325866 0.636261 0.0350208)
(-0.333383 0.630936 0.0293438)
(-0.353252 0.620481 0.0166954)
(-0.391129 0.61669 0.0139199)
(-0.306533 0.554571 0.03197)
(-0.22256 0.455074 0.0339036)
(-0.236796 0.421893 0.0446877)
(-0.2573 0.381516 0.0495316)
(-0.288146 0.358191 0.0515635)
(-0.310812 0.330675 0.052224)
(-0.329931 0.304446 0.0467936)
(-0.338461 0.275269 0.0387547)
(-0.346843 0.244663 0.0180806)
(-0.349285 0.21311 0.0114286)
(-0.340395 0.188534 0.00233107)
(-0.327322 0.174115 -0.00521493)
(-0.312244 0.168245 -0.00925993)
(-0.320007 0.187361 -0.0184279)
(-0.274374 0.195797 -0.0203756)
(-0.160761 0.170833 -0.022122)
(-0.0739459 0.153438 -0.0177291)
(-0.0146162 0.117157 -0.00997133)
(0.00439789 0.0520926 0.00137473)
(0.00667314 0.00700445 -0.00512448)
(0.0534083 0.0549911 -0.0190746)
(0.118077 0.110716 -0.0188837)
(0.148554 0.164845 -0.0129647)
(0.154092 0.224897 -0.0143241)
(0.118028 0.26667 -0.00797539)
(0.064639 0.313077 -0.000665053)
(0.0311457 0.368235 0.00626378)
(0.00281176 0.407228 0.0124617)
(-0.0316695 0.448336 0.0121616)
(-0.0712315 0.48602 0.0164483)
(-0.101517 0.513049 0.0218986)
(-0.126725 0.535188 0.0285821)
(-0.151471 0.547227 0.0335158)
(-0.176273 0.551306 0.035279)
(-0.20039 0.549162 0.0362574)
(-0.22432 0.541544 0.0352903)
(-0.249576 0.531968 0.031968)
(-0.273574 0.519124 0.0255315)
(-0.300046 0.498621 0.011195)
(-0.350899 0.482684 0.00132112)
(-0.329148 0.463693 0.00865123)
(-0.248818 0.36306 0.0160685)
(-0.234943 0.341704 0.0213241)
(-0.263043 0.315946 0.0289996)
(-0.296345 0.299786 0.0340318)
(-0.329209 0.281552 0.0384339)
(-0.355573 0.256826 0.0368663)
(-0.373772 0.232039 0.0234863)
(-0.390971 0.197798 0.0104795)
(-0.394944 0.17306 0.000624282)
(-0.382935 0.150101 -0.00450123)
(-0.368076 0.136015 -0.0108386)
(-0.342541 0.138526 -0.017382)
(-0.33118 0.149281 -0.0210667)
(-0.301546 0.189018 -0.0269131)
(-0.196895 0.172696 -0.0262273)
(-0.0898604 0.162335 -0.0242381)
(-0.0199019 0.126748 -0.0132273)
(0.005084 0.0576215 -0.000627724)
(0.00827021 0.0231134 -0.00822776)
(0.06188 0.0949937 -0.026672)
(0.135462 0.155088 -0.0261629)
(0.172376 0.208067 -0.0163207)
(0.170114 0.255165 -0.0139033)
(0.137092 0.289311 -0.0108035)
(0.100637 0.340686 -0.00216784)
(0.0693338 0.386695 0.0120687)
(0.0380574 0.423481 0.0175886)
(0.0144152 0.450316 0.0271944)
(-0.0120175 0.471115 0.0249165)
(-0.0415284 0.484794 0.034083)
(-0.0643587 0.491483 0.0389137)
(-0.0864589 0.483292 0.0430246)
(-0.111017 0.468267 0.0410505)
(-0.137143 0.447323 0.0378246)
(-0.164892 0.422999 0.032849)
(-0.192221 0.401832 0.0270738)
(-0.225244 0.390303 0.018319)
(-0.267166 0.373912 0.00567757)
(-0.321455 0.365008 -0.00518208)
(-0.34453 0.369453 -0.00615323)
(-0.281042 0.316479 0.0059949)
(-0.237165 0.290249 0.00633842)
(-0.265113 0.274468 0.0161042)
(-0.299321 0.262326 0.0240328)
(-0.338346 0.242239 0.0317006)
(-0.371939 0.222277 0.030148)
(-0.397879 0.190634 0.0232413)
(-0.414194 0.163009 0.00919984)
(-0.419218 0.134102 0.0112807)
(-0.416423 0.112991 0.0178276)
(-0.397029 0.0933176 0.0156235)
(-0.37476 0.0949816 0.0090647)
(-0.353135 0.108935 -0.0117038)
(-0.323251 0.1557 -0.0234639)
(-0.226368 0.171082 -0.0240652)
(-0.106372 0.161703 -0.0216414)
(-0.0254082 0.134777 -0.0123917)
(0.00631442 0.0613822 0.000433759)
(0.00867054 0.042548 -0.0111066)
(0.0689456 0.135545 -0.0328491)
(0.15191 0.200313 -0.0314871)
(0.189279 0.244631 -0.0170918)
(0.186774 0.28001 -0.0127389)
(0.166086 0.316665 -0.0115251)
(0.138718 0.359029 -0.0015307)
(0.108851 0.394744 0.00646872)
(0.0839517 0.42351 0.01441)
(0.0565666 0.443597 0.0291761)
(0.0289653 0.449157 0.0378625)
(0.0122542 0.449624 0.0469226)
(-0.0102443 0.436496 0.0473734)
(-0.0384992 0.414939 0.0492434)
(-0.0656934 0.387888 0.0438382)
(-0.0971337 0.358135 0.0357537)
(-0.129185 0.32691 0.0276405)
(-0.157494 0.304952 0.0199152)
(-0.196533 0.29058 0.00962661)
(-0.241087 0.278734 0.00347217)
(-0.289133 0.280234 -0.00457771)
(-0.326367 0.295538 -0.00896733)
(-0.28688 0.297428 -6.933e-05)
(-0.239771 0.268429 -0.00121297)
(-0.256135 0.247694 0.00789879)
(-0.295208 0.231462 0.0172654)
(-0.337664 0.211612 0.0246084)
(-0.376926 0.187503 0.0262973)
(-0.406529 0.158865 0.016571)
(-0.429195 0.127775 0.0301857)
(-0.442963 0.0928348 0.0311927)
(-0.444952 0.0640021 0.0195177)
(-0.432873 0.0508208 0.0139664)
(-0.399876 0.0467033 0.00793688)
(-0.361752 0.0628578 0.00069918)
(-0.329681 0.104947 -0.0201966)
(-0.249076 0.150374 -0.0281659)
(-0.124969 0.1579 -0.0232473)
(-0.02819 0.138381 -0.0150363)
(0.00492669 0.0652075 -0.000953975)
(0.00924887 0.0641699 -0.0116607)
(0.0748252 0.17941 -0.036667)
(0.161219 0.244946 -0.0346041)
(0.201509 0.278837 -0.0179355)
(0.208345 0.309334 -0.0102075)
(0.195784 0.340617 -0.00573813)
(0.174313 0.371919 -0.00469304)
(0.147863 0.395756 0.00954688)
(0.121847 0.414474 0.0132962)
(0.0984292 0.422724 0.0260958)
(0.0762118 0.424752 0.0358271)
(0.049171 0.413483 0.0523589)
(0.0232467 0.387191 0.0547515)
(0.000115144 0.353825 0.0547388)
(-0.0304787 0.321744 0.0435205)
(-0.0673562 0.291261 0.0310642)
(-0.102176 0.262724 0.020542)
(-0.13143 0.245899 0.0110797)
(-0.172983 0.231301 0.00141567)
(-0.215615 0.227652 -0.00147106)
(-0.253763 0.232842 -0.00409185)
(-0.281433 0.258122 -0.00514372)
(-0.262922 0.283559 -0.000822203)
(-0.237183 0.26114 -0.00206804)
(-0.248491 0.22614 0.00300955)
(-0.278665 0.201932 0.0115346)
(-0.322803 0.177274 0.0174536)
(-0.363913 0.152388 0.015703)
(-0.39901 0.12328 0.0347807)
(-0.430824 0.0874559 0.0434812)
(-0.451644 0.0533956 0.0413052)
(-0.453013 0.027311 0.0521968)
(-0.445413 0.00324392 0.0411068)
(-0.431097 -0.00098074 0.0333257)
(-0.395104 0.00956923 0.0249411)
(-0.347694 0.0546007 0.00313092)
(-0.26021 0.108634 -0.0244853)
(-0.13832 0.146837 -0.0246351)
(-0.0340659 0.13634 -0.0140617)
(0.00618253 0.06883 -0.00101718)
(0.00901039 0.0794553 -0.012025)
(0.0755946 0.214227 -0.0401282)
(0.163949 0.281611 -0.0386015)
(0.211811 0.310871 -0.0199988)
(0.229029 0.333454 -0.00680892)
(0.223768 0.355134 0.000399251)
(0.20436 0.377388 0.00474077)
(0.179797 0.390267 0.00636549)
(0.159301 0.400083 0.0156447)
(0.136763 0.401734 0.0263292)
(0.110961 0.392868 0.0349205)
(0.0849751 0.374797 0.0420247)
(0.0535498 0.346798 0.0535211)
(0.0235905 0.311747 0.0538052)
(-0.00423668 0.271138 0.0426049)
(-0.042726 0.244913 0.0247887)
(-0.0785607 0.219092 0.0138615)
(-0.109688 0.208059 0.00320255)
(-0.149211 0.193326 -0.00374155)
(-0.182654 0.194983 -0.0044258)
(-0.203806 0.208116 -0.00165338)
(-0.218419 0.236251 0.000303528)
(-0.221063 0.258956 0.0016034)
(-0.226167 0.240218 -0.000536402)
(-0.237358 0.202504 0.000809595)
(-0.259986 0.165264 0.00667447)
(-0.29744 0.136237 0.0114813)
(-0.338319 0.111448 0.0234847)
(-0.380207 0.0786718 0.0373839)
(-0.416868 0.0472176 0.0437666)
(-0.438345 0.0140168 0.0646073)
(-0.463035 -0.0244996 0.0470266)
(-0.471035 -0.066827 0.0359917)
(-0.452301 -0.0884227 0.0167142)
(-0.412745 -0.0758074 0.00346321)
(-0.36735 -0.0263788 0.0112815)
(-0.281667 0.0580318 -0.00304959)
(-0.1515 0.114616 -0.0311334)
(-0.03904 0.128399 -0.0144184)
(0.00685145 0.0685439 -0.00270573)
(0.00786526 0.0917178 -0.0108502)
(0.0749232 0.244325 -0.0423181)
(0.165658 0.316291 -0.04329)
(0.219418 0.342041 -0.0233531)
(0.245998 0.355584 -0.00471663)
(0.248302 0.363855 0.00656656)
(0.23181 0.374803 0.0117841)
(0.209216 0.382695 0.0158377)
(0.190621 0.387631 0.0179918)
(0.168523 0.381556 0.0222317)
(0.145972 0.366538 0.0258286)
(0.115066 0.341947 0.0371997)
(0.0807708 0.309702 0.0385939)
(0.04437 0.275707 0.0440466)
(0.0143562 0.240773 0.0370253)
(-0.0202073 0.20891 0.0169541)
(-0.0551753 0.193553 0.00802631)
(-0.0858338 0.181838 -0.00295488)
(-0.121432 0.171484 -0.00603687)
(-0.136987 0.179932 -0.00347581)
(-0.144885 0.19489 0.00175677)
(-0.156805 0.209437 0.00640263)
(-0.177386 0.216439 0.00729478)
(-0.203144 0.203972 0.00463754)
(-0.224653 0.175397 0.00212997)
(-0.237693 0.130136 0.00370239)
(-0.262079 0.100178 0.00666976)
(-0.301172 0.0695807 0.0241492)
(-0.342214 0.0393629 0.034082)
(-0.379205 0.00890445 0.0560588)
(-0.425552 -0.0343715 0.0430101)
(-0.466949 -0.0890365 0.0371545)
(-0.484746 -0.133282 0.0246834)
(-0.473676 -0.166141 0.0142082)
(-0.432982 -0.16973 -0.00326335)
(-0.36982 -0.127413 -0.00695005)
(-0.288012 -0.0246964 0.000642776)
(-0.170975 0.0750936 -0.0167952)
(-0.043431 0.116498 -0.019086)
(0.00687746 0.0707778 -0.0018048)
(0.00552403 0.092626 -0.011167)
(0.0707459 0.261411 -0.0433032)
(0.162927 0.338246 -0.0453668)
(0.223275 0.362395 -0.0249728)
(0.256042 0.368487 -0.00450983)
(0.263583 0.366109 0.0101463)
(0.255949 0.36863 0.0180032)
(0.239053 0.370986 0.0206538)
(0.220591 0.368681 0.0229857)
(0.196656 0.357399 0.0242554)
(0.169971 0.339744 0.025036)
(0.139259 0.312502 0.0220734)
(0.103084 0.282145 0.0217678)
(0.0673411 0.247411 0.0217455)
(0.0314732 0.221169 0.0242605)
(-4.63232e-05 0.188455 0.0105476)
(-0.026954 0.174675 0.000784064)
(-0.060213 0.162731 -0.00756496)
(-0.0806971 0.166797 -0.00490891)
(-0.0849119 0.178566 -0.00154375)
(-0.0936818 0.183101 0.00572286)
(-0.109922 0.18075 0.0121843)
(-0.132332 0.173121 0.0154178)
(-0.16568 0.163193 0.0105736)
(-0.200736 0.1462 0.00552678)
(-0.215758 0.112215 0.00468357)
(-0.22912 0.0681672 0.012758)
(-0.261716 0.0371031 0.0234878)
(-0.296402 0.00494609 0.041708)
(-0.346066 -0.0358149 0.0369022)
(-0.40047 -0.0909089 0.0361293)
(-0.446292 -0.144636 0.0273116)
(-0.475861 -0.199293 0.0174126)
(-0.479637 -0.241146 0.00336015)
(-0.446461 -0.260966 -0.0109955)
(-0.381208 -0.228669 -0.0188125)
(-0.288859 -0.140172 -0.0194532)
(-0.174426 0.00798246 0.000211844)
(-0.0526431 0.0887506 -0.0272765)
(0.00661444 0.0681757 -0.00366844)
(0.00497875 0.0874552 -0.00605181)
(0.0680759 0.269347 -0.0399203)
(0.160046 0.351237 -0.0424037)
(0.225287 0.372962 -0.0228175)
(0.264527 0.371586 6.44724e-05)
(0.281358 0.363686 0.0130441)
(0.280099 0.36185 0.0180396)
(0.262975 0.35717 0.0201098)
(0.244152 0.351956 0.0207207)
(0.222556 0.338298 0.0200374)
(0.198809 0.317602 0.0175629)
(0.165486 0.289052 0.0135255)
(0.126666 0.254301 0.00978325)
(0.0897072 0.22211 0.00386749)
(0.05237 0.198073 0.00828304)
(0.0194419 0.183366 -0.000379569)
(-0.00281802 0.177768 -0.00417809)
(-0.0184359 0.176613 -0.00486042)
(-0.0284576 0.187823 -0.00156078)
(-0.0384583 0.183679 0.0029056)
(-0.0548421 0.174969 0.00962266)
(-0.0741596 0.158818 0.0145572)
(-0.0969038 0.143478 0.016627)
(-0.126704 0.126348 0.0155836)
(-0.164872 0.11638 0.00920538)
(-0.196191 0.0928821 0.00952134)
(-0.20729 0.0482703 0.0120883)
(-0.222989 0.00844164 0.0221774)
(-0.261745 -0.0286936 0.0238707)
(-0.312332 -0.0783654 0.0277921)
(-0.366392 -0.127316 0.0261637)
(-0.417452 -0.184774 0.0230008)
(-0.454266 -0.244373 0.0148581)
(-0.469612 -0.299331 0.00239886)
(-0.446887 -0.331944 -0.0132676)
(-0.388553 -0.320969 -0.0283528)
(-0.286613 -0.239386 -0.0324094)
(-0.17429 -0.0864245 -0.0210479)
(-0.0553484 0.0492831 -0.0187118)
(0.0085324 0.0610768 -0.00922837)
(0.000432828 0.0953736 -0.0111751)
(0.0585252 0.281908 -0.0422659)
(0.150543 0.368985 -0.0465694)
(0.221834 0.39036 -0.0260409)
(0.271127 0.386238 -0.00115035)
(0.298861 0.371939 0.0101037)
(0.304349 0.358643 0.0152431)
(0.291635 0.345253 0.0154347)
(0.273099 0.33077 0.012645)
(0.245846 0.309641 0.0090964)
(0.216901 0.289384 0.00656157)
(0.180958 0.268656 0.0030319)
(0.142982 0.2499 0.00112075)
(0.112687 0.233052 -0.000264265)
(0.0853174 0.224845 0.00324969)
(0.0638659 0.222009 -0.0069159)
(0.0453124 0.216646 -0.00613934)
(0.0284678 0.211851 -0.0049942)
(0.00770481 0.201937 -0.00269457)
(-0.0125072 0.183242 0.00386672)
(-0.0295701 0.159918 0.00891259)
(-0.0495756 0.13789 0.0133394)
(-0.0702134 0.117326 0.0147576)
(-0.0944305 0.0976512 0.0168346)
(-0.130962 0.0838086 0.0115769)
(-0.172691 0.0694145 0.00283594)
(-0.192113 0.0411025 0.00415332)
(-0.20388 -0.00337094 0.0047383)
(-0.23367 -0.049506 0.0102992)
(-0.277069 -0.098022 0.0148548)
(-0.325379 -0.154763 0.0167798)
(-0.375603 -0.218439 0.0145761)
(-0.416133 -0.288522 0.00875119)
(-0.43999 -0.359067 -0.00225451)
(-0.431022 -0.41065 -0.0181344)
(-0.38211 -0.421155 -0.0348529)
(-0.291289 -0.354863 -0.0535031)
(-0.179062 -0.19771 -0.037956)
(-0.055719 -0.000407029 -0.00968115)
(0.00693145 0.0585605 -0.0105188)
(-0.00724586 0.088871 -0.0143804)
(0.0434154 0.287817 -0.0385988)
(0.13717 0.383479 -0.0457037)
(0.215617 0.405101 -0.0271574)
(0.273176 0.398509 -0.00969045)
(0.306245 0.375683 0.00222832)
(0.31664 0.354678 0.00796042)
(0.30309 0.341337 0.00930389)
(0.283614 0.346832 0.00945701)
(0.266161 0.352843 0.00743901)
(0.252209 0.35404 0.00472428)
(0.226394 0.342839 0.000464678)
(0.192035 0.328226 -0.000995142)
(0.160888 0.306174 -0.00281696)
(0.130613 0.284241 0.000869252)
(0.0947818 0.263975 -0.00788358)
(0.0673708 0.243005 -0.0100358)
(0.0474455 0.214868 -0.00791472)
(0.0256953 0.190011 -0.00460564)
(0.00435159 0.166903 0.000660183)
(-0.0141239 0.140214 0.00747976)
(-0.0296356 0.11575 0.0113592)
(-0.0491815 0.0940842 0.0121279)
(-0.070302 0.0731401 0.0151217)
(-0.0998015 0.0560309 0.00774798)
(-0.138979 0.0416385 -0.00017739)
(-0.170312 0.0267929 0.0014874)
(-0.190555 -0.00646358 -0.000863462)
(-0.216417 -0.0518651 -0.00433446)
(-0.25752 -0.101696 -0.00116494)
(-0.304016 -0.15212 0.00434583)
(-0.351471 -0.214838 0.00737503)
(-0.39176 -0.287881 0.00661647)
(-0.415594 -0.366808 -0.000997125)
(-0.408987 -0.434868 -0.0141604)
(-0.365892 -0.468517 -0.033529)
(-0.272869 -0.437356 -0.0567994)
(-0.158514 -0.301277 -0.0603649)
(-0.0404365 -0.0915999 -0.0247467)
(0.0107729 0.0304019 -0.00858277)
(-0.0104109 0.207858 -0.0149605)
(0.0345746 0.427493 -0.0314151)
(0.121334 0.528755 -0.0404427)
(0.199997 0.555552 -0.021717)
(0.264656 0.545132 -0.00989086)
(0.308066 0.517482 0.00533071)
(0.336481 0.483517 0.0109415)
(0.356596 0.469825 0.011118)
(0.361685 0.475509 0.00452416)
(0.335342 0.473715 -0.00218944)
(0.296035 0.457498 -0.00751726)
(0.250367 0.424417 -0.0103612)
(0.203668 0.384723 -0.0111924)
(0.162988 0.341172 -0.00862931)
(0.131381 0.298592 -0.00561167)
(0.106378 0.2589 -0.00110555)
(0.0777208 0.230053 -0.00682381)
(0.0562791 0.200715 -0.00687011)
(0.0414105 0.171408 -0.00483685)
(0.0194606 0.145104 -0.00205427)
(0.000558173 0.12333 0.00427978)
(-0.0148602 0.097166 0.00925257)
(-0.0320917 0.0751238 0.0100268)
(-0.0509107 0.0544413 0.0142267)
(-0.0782721 0.0322731 0.00551263)
(-0.112306 0.0169406 0.00569679)
(-0.141882 0.00383262 0.00523086)
(-0.17175 -0.0116642 0.00427859)
(-0.200566 -0.0412977 0.00252005)
(-0.227006 -0.0845843 -0.00216644)
(-0.260765 -0.143998 -0.0101096)
(-0.306888 -0.222696 -0.0153111)
(-0.349587 -0.311959 -0.0189248)
(-0.381002 -0.405433 -0.0250437)
(-0.386773 -0.487159 -0.0405978)
(-0.365853 -0.549279 -0.0692729)
(-0.297333 -0.537039 -0.0877921)
(-0.197354 -0.411131 -0.0850483)
(-0.0625685 -0.151886 -0.0480592)
(0.0126504 0.0366942 -0.00891156)
(-0.0160018 0.270906 -0.0169498)
(0.0206081 0.51318 -0.0430436)
(0.108429 0.625796 -0.0525148)
(0.191749 0.670632 -0.0418824)
(0.260183 0.666734 -0.0313682)
(0.304935 0.642695 -0.0185716)
(0.341306 0.603588 -0.0091986)
(0.369296 0.572608 -0.00603389)
(0.365816 0.541261 -0.00831044)
(0.33165 0.503378 -0.00880916)
(0.291185 0.462405 -0.00836402)
(0.245685 0.417774 -0.00850685)
(0.202306 0.370669 -0.00704828)
(0.166613 0.32611 -0.00626973)
(0.136237 0.282945 -0.00422921)
(0.109759 0.244379 -0.00217363)
(0.0905728 0.209156 0.00223393)
(0.0691672 0.18218 -0.0025545)
(0.0491994 0.154433 -0.0045034)
(0.0342909 0.127793 -0.00165378)
(0.014415 0.103797 0.000486227)
(-0.00270099 0.0822627 0.00717772)
(-0.0173089 0.0557554 0.00815275)
(-0.0381446 0.0362786 0.0109449)
(-0.0599735 0.0152417 0.00777761)
(-0.0856837 0.000336775 0.00939564)
(-0.109753 -0.0117738 0.0109194)
(-0.135097 -0.0231271 0.00792154)
(-0.172381 -0.0376398 0.00510292)
(-0.22058 -0.066152 0.00394218)
(-0.274507 -0.114801 0.00592676)
(-0.316312 -0.185393 0.00533947)
(-0.338204 -0.277389 -0.00118248)
(-0.343866 -0.409834 -0.0159213)
(-0.3455 -0.544376 -0.0299234)
(-0.327013 -0.659932 -0.0517636)
(-0.25859 -0.702296 -0.0794516)
(-0.151846 -0.604188 -0.0868926)
(-0.0387505 -0.324539 -0.0737635)
(0.0118063 -0.0253129 -0.00556654)
(0.000147639 0.241581 0.000822108)
(0.0366357 0.479149 -0.0342694)
(0.107453 0.602166 -0.044407)
(0.187267 0.654894 -0.0396324)
(0.253971 0.655765 -0.0270881)
(0.302461 0.632945 -0.0184869)
(0.341813 0.59636 -0.00950673)
(0.371701 0.558117 -0.00426876)
(0.370661 0.518316 -0.00463212)
(0.336544 0.481962 -0.00408413)
(0.293551 0.443578 -0.00359214)
(0.245598 0.401843 -0.00288813)
(0.201257 0.356483 -0.00267764)
(0.164429 0.312652 -0.00137178)
(0.136825 0.268536 -0.00191551)
(0.116948 0.229602 0.000101744)
(0.0970109 0.192156 0.000247653)
(0.0809941 0.160584 0.00247075)
(0.0644206 0.135346 0.00277818)
(0.0438027 0.110763 -0.00202357)
(0.0278162 0.0885412 0.00121068)
(0.00824938 0.0672093 0.00377002)
(-0.00776987 0.0453044 0.00961016)
(-0.0207829 0.0241136 0.00981809)
(-0.0415192 0.0060358 0.00799115)
(-0.0630244 -0.00924981 0.0108759)
(-0.0825626 -0.0217826 0.0116967)
(-0.105016 -0.0370493 0.0121327)
(-0.136315 -0.0514796 0.00978147)
(-0.175543 -0.0674843 0.00845287)
(-0.222457 -0.0861299 0.00673406)
(-0.278575 -0.120558 0.00506923)
(-0.346217 -0.178906 0.00420128)
(-0.387981 -0.282435 0.00409824)
(-0.382052 -0.406017 -0.00227987)
(-0.3573 -0.544194 -0.0144439)
(-0.28674 -0.63751 -0.0286542)
(-0.174402 -0.624571 -0.055154)
(-0.0260244 -0.385568 -0.0533621)
(0.037237 -0.0247523 -0.0197839)
(0.000880322 0.251189 0.00242076)
(0.0378774 0.465452 -0.0262351)
(0.105188 0.588428 -0.0361486)
(0.179751 0.644528 -0.033939)
(0.24518 0.650378 -0.018959)
(0.294183 0.627851 -0.0131867)
(0.335862 0.589992 -0.00344168)
(0.365317 0.548929 0.000394411)
(0.365176 0.501416 0.000400367)
(0.33442 0.461381 0.000820736)
(0.291222 0.420204 0.00103014)
(0.242417 0.377672 0.00112411)
(0.199764 0.334933 0.00107135)
(0.166203 0.294553 0.000665276)
(0.139786 0.254409 0.000564039)
(0.118095 0.215587 0.00185871)
(0.103735 0.17614 0.00412201)
(0.0916221 0.143955 0.00607564)
(0.0755901 0.115596 0.00634879)
(0.0607546 0.0938754 0.00907312)
(0.0415753 0.0736431 0.00382177)
(0.0229248 0.0546632 0.00411616)
(0.00757373 0.0359561 0.00892489)
(-0.00918068 0.0184225 0.00819734)
(-0.0235325 -0.0036346 0.00861549)
(-0.0405207 -0.0170625 0.00938784)
(-0.0591855 -0.0341245 0.0107206)
(-0.0781081 -0.0505681 0.0118028)
(-0.103207 -0.0691673 0.0127269)
(-0.136061 -0.0883149 0.01267)
(-0.179637 -0.110007 0.012908)
(-0.222338 -0.143419 0.0135846)
(-0.271549 -0.182461 0.0141819)
(-0.307388 -0.23833 0.0125969)
(-0.333425 -0.32075 0.00685784)
(-0.348924 -0.45104 -0.000472042)
(-0.321576 -0.552012 -0.0148837)
(-0.224875 -0.582645 -0.0386056)
(-0.0580564 -0.373379 -0.0517456)
(0.026407 0.00894186 -0.0187992)
(0.00682861 0.226382 0.000709622)
(0.044003 0.420663 -0.0224497)
(0.103761 0.549783 -0.0310171)
(0.176022 0.609545 -0.0299106)
(0.239821 0.623801 -0.0174441)
(0.288989 0.604053 -0.0100595)
(0.332931 0.567947 -0.00112235)
(0.359606 0.524863 0.00281598)
(0.359897 0.474723 0.00351695)
(0.332635 0.432 0.00386074)
(0.288544 0.389661 0.00447595)
(0.241763 0.349618 0.00493952)
(0.202455 0.311504 0.00440154)
(0.169868 0.274362 0.0041111)
(0.143986 0.236045 0.00378701)
(0.123671 0.199805 0.00511668)
(0.108289 0.164319 0.00677316)
(0.100442 0.131143 0.00846884)
(0.0908667 0.10116 0.00860743)
(0.0748722 0.0765331 0.00748567)
(0.0587191 0.0612117 0.00781118)
(0.038763 0.0439441 0.00752459)
(0.0232329 0.0275053 0.00464436)
(0.00698136 0.0110365 0.00612879)
(-0.00844192 -0.00592317 0.00838614)
(-0.0224042 -0.0234795 0.00861885)