/*--------------------------------*- C++ -*----------------------------------*\
| =========                 |                                                 |
| \\      /  F ield         | OpenFOAM: The Open Source CFD Toolbox           |
|  \\    /   O peration     | Version:  v1806                                 |
|   \\  /    A nd           | Web:      www.OpenFOAM.com                      |
|    \\/     M anipulation  |                                                 |
\*---------------------------------------------------------------------------*/
FoamFile
{
    version     2.0;
    format      ascii;
    class       vectorField;
    location    "0.0085";
    object      currentcloudofpoints;
}
// * * * * * * * * * * * * * * * * * * * * * * * * * * * * * * * * * * * * * //


2409
(
(0.70392 1.05944 0.999999)
(0.96886 0.717871 0.999999)
(1.0448 1.32222 0.999993)
(1.00199 1.01643 0.708888)
(1.002 1.01643 1.29112)
(1.01041 1.02387 1)
(0.496381 1.09566 0.999994)
(0.928003 0.516216 0.999999)
(1.06374 1.5206 0.999998)
(0.990001 1.00786 0.511397)
(0.990003 1.00787 1.48861)
(1.04282 1.30711 1.09142)
(1.03678 1.26328 1.17357)
(1.02712 1.1952 1.23805)
(1.01494 1.11 1.27841)
(1.04394 1.31483 1.04571)
(1.03997 1.28535 1.13255)
(1.0321 1.22937 1.20589)
(1.02115 1.15268 1.25831)
(1.0085 1.06326 1.28477)
(0.970292 0.73243 1.0883)
(0.974424 0.774676 1.16845)
(0.981194 0.840532 1.23291)
(0.990483 0.923716 1.27526)
(0.96976 0.725262 1.04412)
(0.972518 0.753673 1.12828)
(0.977892 0.807723 1.20059)
(0.985886 0.882244 1.25401)
(0.996217 0.970146 1.28316)
(1.04282 1.3071 0.908582)
(1.03678 1.26329 0.826422)
(1.02711 1.19519 0.761956)
(1.01493 1.11 0.721585)
(1.04393 1.31482 0.954279)
(1.03997 1.28536 0.867445)
(1.03209 1.22937 0.794108)
(1.02115 1.15268 0.741695)
(1.0085 1.06327 0.71522)
(0.990478 0.92371 0.724736)
(0.981193 0.840532 0.767084)
(0.974414 0.774671 0.831555)
(0.970294 0.73242 0.911688)
(0.996214 0.970146 0.716854)
(0.985881 0.882231 0.745974)
(0.977891 0.807736 0.799431)
(0.972506 0.753652 0.871708)
(0.969773 0.725273 0.955878)
(0.910091 1.02971 1.27514)
(0.827416 1.04162 1.23228)
(0.761536 1.05103 1.16723)
(0.71877 1.0572 1.08741)
(0.95617 1.02322 1.28305)
(0.868855 1.03581 1.25377)
(0.794697 1.04641 1.19961)
(0.740289 1.05416 1.12715)
(0.711417 1.05839 1.04365)
(0.71878 1.05721 0.912594)
(0.761487 1.05105 0.832746)
(0.827375 1.04164 0.767681)
(0.910089 1.02971 0.724882)
(0.71144 1.05839 0.956351)
(0.740262 1.05418 0.872835)
(0.794648 1.04643 0.800356)
(0.868836 1.03582 0.746227)
(0.95617 1.02322 0.716978)
(0.877659 0.744854 1.00001)
(0.799191 0.79852 0.999985)
(0.740905 0.874238 0.999991)
(0.707984 0.964312 1)
(0.923442 0.731561 1)
(0.8385 0.771704 0.999999)
(0.770228 0.836375 0.999979)
(0.72464 0.919331 1)
(0.706023 1.01194 1)
(0.729534 1.15032 0.999999)
(0.782431 1.22829 0.999989)
(0.857947 1.28606 0.999999)
(0.948863 1.31826 0.999997)
(0.716837 1.10491 1)
(0.75603 1.18934 0.999992)
(0.820248 1.25719 0.999997)
(0.903482 1.30217 0.999998)
(0.997002 1.32025 0.999995)
(0.929398 0.525426 1.0931)
(0.934436 0.552802 1.18303)
(0.943215 0.597594 1.26648)
(0.952846 0.658476 1.34052)
(0.961727 0.732758 1.40241)
(0.970016 0.817818 1.44907)
(0.979207 0.910712 1.47813)
(0.929042 0.520861 1.04653)
(0.932087 0.539142 1.13801)
(0.939095 0.575165 1.22467)
(0.948508 0.628033 1.30336)
(0.957687 0.695672 1.37135)
(0.966082 0.775297 1.42572)
(0.974653 0.864261 1.46359)
(0.98458 0.959291 1.48332)
(1.00245 1.10567 1.48045)
(1.01634 1.20062 1.4539)
(1.03062 1.28895 1.4096)
(1.04353 1.36707 1.34876)
(1.05366 1.43183 1.27373)
(1.05978 1.4805 1.18813)
(1.06282 1.51053 1.09577)
(0.996184 1.05673 1.48446)
(1.0094 1.1531 1.46716)
(1.02359 1.24478 1.43181)
(1.03729 1.32804 1.37929)
(1.04891 1.3995 1.31132)
(1.05698 1.45628 1.2309)
(1.06138 1.49569 1.14192)
(1.06329 1.51569 1.04788)
(0.929398 0.525431 0.90689)
(0.934431 0.552793 0.816967)
(0.943204 0.597558 0.733493)
(0.952822 0.658407 0.659414)
(0.961712 0.732734 0.597562)
(0.970013 0.817818 0.550949)
(0.979208 0.910713 0.521884)
(0.929049 0.520872 0.953471)
(0.932078 0.539133 0.861985)
(0.939092 0.575152 0.775318)
(0.948485 0.627971 0.696584)
(0.957664 0.695627 0.628601)
(0.966072 0.775286 0.574275)
(0.974654 0.864265 0.536429)
(0.984578 0.95929 0.516689)
(1.06282 1.51053 0.904227)
(1.05978 1.48051 0.811866)
(1.05366 1.43182 0.726278)
(1.04354 1.36706 0.651236)
(1.03062 1.28895 0.590392)
(1.01633 1.20062 0.546097)
(1.00245 1.10566 0.519547)
(1.06328 1.5157 0.95212)
(1.06138 1.49569 0.858079)
(1.05699 1.45627 0.769103)
(1.04891 1.39948 0.688686)
(1.03729 1.32804 0.620692)
(1.02358 1.24477 0.568191)
(1.0094 1.1531 0.532838)
(0.996185 1.05673 0.515537)
(0.505919 1.09272 1.09216)
(0.534794 1.08521 1.18014)
(0.582539 1.0751 1.26157)
(0.645452 1.06326 1.33549)
(0.719536 1.0501 1.39884)
(0.803046 1.03626 1.44708)
(0.894419 1.02214 1.47725)
(0.501235 1.09432 1.04613)
(0.52029 1.08886 1.13618)
(0.558655 1.08002 1.22066)
(0.61433 1.06909 1.29815)
(0.682829 1.05663 1.36701)
(0.761425 1.04314 1.42307)
(0.848719 1.02921 1.4622)
(0.942361 1.01505 1.48302)
(0.505853 1.09273 0.907826)
(0.53473 1.08523 0.819836)
(0.582607 1.07509 0.738483)
(0.64542 1.06327 0.664483)
(0.719537 1.05009 0.601158)
(0.803061 1.03624 0.552948)
(0.894408 1.02214 0.522721)
(0.501224 1.09431 0.95386)
(0.520184 1.08888 0.863786)
(0.558683 1.08002 0.779365)
(0.614345 1.06909 0.701866)
(0.682806 1.05664 0.632967)
(0.761437 1.04312 0.576955)
(0.848717 1.0292 0.537794)
(0.942355 1.01505 0.516974)
(0.829018 0.539514 1)
(0.738481 0.581169 1)
(0.65951 0.639993 0.999999)
(0.594108 0.713972 0.999999)
(0.544186 0.800472 0.999994)
(0.510867 0.89583 1)
(0.494858 0.995691 1)
(0.8788 0.527758 1)
(0.783805 0.56023 1)
(0.699164 0.610372 1)
(0.627029 0.676728 0.999996)
(0.569331 0.756919 0.999996)
(0.527825 0.847951 0.999997)
(0.50313 0.945608 1)
(0.49594 1.04557 0.999998)
(0.515637 1.19147 0.999995)
(0.553337 1.27919 0.999993)
(0.608986 1.356 0.999998)
(0.681032 1.42 1.00001)
(0.766732 1.46972 1)
(0.862231 1.50392 1)
(0.963079 1.52153 1)
(0.50619 1.14353 0.999995)
(0.53451 1.23532 0.999997)
(0.581105 1.31752 0.999992)
(0.644901 1.3879 1.00001)
(0.723841 1.44468 1)
(0.8145 1.48666 0.999999)
(0.912845 1.51253 1)
(1.01369 1.52104 0.999999)
(0.996637 1.01174 0.610784)
(0.993546 1.00956 0.561079)
(0.99946 1.01411 0.660144)
(0.996647 1.01175 1.38921)
(0.99947 1.01411 1.33986)
(0.993552 1.00957 1.43892)
(0.952092 0.615941 0.999999)
(0.961025 0.666955 0.999998)
(0.941411 0.565466 1)
(1.05446 1.42122 0.999995)
(1.0497 1.37159 0.999993)
(1.05916 1.47087 0.999997)
(0.652883 1.26981 1.25823)
(0.634418 1.31802 1.18522)
(0.840143 1.20182 1.42562)
(0.780014 1.4383 1.16945)
(0.53603 1.22181 1.08685)
(0.926501 1.16222 1.46164)
(0.964685 1.49967 1.14027)
(0.881316 1.45027 1.22047)
(0.577474 1.23332 1.18194)
(0.710816 1.36067 1.22723)
(0.673292 1.38884 1.12775)
(0.618153 1.16542 1.28101)
(0.804038 1.37864 1.2809)
(0.862991 1.48152 1.13886)
(0.74141 1.30085 1.31458)
(0.906279 1.50838 1.06928)
(0.925691 1.25018 1.42612)
(0.817487 1.48234 1.08071)
(0.52883 1.16077 1.13099)
(0.856214 1.10147 1.45989)
(0.758471 1.14347 1.40747)
(0.838344 1.30322 1.36809)
(0.970591 1.45146 1.24564)
(0.593447 1.3197 1.09407)
(0.560175 1.14739 1.20727)
(0.770829 1.23711 1.37641)
(0.974476 1.39745 1.31835)
(0.894871 1.39248 1.30718)
(0.511217 1.15749 1.06215)
(0.933072 1.08042 1.47995)
(0.9926 1.51908 1.06159)
(0.694857 1.21625 1.33369)
(0.682907 1.13014 1.35737)
(0.949623 1.3398 1.37075)
(0.634433 1.37629 1.05696)
(0.738174 1.44732 1.07786)
(0.964648 1.13399 1.47111)
(0.971465 1.18143 1.45786)
(0.961599 1.04416 1.48429)
(0.967791 1.09305 1.48023)
(0.92981 1.12131 1.47078)
(0.971301 1.22552 1.44015)
(0.978292 1.26958 1.41804)
(0.926145 1.20622 1.44388)
(0.990379 1.31452 1.39033)
(0.996678 1.3534 1.35988)
(0.937793 1.29508 1.39857)
(1.00915 1.38231 1.33362)
(1.01421 1.41459 1.29615)
(0.96217 1.36863 1.3446)
(1.01231 1.44168 1.25972)
(1.01538 1.46595 1.217)
(0.972822 1.42453 1.282)
(1.01248 1.49023 1.1642)
(1.01395 1.50508 1.11812)
(0.967868 1.47585 1.1929)
(1.02784 1.51483 1.07865)
(1.0283 1.51985 1.03087)
(0.978664 1.50944 1.10094)
(0.977867 1.52036 1.03076)
(0.544721 1.25065 1.04346)
(0.525815 1.20673 1.04345)
(0.523627 1.18963 1.07449)
(0.513452 1.17457 1.03109)
(0.503923 1.12661 1.03107)
(0.60121 1.33797 1.04707)
(0.573319 1.29948 1.04703)
(0.564708 1.27075 1.09043)
(0.657668 1.39817 1.02853)
(0.621684 1.36616 1.02847)
(0.613929 1.34801 1.07553)
(0.7524 1.45856 1.03898)
(0.709526 1.43365 1.03886)
(0.686151 1.4116 1.06736)
(0.8398 1.49316 1.04042)
(0.792075 1.47604 1.04027)
(0.777839 1.46468 1.07928)
(0.934736 1.51497 1.03472)
(0.884248 1.50615 1.03458)
(0.861891 1.4952 1.07502)
(0.949664 1.5137 1.06547)
(0.615231 1.25146 1.21976)
(0.605914 1.2757 1.18356)
(0.643775 1.29398 1.22162)
(0.672626 1.33927 1.20607)
(0.681816 1.31528 1.24278)
(0.585449 1.2767 1.1381)
(0.613852 1.31887 1.13958)
(0.653833 1.35352 1.15654)
(0.692137 1.37487 1.17732)
(0.633237 1.35413 1.11081)
(0.883493 1.18202 1.44366)
(0.882869 1.22593 1.42586)
(0.891354 1.13182 1.46071)
(0.848244 1.15168 1.44277)
(0.839391 1.25261 1.39691)
(0.882295 1.27676 1.39721)
(0.799257 1.17264 1.41663)
(0.807496 1.12243 1.43386)
(0.805659 1.21946 1.40108)
(0.764657 1.19038 1.39199)
(0.804533 1.27013 1.37226)
(0.759119 1.44286 1.12352)
(0.798729 1.4604 1.12513)
(0.726638 1.41335 1.14845)
(0.705681 1.41805 1.10287)
(0.842665 1.41438 1.25081)
(0.792382 1.40879 1.225)
(0.830761 1.44422 1.19485)
(0.821491 1.45978 1.15424)
(0.872258 1.46605 1.17959)
(0.840251 1.48194 1.10971)
(0.745349 1.39952 1.19845)
(0.757597 1.3696 1.25391)
(0.553131 1.197 1.15639)
(0.532487 1.19134 1.10895)
(0.556659 1.2275 1.13439)
(0.520003 1.15913 1.0966)
(0.517449 1.12669 1.11155)
(0.531977 1.12297 1.15556)
(0.508706 1.1251 1.07715)
(0.547551 1.11628 1.19366)
(0.571486 1.1112 1.23434)
(0.544485 1.15401 1.1691)
(0.600519 1.12031 1.2712)
(0.632148 1.11434 1.3081)
(0.58925 1.15632 1.24386)
(0.701399 1.09012 1.37808)
(0.664277 1.09674 1.34639)
(0.650989 1.14774 1.31886)
(0.739024 1.09685 1.40316)
(0.780912 1.08987 1.42735)
(0.720868 1.13677 1.38239)
(0.829574 1.06891 1.45351)
(0.875371 1.06181 1.46855)
(0.913748 1.05129 1.47857)
(0.894769 1.09095 1.46991)
(0.635543 1.21771 1.26966)
(0.674226 1.24307 1.29577)
(0.656712 1.19083 1.30712)
(0.718094 1.25861 1.32419)
(0.697349 1.28528 1.28619)
(0.598051 1.19936 1.23125)
(0.726509 1.33089 1.27072)
(0.93561 1.5041 1.10467)
(0.688921 1.17326 1.34555)
(0.727089 1.17986 1.37054)
(0.732965 1.22665 1.35502)
(0.756387 1.26903 1.34545)
(0.653806 1.38256 1.09231)
(0.914034 1.49044 1.13959)
(0.923177 1.47497 1.18054)
(0.926168 1.45084 1.23308)
(0.884626 1.49496 1.10411)
(0.888436 1.42151 1.26376)
(0.849465 1.38547 1.29404)
(0.932965 1.42192 1.27655)
(0.568945 1.1904 1.1946)
(0.772671 1.33976 1.29782)
(0.790116 1.30196 1.3413)
(0.821675 1.34107 1.32447)
(0.866657 1.3479 1.33776)
(0.894 1.32142 1.36952)
(0.922593 1.36622 1.33899)
(0.934833 1.39495 1.31284)
(0.697288 0.797129 1.32044)
(0.567006 0.824903 1.16571)
(0.714931 0.632896 1.1643)
(0.780348 0.596808 1.17435)
(0.577487 0.880905 1.22492)
(0.719232 0.879869 1.37616)
(0.857413 0.553473 1.14159)
(0.514335 1.01994 1.13494)
(0.892041 0.881738 1.45872)
(0.616955 0.806129 1.23814)
(0.778651 0.652276 1.26083)
(0.527091 0.917123 1.13684)
(0.642927 0.892576 1.31304)
(0.871997 0.783641 1.41364)
(0.673006 0.976654 1.36054)
(0.602202 0.969857 1.28637)
(0.855349 0.593311 1.22742)
(0.842109 0.957564 1.45906)
(0.770279 0.573487 1.08978)
(0.55537 0.797021 1.09051)
(0.806426 0.872248 1.42588)
(0.54709 0.98382 1.20696)
(0.753433 0.967324 1.41865)
(0.603195 0.713993 1.08358)
(0.821793 0.715053 1.3481)
(0.873759 0.647632 1.30842)
(0.675845 0.712021 1.22977)
(0.750075 0.727261 1.31399)
(0.895073 0.703172 1.36745)
(0.773811 0.791357 1.37301)
(0.64026 0.689548 1.13831)
(0.602268 0.752569 1.15939)
(0.862147 0.534156 1.06544)
(0.918659 0.95541 1.47862)
(0.666087 0.641106 1.07034)
(0.499803 0.987901 1.06295)
(0.520048 0.876555 1.06005)
(0.813942 0.563414 1.11561)
(0.775412 0.585142 1.13206)
(0.818937 0.575106 1.15801)
(0.859924 0.543862 1.1035)
(0.816284 0.553793 1.07762)
(0.817902 0.594974 1.20079)
(0.856481 0.573346 1.18449)
(0.893636 0.539441 1.11738)
(0.896178 0.553043 1.16228)
(0.895967 0.529734 1.07926)
(0.89512 0.572996 1.20533)
(0.9311 0.849711 1.45399)
(0.93577 0.896266 1.46851)
(0.916974 0.758143 1.40811)
(0.921326 0.800736 1.43149)
(0.882229 0.832691 1.43621)
(0.948978 0.933054 1.47842)
(0.954378 0.981682 1.48365)
(0.905387 0.918605 1.46866)
(0.547256 0.870805 1.15123)
(0.552241 0.898773 1.18081)
(0.572327 0.852813 1.19529)
(0.537171 0.950363 1.17187)
(0.562551 0.932216 1.21587)
(0.610405 0.886566 1.26857)
(0.590101 0.92532 1.25545)
(0.622713 0.93113 1.29964)
(0.59739 0.84341 1.23148)
(0.63028 0.849283 1.27532)
(0.574686 0.976658 1.2464)
(0.592009 0.815353 1.20182)
(0.747703 0.614754 1.16932)
(0.742814 0.603135 1.12711)
(0.718447 0.606971 1.08005)
(0.690618 0.63692 1.11731)
(0.754627 0.577335 1.04488)
(0.799926 0.556533 1.04492)
(0.845761 0.536831 1.03271)
(0.702609 0.611028 1.03521)
(0.521019 0.968408 1.13584)
(0.530698 1.00176 1.17093)
(0.51362 0.952418 1.09992)
(0.507103 1.00392 1.09899)
(0.543592 0.850566 1.11295)
(0.523655 0.896835 1.09851)
(0.510305 0.932031 1.06148)
(0.658313 0.934644 1.33661)
(0.637998 0.973206 1.32306)
(0.696241 0.928221 1.36836)
(0.681395 0.886167 1.34436)
(0.670253 0.844736 1.31677)
(0.708682 0.838544 1.34809)
(0.657303 0.801407 1.27896)
(0.928667 0.717972 1.38495)
(0.883788 0.743419 1.39046)
(0.839138 0.827916 1.41977)
(0.849231 0.877038 1.4423)
(0.82293 0.787513 1.39332)
(0.79045 0.831833 1.39941)
(0.847394 0.749435 1.38071)
(0.858483 0.709114 1.35776)
(0.797896 0.753183 1.36052)
(0.65936 1.01994 1.34799)
(0.624199 1.01658 1.31068)
(0.696488 1.01343 1.37961)
(0.736564 1.00871 1.40876)
(0.713484 0.971951 1.38953)
(0.736587 0.923651 1.39737)
(0.592618 1.02245 1.27392)
(0.565011 1.02936 1.23407)
(0.868269 0.989901 1.46817)
(0.822602 0.996918 1.45305)
(0.797828 0.962434 1.43894)
(0.778309 1.00184 1.43288)
(0.906549 0.988791 1.47792)
(0.880437 0.956517 1.46885)
(0.867056 0.919672 1.45887)
(0.824356 0.91496 1.44248)
(0.779958 0.919767 1.42231)
(0.746925 0.642362 1.2124)
(0.779672 0.624423 1.21756)
(0.695649 0.672283 1.19708)
(0.72742 0.681896 1.24522)
(0.653298 0.66527 1.10438)
(0.677745 0.661003 1.15127)
(0.658088 0.700614 1.184)
(0.817067 0.622753 1.24415)
(0.524643 1.05249 1.1575)
(0.510292 1.0563 1.11355)
(0.503161 1.04021 1.07753)
(0.498505 1.04174 1.03149)
(0.541229 1.03445 1.1935)
(0.746578 0.835557 1.37463)
(0.735815 0.794231 1.34654)
(0.687002 0.754419 1.27483)
(0.646637 0.758843 1.23397)
(0.723773 0.762127 1.31722)
(0.713218 0.719459 1.27159)
(0.762346 0.759361 1.34327)
(0.895394 0.525163 1.03274)
(0.662945 0.640609 1.03518)
(0.630422 0.677284 1.03516)
(0.549964 0.798861 1.04528)
(0.575117 0.755386 1.04532)
(0.598803 0.714055 1.04182)
(0.634833 0.677298 1.07697)
(0.57951 0.755275 1.08704)
(0.515554 0.886251 1.03003)
(0.532403 0.838471 1.03004)
(0.537911 0.836627 1.07527)
(0.497401 0.991872 1.0315)
(0.505667 0.94182 1.03148)
(0.899635 0.595358 1.24692)
(0.913603 0.653026 1.32446)
(0.90869 0.622539 1.28753)
(0.864939 0.620426 1.26777)
(0.924078 0.680782 1.35403)
(0.884789 0.67543 1.3378)
(0.763009 0.876039 1.40103)
(0.82636 0.649926 1.28446)
(0.584827 0.788612 1.16254)
(0.609724 0.779204 1.19873)
(0.639106 0.732004 1.19447)
(0.847903 0.681314 1.32823)
(0.800828 0.683624 1.30414)
(0.764614 0.689675 1.28737)
(0.786038 0.721135 1.33096)
(0.578871 0.774638 1.12496)
(0.561208 0.810918 1.12817)
(0.621775 0.701703 1.11095)
(0.602826 0.733241 1.12155)
(0.62141 0.72093 1.14887)
(0.733541 0.695705 0.727793)
(0.617842 0.87091 0.723535)
(0.753135 0.642637 0.773595)
(0.775895 0.595806 0.832915)
(0.540084 0.874813 0.857213)
(0.78101 0.87084 0.587456)
(0.520976 0.968692 0.855868)
(0.836484 0.950443 0.543818)
(0.686008 0.698719 0.773154)
(0.585563 0.824368 0.797463)
(0.844491 0.725034 0.633793)
(0.604198 0.970849 0.711105)
(0.699008 0.85762 0.648093)
(0.662192 0.770434 0.732044)
(0.772351 0.800623 0.622806)
(0.560378 0.912811 0.789501)
(0.74366 0.953884 0.589122)
(0.844839 0.590946 0.782869)
(0.891795 0.882516 0.541113)
(0.853348 0.551698 0.867644)
(0.68878 0.619849 0.940417)
(0.563601 0.786357 0.896538)
(0.626362 0.68562 0.913582)
(0.77094 0.571171 0.920216)
(0.553629 0.999749 0.779468)
(0.625202 0.72998 0.824842)
(0.825827 0.655597 0.705242)
(0.696547 0.640366 0.850568)
(0.670441 0.965944 0.642989)
(0.512782 0.906839 0.935276)
(0.864845 0.796973 0.581754)
(0.860137 0.53421 0.938429)
(0.501086 1.02415 0.917144)
(0.748463 0.744921 0.673477)
(0.644315 0.914815 0.678623)
(0.917563 0.954223 0.521708)
(0.674302 0.734494 0.752628)
(0.698034 0.732921 0.729935)
(0.709847 0.697142 0.750562)
(0.743473 0.669111 0.750706)
(0.719689 0.670544 0.773373)
(0.741229 0.720303 0.700767)
(0.705544 0.757536 0.70297)
(0.7897 0.649019 0.739626)
(0.77974 0.675545 0.716566)
(0.787303 0.700165 0.689369)
(0.836408 0.876723 0.564195)
(0.808911 0.910692 0.565577)
(0.864112 0.916496 0.542481)
(0.762379 0.91235 0.588259)
(0.790174 0.952151 0.566371)
(0.878489 0.839749 0.561392)
(0.822799 0.833879 0.584567)
(0.776866 0.835758 0.60518)
(0.735754 0.829064 0.635461)
(0.740357 0.864243 0.617904)
(0.721805 0.90582 0.618723)
(0.818655 0.79883 0.602303)
(0.905992 0.988198 0.522225)
(0.95383 0.981089 0.516519)
(0.948435 0.932463 0.521759)
(0.540723 0.940616 0.822717)
(0.55024 0.893724 0.823366)
(0.530788 0.921643 0.856576)
(0.557187 0.956219 0.78452)
(0.537271 0.984111 0.817706)
(0.517017 0.937727 0.895519)
(0.526509 0.890791 0.896202)
(0.544423 1.04243 0.799715)
(0.52824 1.02683 0.837954)
(0.511119 0.996366 0.886485)
(0.517895 1.05453 0.868478)
(0.50732 0.96531 0.926243)
(0.877074 0.952369 0.532749)
(0.904717 0.9184 0.531423)
(0.77347 0.995116 0.57097)
(0.819786 0.993353 0.548366)
(0.865449 0.986351 0.533254)
(0.655631 0.714166 0.799058)
(0.643798 0.750011 0.778594)
(0.724879 0.64134 0.81215)
(0.6914 0.669391 0.811811)
(0.661179 0.684865 0.837673)
(0.930979 0.850104 0.545948)
(0.935653 0.896661 0.531425)
(0.917719 0.807384 0.5662)
(0.640229 0.82054 0.727776)
(0.623946 0.797109 0.764923)
(0.6018 0.847521 0.760662)
(0.605663 0.776961 0.811148)
(0.573195 0.868489 0.793512)
(0.562842 0.849401 0.827385)
(0.589185 0.891691 0.756695)
(0.574604 0.805231 0.846937)
(0.55209 0.830425 0.876861)
(0.594532 0.757933 0.860729)
(0.760684 0.772789 0.648267)
(0.80838 0.762781 0.628289)
(0.796584 0.734956 0.653729)
(0.854998 0.761048 0.607875)
(0.903526 0.728833 0.615551)
(0.898887 0.691591 0.646447)
(0.83566 0.690329 0.669727)
(0.889911 0.656902 0.682329)
(0.913403 0.764758 0.589545)
(0.611272 0.920837 0.717377)
(0.582445 0.941718 0.750583)
(0.578988 0.985158 0.745512)
(0.625159 1.01708 0.688025)
(0.59364 1.02293 0.724844)
(0.568258 1.03736 0.759109)
(0.637641 0.968348 0.677375)
(0.658076 1.0146 0.653744)
(0.624361 0.942766 0.694935)
(0.631236 0.892859 0.701222)
(0.657547 0.94039 0.660904)
(0.658768 0.864146 0.68619)
(0.681166 0.814003 0.690451)
(0.723962 0.801177 0.660784)
(0.707277 0.959878 0.616126)
(0.684894 0.911756 0.64552)
(0.671759 0.886143 0.663397)
(0.731676 1.00199 0.59512)
(0.695245 1.00808 0.62215)
(0.799035 0.616716 0.778232)
(0.8104 0.593294 0.807973)
(0.764604 0.619173 0.803228)
(0.814651 0.57369 0.850238)
(0.849162 0.571288 0.82526)
(0.889895 0.571803 0.799813)
(0.894476 0.594124 0.758233)
(0.894182 0.552141 0.842349)
(0.835632 0.623202 0.744116)
(0.884835 0.626413 0.719192)
(0.538663 0.846248 0.915945)
(0.736346 0.617947 0.841772)
(0.812219 0.561361 0.893984)
(0.773505 0.583461 0.876555)
(0.734004 0.605621 0.885314)
(0.503599 1.0584 0.912498)
(0.498998 1.05998 0.958529)
(0.754936 0.576199 0.960122)
(0.80024 0.555422 0.960088)
(0.844754 0.536884 0.969233)
(0.894385 0.525183 0.969194)
(0.815606 0.552672 0.929316)
(0.674271 0.629914 0.970211)
(0.713822 0.60047 0.970192)
(0.730006 0.595303 0.930324)
(0.610447 0.699825 0.956779)
(0.643204 0.66282 0.956748)
(0.657763 0.652545 0.926979)
(0.579209 0.75013 0.948186)
(0.554056 0.793498 0.948218)
(0.595356 0.735643 0.905067)
(0.511901 0.901411 0.967623)
(0.52894 0.853514 0.967618)
(0.504077 0.951212 0.967629)
(0.498099 1.01002 0.958543)
(0.894981 0.529757 0.922672)
(0.891614 0.53855 0.88723)
(0.856873 0.542998 0.903048)
(0.692782 0.630113 0.895461)
(0.661576 0.662766 0.882105)
(0.625897 0.707735 0.869143)
(0.659311 1.3402 0.807899)
(0.629954 1.26703 0.767118)
(0.877476 1.47693 0.837837)
(0.754888 1.22516 0.626875)
(0.532364 1.18083 0.875283)
(0.97587 1.50114 0.861702)
(0.916349 1.16593 0.541171)
(0.854798 1.26122 0.598267)
(0.580995 1.27401 0.855776)
(0.704344 1.2973 0.71272)
(0.655362 1.19949 0.69406)
(0.636745 1.37019 0.910379)
(0.798613 1.33603 0.678264)
(0.823195 1.18002 0.572477)
(0.750524 1.38165 0.762533)
(0.851479 1.10156 0.541692)
(0.957827 1.46424 0.778576)
(0.7741 1.12669 0.579482)
(0.535224 1.22898 0.932217)
(0.911444 1.50924 0.930082)
(0.797547 1.47198 0.906167)
(0.854228 1.41876 0.742834)
(0.943269 1.27292 0.583683)
(0.580847 1.17779 0.774077)
(0.574274 1.30385 0.937772)
(0.795339 1.43885 0.816543)
(0.966392 1.34632 0.632717)
(0.888214 1.3475 0.64961)
(0.511484 1.15937 0.93965)
(0.995735 1.51918 0.9386)
(0.930145 1.08106 0.520545)
(0.714731 1.40962 0.84957)
(0.714415 1.43543 0.931501)
(0.959583 1.40358 0.690298)
(0.611968 1.13118 0.714131)
(0.704681 1.13617 0.626728)
(0.979443 1.52041 0.969341)
(1.02986 1.5199 0.969226)
(1.02939 1.51488 0.921445)
(0.620044 1.307 0.831998)
(0.605477 1.27048 0.811607)
(0.644643 1.30369 0.78748)
(0.667305 1.28212 0.74015)
(0.682163 1.31884 0.760589)
(0.647998 1.35528 0.859191)
(0.608851 1.32221 0.883025)
(0.727442 1.33957 0.737561)
(0.70497 1.36083 0.785391)
(0.686981 1.37493 0.828683)
(0.675649 1.3898 0.880109)
(0.732769 1.39575 0.806208)
(0.525469 1.21026 0.966096)
(0.544316 1.25418 0.966077)
(0.504039 1.12755 0.969817)
(0.51363 1.17548 0.969802)
(0.523405 1.19416 0.935948)
(0.563802 1.29156 0.968876)
(0.591609 1.32997 0.968859)
(0.55475 1.26644 0.934998)
(0.622803 1.36316 0.955204)
(0.658806 1.3952 0.95512)
(0.605434 1.33694 0.924117)
(0.740516 1.45257 0.96568)
(0.697673 1.42773 0.965791)
(0.675487 1.40273 0.920925)
(0.782068 1.47094 0.953147)
(0.829797 1.48801 0.952959)
(0.755971 1.45353 0.918889)
(0.886833 1.50659 0.965119)
(0.937312 1.51539 0.964973)
(0.854493 1.49041 0.918045)
(0.953812 1.51418 0.934308)
(0.960141 1.04449 0.515941)
(0.912275 1.05161 0.521658)
(0.966337 1.09338 0.520008)
(0.533694 1.13305 0.847518)
(0.519221 1.13671 0.891593)
(0.521916 1.17007 0.907457)
(0.508796 1.12605 0.923734)
(0.557887 1.13146 0.7971)
(0.556466 1.1792 0.824754)
(0.558022 1.25144 0.894021)
(0.533862 1.20494 0.903728)
(0.556722 1.2274 0.865582)
(0.581029 1.226 0.814886)
(0.926882 1.48892 0.84967)
(0.91789 1.47062 0.80831)
(0.966952 1.48283 0.820157)
(1.009 1.47234 0.795087)
(1.01803 1.49095 0.83681)
(0.943817 1.50528 0.895985)
(0.985814 1.51023 0.900148)
(0.894452 1.49322 0.883922)
(1.0195 1.5058 0.882891)
(0.581985 1.12645 0.756336)
(0.628916 1.09719 0.689441)
(0.597396 1.10315 0.726395)
(0.596577 1.15446 0.744251)
(0.712207 1.09315 0.613958)
(0.675217 1.09976 0.645687)
(0.658855 1.13362 0.670823)
(0.788666 1.08148 0.566206)
(0.746847 1.08845 0.590308)
(0.739548 1.13139 0.603123)
(0.872997 1.06186 0.532219)
(0.827236 1.06894 0.547322)
(0.812857 1.11411 0.560494)
(0.890929 1.09131 0.531121)
(0.827135 1.29871 0.638207)
(0.776748 1.28072 0.652457)
(0.804824 1.24314 0.612481)
(0.789275 1.20258 0.599642)
(0.838951 1.22066 0.585332)
(0.798628 1.15337 0.575968)
(0.764663 1.17598 0.603198)
(0.729755 1.1807 0.626792)
(0.679815 1.24847 0.703331)
(0.705438 1.21228 0.660628)
(0.730121 1.26132 0.669905)
(0.751544 1.31659 0.69555)
(0.680348 1.16782 0.660509)
(0.605409 1.22247 0.770615)
(0.642931 1.23332 0.730752)
(0.6184 1.18855 0.734525)
(0.869826 1.17296 0.556781)
(0.885859 1.21367 0.569569)
(0.92982 1.21947 0.562337)
(0.899116 1.26701 0.590954)
(0.837396 1.14081 0.557065)
(0.883889 1.13373 0.541477)
(0.923299 1.12348 0.530896)
(0.966428 1.18331 0.543491)
(0.980065 1.2369 0.564747)
(0.959638 1.13586 0.530268)
(0.87159 1.30438 0.623879)
(0.843416 1.3417 0.663906)
(0.916129 1.3103 0.616568)
(0.577616 1.28899 0.896742)
(0.77499 1.35896 0.720576)
(0.633712 1.16535 0.704158)
(0.714542 1.4226 0.890544)
(0.802426 1.40004 0.752708)
(0.826495 1.37744 0.710461)
(0.871708 1.38333 0.696232)
(0.825011 1.42889 0.779857)
(0.772936 1.41028 0.789488)
(0.755044 1.42414 0.833132)
(0.907251 1.4112 0.716548)
(0.959069 1.43408 0.734422)
(0.906129 1.44136 0.760538)
(1.00679 1.41765 0.708139)
(1.00609 1.44819 0.752382)
(0.866025 1.448 0.790356)
(0.924005 1.37548 0.66985)
(0.963174 1.37499 0.661475)
(0.927461 1.34689 0.64111)
(1.00182 1.3854 0.67068)
(1.00502 1.35667 0.641896)
(0.83756 1.47446 0.872139)
(0.796458 1.45554 0.861389)
(0.756087 1.4407 0.877767)
(0.836389 1.45777 0.827127)
(0.954945 1.30964 0.608133)
(0.987033 1.28094 0.58694)
(0.998722 1.31776 0.611444)
(0.906778 0.899245 1.24774)
(0.881133 0.776641 1.1245)
(0.78229 0.840844 1.09186)
(0.863385 0.965216 1.24957)
(0.728097 0.929066 1.07365)
(0.838075 0.905917 1.21337)
(0.903836 0.829453 1.20212)
(0.821497 0.849754 1.1601)
(0.767541 0.933598 1.15582)
(0.931119 0.963875 1.27587)
(0.845451 0.769292 1.0555)
(0.8028 0.9786 1.20937)
(0.736936 0.991337 1.12865)
(0.905976 0.739139 1.05512)
(0.709795 0.999905 1.05959)
(0.706927 1.02974 1.02979)
(0.714316 1.02858 1.07348)
(0.727959 1.02431 1.10801)
(0.749274 1.02123 1.14787)
(0.723463 0.995644 1.09405)
(0.892686 0.803194 1.16312)
(0.862784 0.839731 1.18104)
(0.851391 0.813243 1.14229)
(0.831891 0.808788 1.10813)
(0.802032 0.845348 1.12587)
(0.814035 0.805105 1.07369)
(0.863422 0.773023 1.08993)
(0.893662 0.75794 1.08979)
(0.875741 0.754238 1.0553)
(0.93921 0.802205 1.18521)
(0.928024 0.775918 1.14627)
(0.925866 0.754719 1.10636)
(0.938267 0.735909 1.07163)
(0.775146 0.887351 1.12373)
(0.747947 0.931394 1.1146)
(0.755416 0.885016 1.08273)
(0.734667 0.901759 1.0368)
(0.761853 0.857668 1.04584)
(0.752302 0.962502 1.14223)
(0.732571 0.960259 1.10109)
(0.718164 0.946751 1.0368)
(0.719031 0.964517 1.06662)
(0.708936 0.982164 1.02978)
(0.94875 0.911695 1.26137)
(0.960856 0.943893 1.27551)
(0.918977 0.931661 1.26177)
(0.966565 0.990249 1.28342)
(0.897318 0.964652 1.26272)
(0.885115 0.932296 1.24868)
(0.92063 0.996848 1.27551)
(0.886761 0.997576 1.26232)
(0.871029 0.86778 1.20775)
(0.829911 0.877934 1.18662)
(0.794687 0.891746 1.15795)
(0.803023 0.919847 1.18449)
(0.861643 0.757121 1.02776)
(0.822462 0.783978 1.0277)
(0.891908 0.742049 1.02753)
(0.790975 0.819808 1.0459)
(0.944091 0.87005 1.24022)
(0.905379 0.864452 1.22485)
(0.872482 0.902682 1.23057)
(0.942645 0.835196 1.2174)
(0.850765 0.935649 1.23144)
(0.845481 1.0035 1.24098)
(0.782353 1.01488 1.18828)
(0.815142 1.01017 1.22079)
(0.833194 0.971983 1.22947)
(0.770123 0.985052 1.16879)
(0.937584 0.728674 1.0276)
(0.785267 0.95618 1.18248)
(0.820503 0.942315 1.21141)
(0.754217 1.13065 1.12344)
(0.950995 1.28913 1.124)
(0.897318 1.29574 1.06431)
(0.923766 1.24042 1.18364)
(0.862176 1.18732 1.19918)
(0.941687 1.15988 1.25056)
(0.869089 1.25077 1.13642)
(0.824698 1.25283 1.07247)
(0.880091 1.1082 1.25007)
(0.976565 1.3164 1.05758)
(0.807614 1.19993 1.13739)
(0.811008 1.1313 1.19436)
(0.759165 1.18553 1.06652)
(0.72397 1.11964 1.05689)
(0.94821 1.0866 1.27825)
(0.861012 1.27431 1.06841)
(0.883308 1.27334 1.1004)
(0.847002 1.25186 1.10433)
(0.816265 1.22644 1.10494)
(0.83837 1.22537 1.13691)
(0.910093 1.26997 1.13024)
(0.937471 1.26485 1.15385)
(0.896525 1.24569 1.15999)
(0.924292 1.29251 1.09406)
(0.892969 1.2139 1.19144)
(0.865781 1.21916 1.16781)
(0.83505 1.19373 1.16819)
(0.721427 1.08845 1.07215)
(0.714021 1.08958 1.02839)
(0.758 1.09089 1.14533)
(0.73655 1.09395 1.10533)
(0.739149 1.12517 1.09006)
(0.99409 1.27632 1.14865)
(0.997046 1.29813 1.10779)
(0.963877 1.30283 1.09084)
(1.00978 1.31184 1.07443)
(1.01078 1.3194 1.0289)
(0.978466 1.13509 1.2645)
(0.984443 1.17752 1.24426)
(0.975806 1.21795 1.21066)
(0.980471 1.25179 1.17854)
(0.932985 1.20029 1.21707)
(0.981575 1.09833 1.2783)
(0.975193 1.05165 1.28468)
(0.945038 1.12331 1.26446)
(0.853754 1.07499 1.24117)
(0.895207 1.06904 1.26267)
(0.914261 1.09749 1.26419)
(0.92915 1.05819 1.27669)
(0.845733 1.11988 1.22216)
(0.819392 1.08654 1.21332)
(0.910886 1.13408 1.25032)
(0.871335 1.14786 1.22461)
(0.836605 1.15935 1.19678)
(0.902134 1.17373 1.22482)
(0.726802 1.13502 1.02845)
(0.786359 1.09123 1.18071)
(0.782795 1.13103 1.15872)
(0.756782 1.15814 1.09498)
(0.741605 1.15261 1.06168)
(0.783522 1.19276 1.10179)
(0.780984 1.16531 1.13036)
(0.809462 1.1657 1.16586)
(0.962793 1.31739 1.02874)
(0.937105 1.30603 1.06095)
(0.923193 1.30706 1.03225)
(0.744389 1.16797 1.03317)
(0.770864 1.20697 1.03331)
(0.841406 1.26953 1.03631)
(0.803647 1.24062 1.0361)
(0.792003 1.21919 1.06945)
(0.877695 1.29096 1.03207)
(0.874063 1.12033 0.757096)
(0.973939 1.28759 0.86549)
(0.78741 1.20693 0.904133)
(0.951631 1.16378 0.749111)
(0.816543 1.17794 0.831182)
(0.886589 1.25917 0.861963)
(0.812671 1.09866 0.790579)
(0.888308 1.1989 0.79432)
(0.757546 1.12227 0.864943)
(0.950457 1.23703 0.803606)
(0.94159 1.30893 0.934982)
(0.948891 1.08998 0.722385)
(0.84282 1.26911 0.939223)
(0.733576 1.1444 0.943853)
(0.73821 1.08977 0.888886)
(0.759594 1.0867 0.848843)
(0.718882 1.10197 0.972013)
(0.726275 1.10085 0.928217)
(0.745655 1.13339 0.904493)
(0.785353 1.11054 0.827941)
(0.787154 1.07491 0.811758)
(0.820081 1.07019 0.77912)
(0.892241 1.07514 0.740906)
(0.911629 1.10526 0.739703)
(0.929493 1.05988 0.723655)
(0.95034 1.12693 0.735703)
(0.912876 1.14209 0.753111)
(0.852476 1.18848 0.812801)
(0.881306 1.15967 0.775703)
(0.845628 1.1493 0.794223)
(0.920156 1.18145 0.771741)
(0.85072 1.08106 0.762376)
(0.843418 1.10957 0.773856)
(0.814744 1.13836 0.810879)
(0.731601 1.14738 0.971941)
(0.787125 1.15013 0.848164)
(0.772588 1.16466 0.884514)
(0.802135 1.19251 0.86776)
(0.760533 1.17571 0.924093)
(0.975535 1.05335 0.715634)
(0.981914 1.10002 0.722005)
(0.983408 1.13704 0.735327)
(0.918718 1.24823 0.832864)
(0.919402 1.21798 0.798951)