/*--------------------------------*- C++ -*----------------------------------*\
| =========                 |                                                 |
| \\      /  F ield         | OpenFOAM: The Open Source CFD Toolbox           |
|  \\    /   O peration     | Version:  v1806                                 |
|   \\  /    A nd           | Web:      www.OpenFOAM.com                      |
|    \\/     M anipulation  |                                                 |
\*---------------------------------------------------------------------------*/
FoamFile
{
    version     2.0;
    format      ascii;
    class       surfaceScalarField;
    location    "0.1285";
    object      phi;
}
// * * * * * * * * * * * * * * * * * * * * * * * * * * * * * * * * * * * * * //

dimensions      [0 3 -1 0 0 0 0];
oriented        oriented;


internalField   nonuniform List<scalar> 
187200
(
2.9833e-06
4.63406e-06
-7.63366e-06
5.24519e-05
-2.20215e-05
-2.74462e-05
7.0393e-05
-6.46835e-06
-1.14711e-05
8.4973e-05
-5.54118e-06
-9.03788e-06
9.68829e-05
-3.66123e-06
-8.2483e-06
0.00011109
-3.83138e-06
-1.03761e-05
0.000125883
-1.86819e-06
-1.29238e-05
0.000144115
-2.05612e-06
-1.61753e-05
0.000162709
-3.67566e-07
-1.82246e-05
0.000180416
2.14079e-07
-1.79199e-05
0.000200845
-1.10868e-06
-1.93203e-05
0.000216811
3.00171e-06
-1.89675e-05
0.000221159
7.24782e-06
-1.15957e-05
0.000209459
1.70003e-05
-5.30021e-06
0.000180479
2.37558e-05
5.22354e-06
0.000155263
1.47284e-05
1.04869e-05
0.000119189
1.06277e-05
2.54457e-05
7.81239e-05
2.11018e-05
1.99631e-05
-1.22962e-05
7.89905e-05
1.14303e-05
-0.000167387
0.000132801
2.22901e-05
-0.000443318
0.000218921
5.70099e-05
-0.000629845
0.000219642
-3.31161e-05
-0.000778615
0.000269508
-0.000120738
-0.000821129
0.000287785
-0.000245272
-0.000808984
0.000320917
-0.000333062
-0.000740308
0.00035027
-0.000418946
-0.000630316
0.000377437
-0.000487428
-0.000489303
0.000394614
-0.000535628
-0.000315278
0.000387008
-0.000561034
-0.000144959
0.000373264
-0.000543583
-1.63784e-05
0.000340847
-0.000469429
6.48362e-05
0.000293223
-0.000374436
9.42062e-05
0.000229387
-0.000258756
8.43738e-05
0.000166668
-0.000156835
5.24191e-05
0.000115092
-8.31358e-05
2.73038e-05
7.46668e-05
-4.95503e-05
9.96104e-06
4.97613e-05
-3.24173e-05
3.70577e-07
3.6128e-05
-2.65371e-05
-4.59448e-06
2.51899e-05
-2.02241e-05
1.60377e-05
-2.06326e-05
-5.01304e-06
3.20155e-05
-2.23674e-05
3.51237e-05
-2.15122e-05
-4.0643e-05
7.26894e-05
-1.32199e-05
-3.08122e-05
0.000101733
-7.46713e-06
-2.71171e-05
0.00012085
2.38531e-06
-2.51631e-05
0.000135322
1.02489e-05
-2.85514e-05
0.000144157
2.26173e-05
-3.33189e-05
0.000150143
3.08024e-05
-3.8842e-05
0.000152407
4.5998e-05
-4.86281e-05
0.000140499
6.6103e-05
-5.39799e-05
0.000106194
0.000105802
-7.26045e-05
5.13887e-05
0.000144174
-8.63667e-05
-2.29228e-05
0.000175744
-9.41846e-05
-0.000112101
0.000210854
-0.000104676
-0.000218292
0.000260571
-0.000130626
-0.000364184
0.000326692
-0.000166072
-0.000517297
0.000404133
-0.000240394
-0.000679117
0.000481351
-0.000298428
-0.000830443
0.000592869
-0.000362552
-0.000992592
0.000705156
-0.000410206
-0.00116028
0.000829338
-0.000442729
-0.00126499
0.00091323
-0.000588879
-0.00134535
0.00101566
-0.00066579
-0.00134481
0.00105185
-0.000764602
-0.0012719
0.00109819
-0.000850181
-0.00113469
0.00112305
-0.000909995
-0.00094839
0.00113364
-0.000942495
-0.000725986
0.00111319
-0.000940984
-0.000500837
0.00106004
-0.000898182
-0.000277159
0.000978448
-0.000828862
-8.32697e-05
0.00085038
-0.000703421
7.59311e-05
0.000708326
-0.000574303
0.000152256
0.000561575
-0.000408511
0.000176306
0.000429399
-0.00028678
0.000157219
0.000314583
-0.000180402
0.000122075
0.000229405
-0.000119594
8.32525e-05
0.000169993
-8.14078e-05
4.96277e-05
0.00013296
-6.3206e-05
2.05583e-05
0.000101847
-4.75867e-05
6.61816e-05
-2.95876e-05
1.2348e-05
3.06203e-05
-1.09512e-05
4.64916e-05
-1.77132e-05
-3.79402e-05
8.46933e-05
-9.61282e-06
-4.18074e-05
0.000110729
1.00589e-05
-4.35604e-05
0.000122494
3.81494e-05
-4.75292e-05
0.000126284
6.41167e-05
-5.76562e-05
0.00011793
9.54769e-05
-6.45055e-05
0.00010571
0.000127358
-8.43342e-05
7.61443e-05
0.000182628
-0.000107064
2.4005e-05
0.000243824
-0.000125582
-5.06963e-05
0.000316862
-0.000136358
-0.000144671
0.000395073
-0.000156924
-0.000285777
0.000492834
-0.000175983
-0.000445205
0.000590933
-0.00022065
-0.000621116
0.000695727
-0.000259245
-0.000782067
0.000800363
-0.000312721
-0.000917139
0.000911123
-0.000371918
-0.0010341
0.00102676
-0.000428452
-0.00115051
0.0011853
-0.00047602
-0.00128694
0.00134618
-0.00050459
-0.00142522
0.00147597
-0.00050836
-0.00149769
0.00158118
-0.000595478
-0.00153624
0.00167431
-0.000620102
-0.00151214
0.00168728
-0.000659534
-0.00142689
0.00171285
-0.000699916
-0.00129249
0.00170104
-0.000712384
-0.00112284
0.00166557
-0.000701585
-0.000928376
0.00158554
-0.000666804
-0.000723935
0.00147082
-0.000615219
-0.000510621
0.00131848
-0.000553343
-0.000337898
0.00114782
-0.000470166
-0.000181528
0.00095626
-0.000404304
-6.09195e-05
0.00075747
-0.000316503
2.20341e-05
0.000593861
-0.000247415
5.55857e-05
0.000455421
-0.00017439
6.67027e-05
0.000352584
-0.000134296
6.04087e-05
0.000278512
-0.000102224
4.35436e-05
0.000232307
-8.24815e-05
2.03091e-05
0.000181167
-5.60861e-05
0.000117305
-3.08136e-05
1.46231e-05
3.31733e-05
-1.71748e-05
4.69501e-05
-5.69232e-07
-4.94689e-05
7.89386e-05
1.8786e-05
-6.0386e-05
9.33069e-05
6.19524e-05
-6.62606e-05
9.48607e-05
0.000107619
-7.10226e-05
8.29882e-05
0.000160589
-8.45997e-05
6.31445e-05
0.000224573
-0.000109252
2.63848e-05
0.000298442
-0.000134324
-2.59575e-05
0.000398507
-0.000163537
-0.000104049
0.000504397
-0.000182481
-0.000217161
0.000628835
-0.000198861
-0.000350197
0.000748526
-0.000220416
-0.000492551
0.000872919
-0.00023773
-0.000627989
0.000982372
-0.000256001
-0.000756623
0.00110429
-0.000279926
-0.000871269
0.00122515
-0.000310144
-0.00097374
0.00135501
-0.000341417
-0.00106296
0.00147223
-0.000356245
-0.00115888
0.00163944
-0.000358219
-0.00127142
0.00177857
-0.00031985
-0.00140618
0.00186157
-0.000250832
-0.00146819
0.00192495
-0.000281761
-0.00150456
0.00197003
-0.000259354
-0.00148342
0.00192623
-0.000260095
-0.00141627
0.00191249
-0.000266784
-0.00131785
0.00185787
-0.000255257
-0.00119715
0.00178193
-0.000237065
-0.00106136
0.00166402
-0.000214272
-0.000914456
0.00151437
-0.000190463
-0.000756327
0.00134463
-0.00018428
-0.000579998
0.00115553
-0.000184031
-0.00041047
0.000972918
-0.000186186
-0.000262549
0.000791227
-0.000181679
-0.000139977
0.000645435
-0.000174146
-5.89775e-05
0.00052951
-0.000155089
-3.48693e-06
0.000432265
-0.000135171
2.60256e-05
0.000363518
-0.000114517
3.45869e-05
0.000317009
-9.32623e-05
2.06674e-05
0.000255782
-6.06968e-05
0.000165434
-2.74621e-05
1.36651e-05
5.24523e-05
-3.29429e-05
4.68144e-05
3.99402e-05
-7.36569e-05
8.01152e-05
7.82888e-05
-9.28024e-05
8.84942e-05
0.000148777
-9.5203e-05
7.6018e-05
0.000225042
-0.000104947
4.66402e-05
0.000311906
-0.000121939
6.66935e-06
0.000417896
-0.000153351
-3.82427e-05
0.000525642
-0.000182288
-8.76799e-05
0.000655859
-0.000207915
-0.000153506
0.000790943
-0.00022072
-0.000235289
0.000935722
-0.000225104
-0.000329346
0.00106561
-0.000223028
-0.000436589
0.00119736
-0.000217198
-0.000554498
0.0013177
-0.000217417
-0.00066611
0.00143295
-0.000217057
-0.000763088
0.00153725
-0.000215118
-0.000842234
0.00163753
-0.000203373
-0.000901081
0.00170056
-0.000169483
-0.000978416
0.00180446
-8.76919e-05
-0.00108461
0.00187802
6.74338e-06
-0.00123385
0.00189245
0.000118355
-0.00130184
0.00187237
0.000120572
-0.00135526
0.00188155
0.000141903
-0.00136311
0.00180515
0.000128931
-0.00134163
0.00177838
0.000112628
-0.00130081
0.00171321
0.000103837
-0.00124251
0.00163559
8.80408e-05
-0.00117861
0.00152621
7.39192e-05
-0.00108938
0.00139523
2.99145e-05
-0.000973695
0.00124533
-1.63904e-05
-0.000832026
0.00108182
-6.79664e-05
-0.000665978
0.000927931
-0.000121061
-0.000494567
0.000773015
-0.000153199
-0.000333314
0.000650209
-0.000166027
-0.00019772
0.000562085
-0.000168169
-9.35369e-05
0.000481545
-0.000153461
-2.45241e-05
0.000424644
-0.000130138
1.50739e-05
0.000382224
-0.000104812
1.90061e-05
0.000314698
-6.28481e-05
0.000206088
-2.16503e-05
6.63556e-06
0.000105168
-5.93508e-05
4.64075e-05
0.000116563
-0.000116393
8.01391e-05
0.000180984
-0.000136426
8.46316e-05
0.000279059
-0.000134774
6.40192e-05
0.000380547
-0.000134893
2.17441e-05
0.000505402
-0.00015122
-1.19745e-05
0.000639302
-0.000187687
-3.59346e-05
0.000771638
-0.000222034
-7.34389e-05
0.000929059
-0.000235694
-0.000129045
0.00107247
-0.000225918
-0.000191652
0.00120668
-0.000208347
-0.000261274
0.0013213
-0.000186065
-0.0003308
0.0014275
-0.00016061
-0.000396499
0.00151565
-0.000132254
-0.000457172
0.00159236
-9.87298e-05
-0.000502902
0.00164395
-6.09716e-05
-0.000558648
0.00168092
1.23549e-05
-0.000635723
0.0016905
8.7132e-05
-0.000717655
0.00171179
0.000174606
-0.000824958
0.00169791
0.000287412
-0.000983632
0.00169448
0.000356645
-0.00107335
0.00160294
0.000359155
-0.00116419
0.00160571
0.000366671
-0.00121993
0.00151263
0.000348263
-0.00125067
0.00148718
0.000321931
-0.00126625
0.00143062
0.000298171
-0.00126905
0.00137527
0.000263124
-0.00125891
0.00129534
0.000220722
-0.00122842
0.00119943
0.00016531
-0.0011475
0.00109481
6.96038e-05
-0.00103611
0.000979395
-8.95756e-06
-0.000876787
0.000863579
-9.49755e-05
-0.000695235
0.000749689
-0.000158227
-0.000507784
0.000655296
-0.00019254
-0.000328811
0.000585925
-0.000202812
-0.000186567
0.00052092
-0.000181618
-7.67402e-05
0.000468761
-0.000153943
-6.30408e-06
0.00043037
-0.000118581
1.46649e-05
0.000362816
-6.90859e-05
0.00024032
-1.9569e-05
5.17272e-06
0.00019214
-9.21434e-05
5.24449e-05
0.000234432
-0.00016514
9.13722e-05
0.000324575
-0.000182518
9.93297e-05
0.000446603
-0.000175502
7.53671e-05
0.000576171
-0.000171661
3.2199e-05
0.000734412
-0.00018584
2.0865e-05
0.000875027
-0.00022439
4.26916e-06
0.00102067
-0.000232437
-1.54418e-05
0.00117016
-0.000221394
-4.67079e-05
0.00129265
-0.000188914
-8.55111e-05
0.00139973
-0.000154248
-0.000136055
0.00148702
-0.000115182
-0.000189907
0.00155488
-7.35285e-05
-0.000239837
0.00159386
-2.82853e-05
-0.000286692
0.00161161
2.76051e-05
-0.000325408
0.00159454
8.81209e-05
-0.000369274
0.00157481
0.000149976
-0.000409756
0.0015111
0.000219885
-0.000493085
0.00147998
0.000315138
-0.00057732
0.0013837
0.000398443
-0.000744965
0.00138724
0.000474892
-0.000858082
0.00123786
0.000478197
-0.000973897
0.00125606
0.000465469
-0.00107858
0.00118252
0.000434791
-0.00116139
0.00117725
0.000392737
-0.00123209
0.00114683
0.000354499
-0.00129114
0.00112654
0.000307768
-0.00132978
0.00108504
0.000248943
-0.00134516
0.0010363
0.00017851
-0.00129774
0.000976151
7.12408e-05
-0.00121691
0.000895498
3.06396e-06
-0.00107961
0.000809511
-8.3229e-05
-0.00089125
0.000721765
-0.00016044
-0.000674602
0.00064163
-0.000202981
-0.000443606
0.000586941
-0.00023201
-0.000266907
0.000554725
-0.000210503
-0.00012113
0.00050725
-0.000184263
-2.71894e-05
0.000474471
-0.00013804
1.21401e-05
0.000404055
-8.05665e-05
0.000273352
-2.08919e-05
8.6036e-06
0.000308493
-0.000124955
6.74133e-05
0.000387466
-0.000211843
0.000110759
0.000503264
-0.000222035
0.000122616
0.000633077
-0.00019833
0.000103767
0.000775087
-0.000180066
9.58504e-05
0.00093876
-0.00019643
0.000106687
0.0010829
-0.000218711
0.000101737
0.00122864
-0.000203012
9.5582e-05
0.00134737
-0.000171052
6.42255e-05
0.00145303
-0.000129031
2.50397e-05
0.00152832
-8.94119e-05
-1.71462e-05
0.00157415
-4.49371e-05
-6.24854e-05
0.00159078
9.44001e-06
-0.000104431
0.00156965
6.61562e-05
-0.000142432
0.00152654
0.000123067
-0.000181944
0.00144947
0.000184588
-0.000221753
0.00137262
0.000242001
-0.000259613
0.00125759
0.00029137
-0.000318022
0.00119181
0.000346578
-0.000401445
0.00105704
0.000410082
-0.00054141
0.00106716
0.000460044
-0.000692119
0.000922386
0.000466182
-0.000827069
0.000950031
0.00044098
-0.000974495
0.000912905
0.000417041
-0.00109703
0.000925413
0.00037437
-0.00120619
0.000921129
0.00033486
-0.00130362
0.00092775
0.000296229
-0.00137987
0.000916279
0.000245006
-0.00142437
0.000901044
0.000179754
-0.00141641
0.000860994
0.000107194
-0.00135555
0.000805571
2.90727e-05
-0.00123717
0.000735867
-4.47434e-05
-0.0010502
0.000669402
-0.000134603
-0.000828463
0.000615854
-0.000195963
-0.000581378
0.0005684
-0.000228546
-0.000355956
0.000568433
-0.000239129
-0.000175602
0.00053221
-0.000205313
-5.34207e-05
0.000509979
-0.000157692
6.05917e-06
0.000437528
-9.29508e-05
0.000302532
-2.31198e-05
2.31094e-05
0.000438527
-0.000153143
0.000111674
0.000553402
-0.000254501
0.000185586
0.00069081
-0.000261457
0.00021325
0.000824929
-0.000219516
0.000193934
0.000982417
-0.000188015
0.00019353
0.00112903
-0.000189861
0.000201871
0.00126342
-0.00018886
0.000202361
0.00138869
-0.00016054
0.000187864
0.00148409
-0.000122221
0.000162126
0.00155101
-7.2236e-05
0.000127265
0.00158497
-2.17826e-05
8.60718e-05
0.00158572
2.96174e-05
3.79449e-05
0.00155113
8.77765e-05
-5.69007e-06
0.00147943
0.000133859
-4.5982e-05
0.00138473
0.000182104
-8.602e-05
0.00126319
0.000226312
-0.000124834
0.00114947
0.000261959
-0.000171876
0.00101657
0.000288065
-0.000222279
0.000931713
0.000310505
-0.000317345
0.000806499
0.000345611
-0.000424406
0.000802329
0.00037189
-0.000596652
0.000702345
0.000392286
-0.000740157
0.000721052
0.000372483
-0.000907108
0.000718498
0.000361359
-0.00105084
0.000739525
0.000329616
-0.00118189
0.00075629
0.00029589
-0.00130637
0.000774452
0.000277782
-0.00140898
0.000784483
0.0002344
-0.00148439
0.000775228
0.000201226
-0.00150982
0.000742882
0.000143545
-0.00147254
0.000698616
6.96695e-05
-0.0013678
0.000650483
-1.9353e-05
-0.00118945
0.000594305
-0.00010325
-0.000951735
0.000551387
-0.000173249
-0.000686141
0.000516094
-0.000213288
-0.000433384
0.000543195
-0.000227518
-0.00022398
0.000546617
-0.000223812
-7.2698e-05
0.000532056
-0.00017336
-1.0205e-07
0.00046972
-0.000104789
0.000329951
-2.75196e-05
4.29657e-05
0.000567631
-0.00017207
0.000153886
0.000727429
-0.000284947
0.000254455
0.000877018
-0.000286778
0.000292831
0.0010128
-0.000226246
0.000291446
0.00115997
-0.000176164
0.000289276
0.00128801
-0.000156809
0.000283569
0.00140823
-0.000139098
0.000285854
0.00149775
-0.000111347
0.000275284
0.00156285
-6.81861e-05
0.000245605
0.00159433
-1.36421e-05
0.000206816
0.00158779
3.59682e-05
0.000155215
0.00154351
9.38165e-05
0.000102689
0.00146674
0.000136916
5.20755e-05
0.00135193
0.000178114
6.71061e-06
0.00121978
0.000210318
-3.82542e-05
0.00107285
0.000235309
-7.9045e-05
0.000941626
0.000248638
-0.00012861
0.000811113
0.000255022
-0.000172744
0.000721443
0.000254405
-0.000270896
0.000629996
0.000274656
-0.000358416
0.000604511
0.000285337
-0.000529913
0.000556231
0.000317611
-0.00067996
0.000558494
0.000312604
-0.000844481
0.000568575
0.000314444
-0.000993203
0.000589989
0.000298258
-0.0011361
0.00061237
0.000286821
-0.00127457
0.000639348
0.000273567
-0.00140444
0.000646914
0.00026744
-0.00150038
0.000638262
0.000232907
-0.00155056
0.00061568
0.000177378
-0.00153769
0.000584816
0.00010094
-0.00145532
0.000548133
1.99746e-05
-0.00129615
0.000512695
-7.75634e-05
-0.00106262
0.000482563
-0.000164698
-0.000793961
0.000452141
-0.000204709
-0.000508169
0.000472962
-0.000215556
-0.000276991
0.000521144
-0.000205706
-0.000101119
0.00053571
-0.000179525
-9.6597e-06
0.000487475
-0.000109217
0.000351566
-3.12749e-05
6.00177e-05
0.000682227
-0.000174614
0.000197646
0.000890225
-0.000300424
0.000323198
0.0010503
-0.000298832
0.00037793
0.00118253
-0.000224463
0.000392635
0.00130681
-0.000161542
0.000379352
0.00141519
-0.000113901
0.000368177
0.0015098
-9.04004e-05
0.000351691
0.00157327
-5.90312e-05
0.000333641
0.00160414
-2.32472e-05
0.000305592
0.00159724
2.51406e-05
0.000258009
0.00155329
8.20869e-05
0.000198331
0.00146872
0.000134466
0.000138181
0.00135543
0.000171458
7.97129e-05
0.00121004
0.000200362
2.65928e-05
0.00105526
0.000217639
-2.15314e-05
0.000897567
0.000223409
-6.40572e-05
0.000763934
0.000220219
-0.000113681
0.000645849
0.00021489
-0.00015949
0.0005609
0.000206353
-0.000247852
0.000498547
0.000219811
-0.000331034
0.000459106
0.000228588
-0.000479044
0.000439463
0.000264778
-0.000621673
0.000428414
0.00027271
-0.00077268
0.00043446
0.000285123
-0.000914705
0.00045241
0.000279604
-0.00106206
0.000472502
0.000287219
-0.00121766
0.000494089
0.000300857
-0.00136072
0.000499746
0.000290226
-0.00147971
0.000499892
0.000257368
-0.00155908
0.000488944
0.000206104
-0.00158501
0.000463194
0.000147555
-0.00152886
0.000441936
5.00465e-05
-0.00138984
0.00041357
-3.99002e-05
-0.00115309
0.000394172
-0.000148351
-0.000863953
0.000377781
-0.000214782
-0.000563703
0.000396568
-0.000223856
-0.000310337
0.000464398
-0.00019662
-0.000115064
0.000522974
-0.000182535
-1.47532e-05
0.000497691
-0.000110528
0.000372108
-3.5296e-05
7.18821e-05
0.000778225
-0.000167881
0.000234643
0.0010327
-0.000305238
0.00038233
0.00120519
-0.000302575
0.000455495
0.00132645
-0.000217079
0.000479842
0.00142411
-0.000141652
0.000463683
0.00150807
-7.67219e-05
0.000441328
0.00157488
-4.27177e-05
0.000407781
0.00161034
-3.52626e-06
0.000365526
0.00161337
3.30273e-05
0.000323411
0.001576
6.33498e-05
0.000277374
0.00149861
0.000100711
0.000208893
0.00138113
0.000156066
0.000140979
0.00123454
0.000188803
7.62372e-05
0.00106842
0.000206367
2.04479e-05
0.000902889
0.000208162
-2.73372e-05
0.000744393
0.00020096
-6.5837e-05
0.000614576
0.000187859
-0.000109388
0.000509238
0.000180161
-0.000153614
0.000430595
0.000174532
-0.000229171
0.000383559
0.000190545
-0.000305391
0.000333539
0.000201787
-0.000428001
0.000324971
0.000237103
-0.000546902
0.000295694
0.000251622
-0.000676719
0.000295153
0.000269125
-0.000809173
0.000303385
0.000281479
-0.000956628
0.000319528
0.000300429
-0.00111491
0.000338195
0.000314179
-0.00126995
0.000354636
0.000300144
-0.0014066
0.00036326
0.000273288
-0.00151115
0.000364708
0.00022878
-0.00155069
0.000360429
0.000142307
-0.00153551
0.000339983
8.67767e-05
-0.00144196
0.00031261
7.4061e-06
-0.00125584
0.000292072
-8.40192e-05
-0.000971794
0.000285253
-0.000191517
-0.000642225
0.000307708
-0.000240706
-0.000350681
0.000381374
-0.000208522
-0.000142801
0.000474961
-0.000159866
-2.27082e-05
0.000494262
-0.000116662
0.0003888
-3.94005e-05
8.15343e-05
0.000844918
-0.000148226
0.000267264
0.00114446
-0.000297487
0.000439115
0.00132928
-0.000295946
0.000528507
0.00143763
-0.000200574
0.000554628
0.0015136
-0.000115609
0.000541832
0.00156926
-4.83907e-05
0.00050493
0.00160558
6.19467e-06
0.000456021
0.00161735
4.19062e-05
0.000390853
0.00159122
8.7325e-05
0.000323309
0.00152607
0.000117479
0.00026089
0.00142396
0.000137068
0.000193211
0.00128248
0.000166338
0.000120465
0.00111468
0.000192615
5.18737e-05
0.000936798
0.000200211
-3.79321e-06
0.000766497
0.00019206
-4.62783e-05
0.000613072
0.000173806
-7.73939e-05
0.000488219
0.000157472
-0.000108797
0.0003897
0.000150941
-0.000145173
0.000313239
0.000153732
-0.000202861
0.000267304
0.000173945
-0.000266358
0.000205933
0.000191105
-0.000362739
0.000199033
0.000222321
-0.000454766
0.00015226
0.000235463
-0.000561734
0.000148456
0.000253666
-0.000684283
0.000149223
0.000276711
-0.000828382
0.000163917
0.000299709
-0.000981756
0.000185383
0.000306186
-0.00113929
0.000209946
0.000302225
-0.00128841
0.000226572
0.000285814
-0.00141679
0.000238398
0.000254688
-0.00151291
0.000237895
0.000218653
-0.00154958
0.000213289
0.000163359
-0.00149353
0.000177687
7.88792e-05
-0.00133099
0.000145563
-1.60307e-05
-0.00106524
0.00014452
-0.00012502
-0.000720013
0.000179953
-0.000217472
-0.00038339
0.000282826
-0.000238077
-0.000151748
0.000411694
-0.000168377
-2.94543e-05
0.000473991
-0.000102023
0.000403397
-4.40493e-05
8.49497e-05
0.000887408
-0.000127439
0.000287689
0.00122546
-0.000283739
0.000481241
0.00142028
-0.000284546
0.000585476
0.00151789
-0.000184494
0.00061393
0.0015742
-8.90577e-05
0.000600236
0.00160587
-2.29177e-05
0.000551374
0.00161327
4.11699e-05
0.000481757
0.00159148
9.54813e-05
0.000400876
0.00154261
0.000129484
0.000313812
0.001456
0.000157128
0.000230115
0.00133425
0.000173414
0.000154988
0.00117729
0.000180314
7.56728e-05
0.00100054
0.000193449
8.03249e-06
0.000815048
0.000189391
-4.31476e-05
0.000644519
0.000173158
-7.41185e-05
0.0004952
0.000148841
-9.07195e-05
0.000372996
0.000131823
-0.000104958
0.00027561
0.000128328
-0.000127813
0.000197675
0.000138421
-0.00016392
0.000141726
0.000161688
-0.000215648
7.43647e-05
0.000183298
-0.000281272
5.50517e-05
0.000209607
-0.000350853
1.03642e-06
0.000220806
-0.000439627
-4.41028e-06
0.000241641
-0.000543753
-9.60286e-06
0.000262952
-0.000667958
9.63456e-06
0.000278488
-0.000809772
3.63025e-05
0.000290895
-0.000963268
6.81599e-05
0.000295285
-0.00112817
9.54315e-05
0.000296045
-0.00128807
0.000107388
0.000290906
-0.00142035
0.000102242
0.000267936
-0.0015011
7.48475e-05
0.00021919
-0.00150018
3.29777e-05
0.000143783
-0.00138996
-1.0117e-05
4.54557e-05
-0.00115566
-2.84996e-05
-6.12725e-05
-0.000831188
1.4113e-05
-0.000158634
-0.000452876
0.000131371
-0.000226858
-0.000176585
0.000329526
-0.000194123
-2.89093e-05
0.000435973
-0.000109661
0.00042075
-4.62625e-05
8.94028e-05
0.00089017
-9.21644e-05
0.000308053
0.00126225
-0.000255437
0.000520245
0.0014707
-0.00026261
0.000637148
0.00156289
-0.000161906
0.000665538
0.00160206
-5.62526e-05
0.000642885
0.00161108
1.74419e-05
0.000580883
0.00159091
8.43701e-05
0.000496067
0.00154263
0.000133667
0.000399687
0.0014699
0.000169098
0.000295975
0.00136482
0.000194897
0.000194542
0.00122822
0.000207457
0.000104877
0.00106332
0.000203638
2.18659e-05
0.00088248
0.000201074
-4.14779e-05
0.000696592
0.0001818
-8.41615e-05
0.000531009
0.000156194
-0.00010299
0.000384912
0.000129118
-0.000103903
0.000263354
0.000110555
-0.000100903
0.00016334
0.00010927
-0.00010611
7.92904e-05
0.000123593
-0.000117649
5.56074e-06
0.000147708
-0.000151974
-6.42312e-05
0.000172923
-0.000191158
-9.52293e-05
0.000189467
-0.000252798
-0.000139091
0.000201768
-0.000321203
-0.000154547
0.000218542
-0.000401699
-0.000161021
0.000231915
-0.000506985
-0.00013219
0.00024711
-0.000634047
-0.000103386
0.000266751
-0.00078073
-7.31841e-05
0.000288027
-0.000944481
-4.65005e-05
0.000305682
-0.00111761
-3.13466e-05
0.000311867
-0.00128286
-3.26229e-05
0.000300109
-0.00141194
-6.06646e-05
0.000264597
-0.00146791
-0.000111391
0.000200341
-0.00141363
-0.000175424
0.00011102
-0.00122241
-0.00021742
-2.30008e-06
-0.000908997
-0.000195716
-0.000103583
-0.000527175
-6.67303e-05
-0.000183722
-0.000183605
0.00019132
-0.000205361
-4.0711e-05
0.000401811
-0.000108732
0.000422459
-4.24237e-05
8.6564e-05
0.000871486
-6.78801e-05
0.000314616
0.00126485
-0.000230651
0.000540741
0.0014875
-0.000242924
0.000669029
0.00157894
-0.000144336
0.000702186
0.00160526
-3.63545e-05
0.000667345
0.00158537
6.05471e-05
0.000594289
0.00154438
0.000119578
0.000496553
0.00147305
0.000167319
0.000385693
0.00138215
0.000198608
0.000268119
0.00126359
0.000218803
0.000151079
0.00111795
0.000227313
4.79344e-05
0.00094923
0.00021723
-4.29803e-05
0.000770305
0.000203089
-0.000113932
0.00059363
0.000173914
-0.000151239
0.000428131
0.000140187
-0.00015653
0.000279638
0.000110565
-0.00013909
0.000152904
9.30107e-05
-0.000110552
4.33091e-05
9.14935e-05
-8.62771e-05
-5.34458e-05
0.000108463
-7.22457e-05
-0.000138909
0.000130441
-9.31207e-05
-0.000193831
0.000150476
-0.000117276
-0.000237101
0.000166028
-0.000162725
-0.00027264
0.000178997
-0.000215903
-0.000293235
0.000191865
-0.000281714
-0.000302994
0.000207783
-0.000350756
-0.000291605
0.000228457
-0.000454893
-0.000251336
0.000252088
-0.00058465
-0.000220141
0.000276714
-0.000743132
-0.000186798
0.00029878
-0.000919527
-0.000171309
0.000316358
-0.00110334
-0.000168403
0.000319588
-0.00126832
-0.000195423
0.000299742
-0.00137929
-0.000249064
0.000248641
-0.0013896
-0.00033247
0.000167358
-0.00126819
-0.000402763
6.3937e-05
-0.00099301
-0.000419112
-5.17892e-05
-0.000626124
-0.000292203
-0.000141417
-0.000243035
-1.50152e-05
-0.000176753
-3.40238e-05
0.00031699
-0.000124185
0.000428797
-4.03635e-05
0.000100895
0.000775465
-4.87336e-06
0.000339408
0.00120229
-0.000175957
0.000576189
0.00144735
-0.000196632
0.000715468
0.00154302
-0.000103353
0.00074159
0.00156098
1.81605e-05
0.000695277
0.00152732
0.000104365
0.000604732
0.00146709
0.000167838
0.00049003
0.001378
0.000209752
0.000364478
0.00127252
0.000235177
0.000234573
0.00114275
0.000250739
0.000110586
0.000992333
0.0002496
9.14781e-07
0.000825183
0.000233717
-9.18537e-05
0.000657051
0.000206023
-0.000153556
0.000486914
0.000168419
-0.000179632
0.000327692
0.000126516
-0.000172665
0.0001802
9.24716e-05
-0.000147366
5.56102e-05
7.19951e-05
-0.000101255
-7.22379e-05
6.94368e-05
-5.76811e-05
-0.000176522
7.95046e-05
-3.15036e-05
-0.000259776
9.46919e-05
-2.69192e-05
-0.000317464
0.00011905
-3.22472e-05
-0.000367067
0.000135293
-5.87687e-05
-0.000399675
0.000153555
-9.90467e-05
-0.000420172
0.000167213
-0.000157781
-0.000429577
0.000185316
-0.000231596
-0.000427531
0.000209743
-0.000308402
-0.000408802
0.000234273
-0.000412895
-0.00037874
0.000263092
-0.000557585
-0.00033049
0.000288381
-0.000723717
-0.00031801
0.000312835
-0.000911841
-0.000308566
0.000328288
-0.00109675
-0.000334044
0.000323535
-0.00124773
-0.000388631
0.000290542
-0.00131766
-0.000485933
0.000223399
-0.00125966
-0.00058713
0.00012636
-0.00103089
-0.000666903
1.90229e-05
-0.000674447
-0.00056271
-8.59357e-05
-0.000291097
-0.000255815
-0.000142552
-2.58465e-05
0.000187046
-0.000135305
0.000431139
-2.81836e-05
9.52552e-05
0.00066005
2.01603e-05
0.000328302
0.00112801
-0.000158767
0.000577794
0.00139029
-0.000192436
0.000732184
0.00148409
-9.54616e-05
0.000764967
0.00149014
3.80594e-05
0.000719411
0.00143798
0.000134897
0.000621492
0.00136275
0.000202259
0.000493019
0.00126654
0.000239925
0.000353735
0.00115587
0.000255935
0.000209631
0.00102448
0.000262375
7.08299e-05
0.000876839
0.000254296
-5.35101e-05
0.000720784
0.000228739
-0.000146666
0.000555213
0.000194994
-0.000207224
0.000392879
0.000154593
-0.000227551
0.000237837
0.000110182
-0.000210444
9.00078e-05
7.30862e-05
-0.000164354
-3.91071e-05
4.8629e-05
-0.000102037
-0.000170504
3.59494e-05
-3.99148e-05
-0.000274919
3.62751e-05
1.25634e-05
-0.000362983
5.07282e-05
4.42791e-05
-0.000426368
7.71881e-05
4.73181e-05
-0.000475167
0.00010506
3.58574e-05
-0.000514317
0.000126101
1.29225e-05
-0.000540948
0.00014371
-2.94779e-05
-0.000550918
0.000163742
-9.49531e-05
-0.000548337
0.000186282
-0.000178831
-0.000537708
0.000212785
-0.000273276
-0.000525084
0.000240789
-0.000385097
-0.000492423
0.000273753
-0.00053071
-0.000479873
0.000307478
-0.000708612
-0.000463527
0.000332864
-0.000902221
-0.0004831
0.000342666
-0.00108703
-0.000532694
0.000328868
-0.00120837
-0.000648697
0.000284112
-0.00121149
-0.000787711
0.000203698
-0.00106445
-0.000908527
9.45809e-05
-0.00073455
-0.000878182
-1.44278e-05
-0.000351307
-0.000545605
-9.3454e-05
-3.91337e-05
-2.95118e-05
-9.5617e-05
0.000383461
8.5494e-06
0.000127539
0.000444741
8.7771e-05
0.000335865
0.000989875
-7.01879e-05
0.000585546
0.00126965
-0.000129041
0.000744189
0.00136961
-4.41663e-05
0.000778462
0.00137797
7.78921e-05
0.000720347
0.00132294
0.000173152
0.000604907
0.00123772
0.000240472
0.000461696
0.00113066
0.000279091
0.000311976
0.00101441
0.000291182
0.000159345
0.000888666
0.000288449
1.50232e-05
0.000754876
0.000266285
-0.000100124
0.000612768
0.000223164
-0.000185209
0.000463627
0.000176672
-0.000242747
0.000311568
0.00013885
-0.000257584
0.000157197
9.5477e-05
-0.00022902
4.40948e-06
5.70349e-05
-0.000171013
-0.000114888
1.77747e-05
-0.000100592
-0.000234453
-6.47087e-06
-1.92859e-05
-0.000342629
-1.35965e-05
4.93351e-05
-0.000438576
6.97052e-06
9.7958e-05
-0.000512207
3.72152e-05
0.000130257
-0.000570805
6.33374e-05
0.00013561
-0.000609764
9.00938e-05
0.000118163
-0.000636321
0.000112819
7.76746e-05
-0.000648309
0.00013788
2.59127e-05
-0.000658153
0.000161579
-4.5908e-05
-0.000653912
0.000188024
-0.000139121
-0.000648593
0.000216725
-0.000242248
-0.000638235
0.000248938
-0.000368004
-0.000637374
0.00028326
-0.000528252
-0.000627957
0.00032468
-0.000708275
-0.000663031
0.000359956
-0.0008982
-0.000716383
0.000373614
-0.00105713
-0.000837234
0.000347468
-0.00113131
-0.000989667
0.000276132
-0.00105461
-0.00115692
0.000171698
-0.000803545
-0.00118514
5.58951e-05
-0.000378153
-0.000941516
-2.9481e-05
-6.40381e-05
-0.000291445
-5.21831e-05
0.000272873
4.65497e-05
0.00011456
0.000256874
7.33064e-05
0.000298702
0.000877499
-7.17671e-05
0.000547683
0.00115539
-0.000134715
0.0007141
0.00125445
-5.12639e-05
0.000771751
0.00124836
7.19533e-05
0.000733013
0.00118413
0.000177547
0.000633229
0.0010913
0.000246204
0.000490063
0.000993601
0.00028023
0.000325498
0.000898218
0.000280756
0.000156744
0.000794323
0.000263097
-1.58158e-06
0.000680171
0.000233031
-0.000128312
0.000554307
0.000185193
-0.00022001
0.000419947
0.000135378
-0.000283109
0.000276201
9.84649e-05
-0.000296056
0.000113207
5.69379e-05
-0.000275664
-2.50971e-05
9.11627e-06
-0.000209327
-0.000151209
-3.00155e-05
-0.00012167
-0.000261921
-6.01889e-05
-2.69496e-05
-0.000376884
-6.04671e-05
6.06491e-05
-0.000482106
-4.407e-05
0.000124764
-0.00056782
-8.50166e-06
0.00017175
-0.000637031
1.924e-05
0.000199839
-0.000684223
4.6371e-05
0.000210517
-0.000719702
7.27027e-05
0.000197635
-0.000734601
9.91755e-05
0.00015482
-0.000743315
0.000127979
8.65423e-05
-0.0007426
0.000156965
8.25248e-06
-0.00075277
0.000182468
-9.20802e-05
-0.000748794
0.000210891
-0.000210664
-0.000766424
0.000247638
-0.0003485
-0.000781022
0.000290901
-0.000522485
-0.000832181
0.000343135
-0.000725087
-0.000901402
0.000387621
-0.000919858
-0.00104619
0.00040373
-0.00105762
-0.00122214
0.000370234
-0.00105281
-0.00144148
0.000279738
-0.000883987
-0.00152661
0.000172648
-0.000490555
-0.00138538
5.04357e-05
-8.84257e-05
-0.00071424
2.0666e-05
0.000108263
7.61866e-05
7.42489e-05
0.000120911
6.17147e-05
0.00027858
0.000743822
-7.06561e-05
0.000524924
0.00103836
-0.000129321
0.000708318
0.00114917
-7.81145e-05
0.000780316
0.00114657