/*--------------------------------*- C++ -*----------------------------------*\
| =========                 |                                                 |
| \\      /  F ield         | OpenFOAM: The Open Source CFD Toolbox           |
|  \\    /   O peration     | Version:  v1806                                 |
|   \\  /    A nd           | Web:      www.OpenFOAM.com                      |
|    \\/     M anipulation  |                                                 |
\*---------------------------------------------------------------------------*/
FoamFile
{
    version     2.0;
    format      ascii;
    class       volScalarField;
    location    "0.1165";
    object      p;
}
// * * * * * * * * * * * * * * * * * * * * * * * * * * * * * * * * * * * * * //

dimensions      [0 2 -2 0 0 0 0];


internalField   nonuniform List<scalar> 
64000
(
-2.91918e-05
-0.120807
-0.264337
-0.341245
-0.366841
-0.372097
-0.367925
-0.362574
-0.356811
-0.373281
-0.378764
-0.44188
-0.454346
-0.602466
-0.708288
-0.901693
-1.02659
-1.33806
-1.46078
-1.94624
-2.05157
-2.69908
-2.85733
-3.18332
-3.33347
-3.58608
-3.74108
-3.95461
-4.14542
-4.28554
-4.5772
-4.89315
-5.18605
-5.47064
-5.72842
-5.92476
-6.07899
-6.18892
-6.27074
-6.30371
-0.137759
-0.255734
-0.32402
-0.360922
-0.367982
-0.365843
-0.355339
-0.3423
-0.327543
-0.329917
-0.324549
-0.375169
-0.412736
-0.510957
-0.598895
-0.770252
-0.902432
-1.23794
-1.35577
-1.80932
-1.94483
-2.55965
-2.78464
-3.08922
-3.23514
-3.49142
-3.66438
-3.91058
-4.11167
-4.36356
-4.51299
-4.83866
-5.13102
-5.40299
-5.66811
-5.86327
-6.03013
-6.15
-6.24713
-6.29187
-0.293794
-0.337963
-0.360307
-0.369029
-0.370276
-0.354224
-0.336962
-0.317738
-0.280729
-0.281021
-0.269227
-0.313604
-0.35154
-0.463287
-0.589609
-0.779135
-0.910494
-1.21411
-1.34974
-1.85501
-2.05292
-2.71467
-3.01725
-3.36856
-3.55016
-3.83544
-4.02668
-4.28326
-4.47073
-4.68704
-4.86226
-5.09026
-5.20957
-5.48847
-5.71166
-5.8833
-6.02435
-6.13659
-6.22664
-6.27747
-0.413272
-0.416964
-0.417918
-0.394718
-0.367886
-0.337504
-0.303737
-0.2568
-0.236203
-0.208754
-0.220748
-0.255981
-0.333206
-0.434238
-0.542233
-0.727741
-0.902267
-1.23056
-1.42739
-1.96111
-2.18879
-2.87678
-3.24179
-3.61292
-3.81988
-4.10501
-4.29356
-4.52877
-4.6958
-4.87549
-5.02431
-5.17404
-5.32324
-5.50195
-5.73288
-5.91943
-6.04276
-6.13324
-6.21028
-6.26178
-0.468025
-0.458011
-0.443413
-0.406372
-0.372101
-0.327607
-0.282241
-0.244381
-0.204574
-0.187046
-0.196239
-0.254261
-0.320117
-0.425227
-0.569808
-0.779608
-0.976019
-1.33201
-1.52368
-2.09277
-2.34664
-3.04079
-3.41639
-3.80048
-4.01432
-4.29249
-4.47034
-4.68725
-4.84051
-5.00137
-5.12173
-5.26921
-5.37393
-5.5261
-5.81663
-5.95756
-6.05311
-6.1351
-6.19362
-6.24636
-0.533209
-0.508087
-0.477099
-0.434481
-0.37562
-0.321714
-0.286323
-0.22354
-0.218619
-0.207571
-0.225832
-0.249733
-0.314857
-0.429186
-0.556485
-0.769037
-0.968581
-1.29101
-1.56734
-2.08797
-2.3953
-3.06509
-3.45534
-3.79813
-4.01923
-4.28963
-4.46862
-4.68491
-4.83165
-5.00941
-5.1267
-5.26526
-5.39175
-5.55064
-5.90815
-5.96972
-6.04142
-6.11145
-6.17411
-6.21625
-0.55094
-0.533063
-0.50216
-0.484342
-0.435101
-0.373785
-0.366841
-0.333298
-0.304271
-0.251534
-0.228126
-0.24658
-0.284209
-0.386703
-0.508698
-0.710753
-0.9025
-1.28081
-1.47344
-2.0394
-2.35655
-2.95995
-3.34184
-3.66785
-3.89828
-4.17503
-4.37364
-4.61051
-4.78609
-4.97155
-5.10453
-5.23464
-5.35173
-5.48876
-5.83824
-5.93814
-5.98144
-6.05935
-6.11735
-6.16619
-0.584537
-0.56539
-0.53174
-0.521092
-0.457521
-0.465844
-0.397195
-0.371799
-0.314512
-0.258286
-0.22335
-0.198919
-0.204687
-0.257955
-0.345356
-0.512255
-0.695941
-1.00066
-1.29554
-1.66588
-2.13105
-2.60275
-3.0736
-3.40608
-3.6814
-3.97071
-4.20996
-4.47283
-4.68687
-4.90614
-5.05781
-5.19513
-5.32821
-5.44578
-5.75761
-5.90823
-5.94257
-5.99921
-6.06579
-6.11334
-0.612717
-0.574937
-0.561497
-0.555329
-0.517425
-0.549414
-0.446477
-0.403493
-0.36088
-0.259469
-0.17384
-0.106578
-0.0483165
-0.0512216
-0.0681224
-0.1744
-0.308048
-0.554149
-0.876661
-1.19808
-1.75715
-2.11338
-2.69304
-3.07031
-3.39049
-3.69978
-3.9775
-4.27215
-4.53819
-4.79118
-4.96731
-5.12734
-5.26473
-5.36208
-5.57269
-5.84472
-5.84209
-5.901
-5.96068
-6.01223
-0.6532
-0.59659
-0.602898
-0.606079
-0.613702
-0.605903
-0.527001
-0.402681
-0.3017
-0.166094
-0.135682
0.0602246
0.16133
0.247579
0.294519
0.271523
0.195438
0.0376199
-0.251909
-0.491317
-1.07283
-1.41898
-2.25201
-2.65558
-3.04522
-3.37489
-3.69759
-4.03909
-4.35312
-4.64617
-4.89229
-5.04381
-5.18083
-5.29967
-5.47767
-5.74456
-5.78749
-5.80572
-5.85454
-5.90811
-0.679427
-0.622175
-0.636753
-0.666487
-0.690593
-0.666915
-0.567303
-0.414997
-0.258181
-0.0887008
0.103694
0.295405
0.387011
0.581244
0.703844
0.736258
0.707163
0.582067
0.308549
0.120794
-0.505192
-0.822484
-1.76972
-2.18894
-2.62219
-2.97521
-3.33996
-3.73168
-4.10407
-4.43505
-4.70136
-4.91513
-5.02469
-5.11584
-5.24676
-5.53114
-5.5935
-5.6192
-5.67194
-5.72721
-0.705456
-0.649228
-0.676281
-0.732987
-0.744476
-0.695671
-0.595892
-0.391985
-0.18314
0.0536946
0.28873
0.561923
0.796665
0.953648
1.14969
1.2527
1.25438
1.16122
0.894079
0.730071
0.0519453
-0.267611
-1.21525
-1.6449
-2.12034
-2.49248
-2.92489
-3.35923
-3.7824
-4.17501
-4.52207
-4.76546
-5.04004
-5.15082
-5.25756
-5.30366
-5.4456
-5.44293
-5.45398
-5.52624
-0.736636
-0.681935
-0.731775
-0.776515
-0.787708
-0.716834
-0.546313
-0.323433
-0.0703004
0.239694
0.545153
0.878606
1.17988
1.46599
1.65023
1.81481
1.87379
1.79018
1.5475
1.36395
0.686473
0.316527
-0.535407
-1.0022
-1.52064
-1.928
-2.38448
-2.88335
-3.37649
-3.84267
-4.29653
-4.5782
-4.66321
-4.8104
-4.9022
-5.15954
-5.10989
-5.17409
-5.19254
-5.25951
-0.748744
-0.705636
-0.741094
-0.775393
-0.77084
-0.704065
-0.480194
-0.202992
0.109512
0.473318
0.815991
1.24164
1.6229
1.97598
2.28234
2.42363
2.55088
2.4933
2.26762
2.05889
1.3981
1.00191
0.284857
-0.211205
-0.778085
-1.25185
-1.82478
-2.35346
-2.89986
-3.55736
-3.86084
-4.1395
-4.3642
-4.51826
-4.63924
-4.73756
-4.99049
-4.80028
-4.80203
-4.89004
-0.788589
-0.743931
-0.772217
-0.776877
-0.750777
-0.654939
-0.395686
-0.0911233
0.269225
0.713214
1.16451
1.65446
2.09794
2.5532
2.92853
3.18746
3.29821
3.27714
3.09193
2.84174
2.24958
1.88188
1.27581
0.739574
0.105097
-0.440882
-1.09683
-1.71209
-2.53439
-2.90635
-3.31512
-3.68085
-3.94447
-4.1326
-4.26349
-4.36892
-4.46364
-4.65486
-4.51905
-4.59177
-0.77649
-0.724954
-0.729821
-0.715052
-0.660832
-0.551174
-0.291007
0.0488309
0.479027
0.983614
1.52859
2.11929
2.68691
3.20898
3.67598
4.01848
4.1968
4.20789
4.06269
3.70575
3.34887
2.91343
2.39467
1.80211
1.12081
0.421474
-0.379298
-1.22713
-1.66095
-2.19938
-2.7114
-3.13777
-3.47378
-3.70911
-3.84657
-3.93143
-3.9528
-4.00859
-3.86721
-3.97589
-0.741669
-0.697792
-0.687359
-0.645204
-0.574779
-0.440184
-0.157726
0.220052
0.702073
1.28675
1.92821
2.63707
3.33195
3.97795
4.5183
4.90827
5.17398
5.24039
5.17411
4.95282
4.6235
4.19154
3.6654
3.07329
2.32548
1.46104
0.639962
0.0161921
-0.662213
-1.3192
-1.91994
-2.44368
-2.86375
-3.16073
-3.35969
-3.45527
-3.50098
-3.54313
-3.83795
-3.66899
-0.661846
-0.584596
-0.546002
-0.474933
-0.397597
-0.255792
0.0179689
0.432268
1.00003
1.69929
2.49728
3.33203
4.17476
4.90446
5.55069
6.05097
6.51374
6.83953
6.86417
6.67506
6.19149
5.554
5.10055
4.47508
3.62125
2.80811
2.05342
1.24875
0.412042
-0.340529
-1.05225
-1.65198
-2.13417
-2.48164
-2.71033
-2.80884
-2.79297
-2.80235
-2.82788
-2.89407
-0.285748
-0.227782
-0.155303
-0.0851258
0.0250455
0.168478
0.444485
0.849844
1.45395
2.3038
3.37103
4.54312
5.67802
6.62816
7.3967
7.9698
8.41811
8.68565
8.67302
8.47503
8.17376
7.6945
6.94669
6.31679
5.26493
4.32546
3.45209
2.53762
1.64198
0.864742
0.0362551
-0.677334
-1.28048
-1.71819
-2.03818
-2.29954
-2.32018
-2.15775
-2.21734
-2.37529
-0.208238
-0.0979869
0.00694057
0.129327
0.251859
0.446419
0.612066
0.996782
1.7719
2.84037
4.11475
5.46977
6.77081
7.8084
8.70663
9.41925
9.9821
10.3451
10.5198
10.4552
10.0616
9.48634
8.74137
7.82066
7.06536
6.24147
5.38462
4.45961
3.36123
2.18152
1.19565
0.414371
-0.223558
-0.664372
-0.954435
-1.01546
-1.04507
-1.25072
-1.16569
-1.24979
0.0683806
0.176732
0.301257
0.456404
0.628957
0.858318
1.14296
1.49181
2.32253
3.4539
4.84233
6.35196
7.76928
8.96125
10.0225
10.8882
11.5384
11.9505
12.2381
12.2559
11.8378
11.1449
10.3088
9.24188
8.57171
7.82194
7.02671
6.19317
5.08893
3.87567
2.76576
1.83328
0.967824
0.369544
-0.064099
-0.251202
-0.285139
-0.244631
-0.238444
-0.152415
0.181194
0.308052
0.466692
0.673041
0.908429
1.19294
1.55357
1.94155
2.79206
4.0036
5.52311
7.19184
8.68921
10.0268
11.23
12.2425
12.9656
13.4391
13.7396
13.7712
13.43
12.8633
11.7028
10.5985
9.72727
8.98615
8.18631
7.4237
6.53439
5.57493
4.64325
3.83575
3.03898
2.33779
1.66694
1.23925
0.939918
0.733952
0.584171
0.47573
0.29904
0.441802
0.599698
0.833934
1.10244
1.42146
1.82249
2.27609
3.13983
4.44678
6.10006
7.82035
9.38502
10.8594
12.2071
13.3376
14.2228
14.7659
15.0368
14.9873
14.5899
13.954
12.9001
11.7582
10.7426
10.0076
9.15941
8.33463
7.43958
6.51398
5.52295
4.69733
3.96891
3.48579
3.21673
3.12015
3.03745
2.9911
2.94734
2.92084
0.447881
0.604477
0.783363
1.05072
1.34207
1.72021
2.14484
2.67227
3.52617
4.84188
6.50132
8.20518
9.79608
11.3054
12.6532
13.8582
14.8709
15.6013
15.8779
15.8676
15.4506
14.8269
13.883
12.7857
11.8089
10.8378
10.08
9.22846
8.3153
7.43832
6.49443
5.67115
4.91797
4.42024
4.02061
3.81132
3.64733
3.58391
3.4876
3.24426
0.535549
0.648239
0.87149
1.14611
1.45164
1.87059
2.29084
2.83699
3.63878
4.94024
6.56318
8.25197
9.83228
11.2971
12.653
13.8932
14.9462
15.7481
16.2043
16.2826
15.9706
15.4838
14.6532
13.7276
12.7495
11.6737
10.7027
9.91647
9.00134
8.13591
7.20062
6.38036
5.58549
5.05559
4.61897
4.39683
4.20587
4.16602
4.16873
3.99541
0.631257
0.73112
0.959079
1.25568
1.55019
1.9766
2.39828
2.93893
3.81638
5.0345
6.48006
7.99989
9.47109
10.894
12.277
13.5749
14.7143
15.5658
16.2106
16.2437
16.07
15.8593
15.1427
14.3867
13.4396
12.3864
11.2111
10.3455
9.49484
8.70023
7.84658
7.1385
6.41315
5.91813
5.44075
5.17485
4.90049
4.78975
4.65888
4.40048
0.63275
0.733244
0.926251
1.24997
1.52672
1.92016
2.33346
2.93392
3.72427
4.81743
6.09186
7.44786
8.80225
10.1622
11.5155
12.8232
13.853
14.7724
15.2989
15.3493
15.7786
15.7764
15.3191
14.6282
13.7538
12.8235
11.776
10.61
9.80614
9.04185
8.21995
7.47652
6.67563
6.19291
5.74077
5.55016
5.33482
5.26907
5.23342
5.18706
0.651667
0.759717
0.881382
1.23562
1.47949
1.81852
2.09544
2.76682
3.48997
4.43536
5.51872
6.69869
7.88848
9.0962
10.3076
11.5387
12.5155
13.316
13.6723
14.2249
15.0961
15.284
15.2941
14.5996
13.8086
12.9345
12.0059
10.8488
9.92496
9.14573
8.10045
7.27712
6.48888
6.01605
5.48266
5.20215
4.88416
4.8205
4.74511
4.70572
0.557551
0.643034
0.789087
1.0438
1.30795
1.57381
1.91033
2.41083
3.03123
3.8328
4.74143
5.73017
6.73439
7.7479
8.74058
9.82048
10.6805
11.3978
12.1314
12.9893
14.1623
14.3447
14.83
14.3642
13.7227
12.9443
12.131
11.0944
10.3545
9.4886
8.55352
7.91501
7.21665
6.80863
6.27583
6.01373
5.61808
5.52624
5.35365
5.33419
0.505002
0.567095
0.718183
0.889111
1.12448
1.31823
1.63251
2.04005
2.56927
3.21977
3.94216
4.75173
5.57502
6.40845
7.20273
8.13195
8.9188
9.78273
10.8508
11.7069
12.9387
13.2811
13.8646
13.7327
13.3361
12.8016
12.1835
11.3152
10.599
9.6826
8.9477
8.42917
7.78535
7.4217
6.89947
6.68282
6.27949
6.27806
6.1449
6.24988
0.310732
0.363044
0.463894
0.621383
0.772552
0.90815
1.1934
1.5236
1.94662
2.49614
3.06335
3.72382
4.39558
5.11429
5.83978
6.58873
7.43154
8.44051
9.59082
10.2132
11.5075
11.99
12.7918
12.8412
12.696
12.4469
11.9874
11.3584
10.4147
9.86386
9.14651
8.73958
8.12846
7.90629
7.34674
7.25345
6.87368
6.99942
6.92672
7.11072
0.217968
0.246588
0.28612
0.444857
0.528656
0.698477
0.848662
1.10061
1.41395
1.85164
2.31339
2.81975
3.38533
4.00551
4.65165
5.21135
6.20052
7.29519
8.28114
8.8155
10.1251
10.7143
11.7082
11.893
12.0102
11.8343
11.8647
10.8593
10.4772
9.80746
9.27295
8.9636
8.39653
8.24463
7.79134
7.78399
7.38685
7.68601
7.65023
8.04608
-0.0619441
-0.0517617
-0.00230849
0.0930096
0.0976995
0.266757
0.386558
0.553203
0.805915
1.14838
1.50507
1.98767
2.46228
3.00567
3.54432
4.16337
5.07367
6.12741
6.97858
7.50216
8.76932
9.37858
10.5917
10.8676
11.1933
11.0686
11.5258
10.4887
10.2093
9.68254
9.1601
9.0216
8.47004
8.44836
7.95898
8.19829
7.79389
8.24264
8.29374
8.96406
-0.141181
-0.118968
-0.114111
-0.050738
0.0143402
0.0467705
0.11898
0.227492
0.351656
0.639149
0.924841
1.25768
1.67866
2.09056
2.57844
3.39583
4.18398
5.06906
5.83481
6.37669
7.58565
8.19421
9.58715
9.96513
10.444
10.4801
11.1079
10.2145
9.88475
9.5805
9.10946
9.0081
8.56977
8.63056
8.17136
8.53421
8.18271
8.92741
8.92541
10.0565
-0.460272
-0.476576
-0.441685
-0.437165
-0.357489
-0.322783
-0.281255
-0.218361
-0.135096
0.0650184
0.207035
0.419176
0.841687
1.50355
2.10784
2.66059
3.30561
4.08817
4.79591
5.36043
6.50187
7.13092
8.6822
9.12553
9.73716
9.97499
10.6592
9.93271
9.49636
9.4117
8.93099
8.94615
8.44139
8.71047
8.13671
8.66944
8.21832
9.3383
9.34997
11.0951
-0.519045
-0.467731
-0.489722
-0.448583
-0.430221
-0.365362
-0.410251
-0.304826
-0.390658
-0.315008
-0.107632
0.294423
0.543272
0.934795
1.40983
1.93935
2.45608
3.06006
3.89587
4.5574
5.66035
6.33364
7.68506
8.44626
9.11809
9.89875
10.2679
9.69491
9.1982
9.12605
8.72623
8.95829
8.38175
8.78116
8.29187
8.93115
8.41017
10.0079
9.87959
12.7665
-0.785943
-0.870613
-0.838165
-0.85599
-0.768528
-0.708556
-0.676829
-0.635539
-0.595968
-0.441561
-0.388363
-0.202919
0.0124033
0.350333
0.763925
1.27427
1.78457
2.34087
3.18873
3.93885
5.036
5.74455
6.92205
7.90938
8.73142
9.56322
9.897
9.48666
9.00103
8.91197
8.50669
8.74773
8.22058
8.77599
8.14057
9.0575
8.28538
10.2064
10.3534
14.5397
-1.43287
-0.942808
-0.985988
-0.702707
-0.751583
-0.561198
-0.645482
-0.441179
-0.605992
-0.498156
-0.489546
-0.349761
-0.190274
0.103019
0.431022
0.914235
1.38518
2.0402
2.81261
3.66432
4.74306
5.45065
6.50749
7.60456
8.48148
9.36486
9.55522
9.29938
8.82097
8.73884
8.35537
8.63971
8.18407
8.88975
8.29464
9.62844
8.95833
11.6487
11.7179
19.1998
-1.35566
-1.61439
-1.4083
-1.35495
-0.932512
-0.910552
-0.760476
-0.634961
-0.563854
-0.53909
-0.601721
-0.50122
-0.341048
-0.0655849
0.232367
0.646348
1.12148
1.76409
2.56785
3.46347
4.52017
5.24161
6.22875
7.39939
8.28897
9.2552
9.39734
9.24346
8.76147
8.66354
8.27519
8.54927
8.01074
8.7781
8.1487
9.58783
8.87009
12.4787
13.9292
23.8948
-4.00572
-1.22723
-1.54129
-1.05105
-0.923132
-0.690983
-0.708765
-0.549602
-0.594628
-0.566267
-0.566889
-0.496227
-0.368748
-0.118618
0.143857
0.53691
0.94164
1.61434
2.45529
3.46271
4.56739
5.36347
6.35967
7.53469
8.30456
9.16927
9.1392
9.00793
8.53341
8.47222
8.15772
8.59394
8.15436
8.96163
8.52552
10.4355
10.6644
16.6011
21.6438
36.8438
-0.134621
-0.260874
-0.330785
-0.374896
-0.387081
-0.392177
-0.381517
-0.379258
-0.364948
-0.388987
-0.371326
-0.453391
-0.500791
-0.629215
-0.728142
-0.939498
-1.05022
-1.37962
-1.49996
-2.02536
-2.1503
-2.74716
-2.98901
-3.30037
-3.45342
-3.706
-3.86365
-4.10146
-4.29069
-4.53287
-4.66717
-4.9878
-5.28063
-5.53805
-5.78625
-5.97114
-6.14765
-6.26413
-6.33408
-6.35327
-0.275432
-0.334799
-0.372875
-0.394168
-0.391049
-0.385184
-0.3651
-0.356423
-0.320047
-0.333462
-0.320406
-0.38936
-0.424883
-0.522328
-0.613761
-0.804933
-0.937098
-1.26105
-1.38652
-1.89187
-2.12189
-2.6786
-2.95661
-3.27044
-3.43206
-3.70274
-3.87499
-4.1236
-4.32686
-4.56453
-4.77594
-5.0067
-5.2496
-5.48436
-5.74257
-5.92687
-6.09089
-6.20213
-6.28999
-6.32614
-0.367223
-0.391919
-0.398961
-0.399911
-0.387003
-0.374301
-0.341857
-0.319181
-0.299499
-0.303403
-0.283509
-0.327106
-0.364929
-0.471136
-0.58776
-0.803551
-0.942426
-1.25696
-1.42002
-1.97145
-2.26841
-2.8765
-3.24312
-3.60531
-3.78891
-4.07703
-4.26253
-4.5079
-4.69187
-4.89077
-5.04392
-5.21328
-5.39256
-5.60336
-5.79078
-5.9451
-6.08698
-6.1873
-6.2722
-6.31016
-0.453747
-0.456057
-0.448484
-0.422581
-0.389357
-0.35357
-0.330286
-0.288924
-0.244912
-0.223187
-0.218896
-0.255137
-0.322935
-0.449697
-0.56836
-0.779203
-0.95027
-1.29491
-1.51082
-2.08616
-2.45924
-3.09851
-3.50597
-3.87231
-4.06488
-4.34217
-4.52055
-4.74117
-4.89721
-5.05377
-5.17737
-5.29397
-5.41473
-5.57589
-5.81487
-5.97848
-6.13921
-6.18636
-6.26078
-6.29949
-0.500123
-0.497615
-0.462627
-0.434231
-0.393612
-0.34807
-0.3147
-0.261332
-0.216747
-0.199388
-0.200573
-0.262655
-0.335709
-0.453416
-0.595647
-0.823203
-1.02232
-1.38549
-1.63965
-2.17632
-2.56419
-3.20474
-3.62709
-3.97844
-4.16415
-4.42352
-4.62201
-4.8615
-4.99575
-5.13455
-5.22962
-5.34612
-5.45323
-5.61349
-5.87428
-6.01356
-6.12173
-6.19301
-6.25264
-6.28306
-0.560161
-0.530272
-0.506628
-0.466843
-0.382769
-0.356583
-0.311698
-0.258992
-0.226123
-0.219358
-0.230854
-0.262052
-0.327988
-0.449075
-0.587407
-0.808137
-1.0176
-1.36839
-1.6335
-2.15837
-2.58482
-3.19527
-3.61753
-3.95947
-4.16437
-4.41284
-4.59095
-4.78012
-4.93219
-5.09326
-5.20692
-5.35675
-5.44325
-5.63778
-5.94094
-6.03869
-6.1196
-6.18094
-6.23367
-6.2711
-0.579297
-0.562409
-0.540929
-0.507618
-0.42482
-0.40283
-0.393893
-0.350956
-0.311784
-0.263187
-0.236887
-0.258316
-0.299124
-0.39404
-0.504429
-0.710381
-0.934479
-1.30193
-1.5651
-2.06143
-2.48239
-3.04365
-3.44221
-3.78447
-3.99929
-4.27209
-4.47427
-4.70211
-4.8506
-5.02019
-5.14037
-5.25887
-5.3811
-5.54622
-5.91012
-6.01014
-6.06537
-6.13224
-6.18334
-6.22325
-0.618234
-0.598585
-0.579176
-0.562615
-0.476092
-0.505508
-0.454033
-0.39218
-0.337274
-0.281219
-0.234704
-0.209831
-0.21535
-0.268638
-0.342061
-0.516124
-0.703956
-1.01716
-1.30039
-1.70834
-2.17615
-2.68308
-3.11979
-3.49369
-3.7676
-4.06753
-4.32615
-4.56074
-4.76306
-4.9346
-5.08545
-5.22087
-5.33862
-5.49187
-5.81709
-5.99928
-6.04109
-6.09794
-6.14299
-6.18369
-0.655054
-0.633272
-0.623339
-0.617774
-0.530799
-0.605034
-0.498355
-0.457484
-0.369472
-0.28206
-0.183535
-0.109189
-0.0506834
-0.0465196
-0.0585109
-0.162434
-0.29731
-0.551503
-0.861609
-1.2315
-1.72508
-2.19078
-2.71136
-3.14143
-3.47602
-3.80801
-4.0982
-4.37109
-4.60228
-4.81477
-4.96781
-5.21735
-5.33531
-5.43808
-5.62775
-5.9001
-5.94703
-5.99232
-6.04481
-6.08402
-0.715951
-0.678179
-0.694165
-0.69479
-0.617255
-0.657487
-0.596218
-0.470977
-0.351146
-0.232231
-0.0819175
0.0459198
0.169062
0.260064
0.310947
0.288043
0.216151
0.0440123
-0.21962
-0.540485
-1.06404
-1.52837
-2.25831
-2.72925
-3.13936
-3.50517
-3.83509
-4.13094
-4.43832
-4.77678
-5.03258
-5.15943
-5.30136
-5.41661
-5.62707
-5.83021
-5.89373
-5.92405
-5.94896
-5.99076
-0.746551
-0.715181
-0.728074
-0.743526
-0.73698
-0.726224
-0.630491
-0.4748
-0.319401
-0.202936
0.0827966
0.275914
0.462209
0.614666
0.748941
0.767729
0.740859
0.603416
0.360115
0.092442
-0.440487
-0.909256
-1.77386
-2.261
-2.72508
-3.1098
-3.482
-3.86506
-4.29145
-4.59562
-4.88063
-5.01125
-5.12361
-5.20238
-5.38375
-5.66821
-5.68476
-5.73922
-5.77317
-5.81214
-0.784588
-0.756259
-0.787549
-0.834508
-0.810996
-0.731807
-0.663755
-0.464717
-0.240133
0.000708946
0.230348
0.50478
0.809271
1.03591
1.22166
1.3057
1.29613
1.18227
0.940383
0.678973
0.131022
-0.336825
-1.21765
-1.7265
-2.22549
-2.62479
-3.06684
-3.56151
-4.00708
-4.42761
-4.7826
-5.05464
-5.15932
-5.27785
-5.39115
-5.60127
-5.58956
-5.54098
-5.55986
-5.60777
-0.83587
-0.809205
-0.870481
-0.913276
-0.896711
-0.781776
-0.607208
-0.370274
-0.197747
0.194722
0.480341
0.852642
1.09618
1.5082
1.77287
1.89159
1.9218
1.81408
1.58059
1.30521
0.753657
0.286791
-0.529907
-1.09054
-1.65712
-2.08283
-2.5196
-3.21114
-3.70493
-4.20598
-4.44367
-4.62085
-4.78533
-4.83941
-4.93497
-5.12378
-5.39488
-5.31124
-5.32132
-5.35402
-0.871882
-0.853188
-0.910852
-0.947743
-0.929142
-0.792963
-0.560716
-0.257335
0.0701998
0.49314
0.643592
1.21079
1.57892
1.91338
2.37172
2.5548
2.61229
2.51944
2.28642
1.9903
1.45497
1.00768
0.308781
-0.275228
-0.89905
-1.40904
-2.25902
-2.71839
-3.26586
-3.66223
-3.98664
-4.30215
-4.50323
-4.63814
-4.66551
-4.77767
-4.92492
-4.93894
-4.84907
-4.96825
-0.925522
-0.898301
-0.940458
-0.951766
-0.922712
-0.795582
-0.509956
-0.180092
0.175833
0.683333
1.13814
1.70169
1.97989
2.53567
2.90842
3.28391
3.39245
3.31299
3.1027
2.77722
2.30961
1.91883
1.33363
0.72887
0.00439534
-0.588257
-1.44105
-2.04397
-2.7112
-3.05249
-3.50472
-3.84868
-4.10971
-4.27217
-4.33287
-4.38214
-4.52929
-4.73462
-4.71443
-4.64965
-0.920751
-0.881825
-0.904053
-0.891537
-0.834084
-0.664264
-0.415217
-0.0468128
0.387965
0.912732
1.45527
2.1303
2.70809
3.1935
3.62347
4.09121
4.29058
4.23851
4.04645
3.72564
3.39829
2.98753
2.45453
1.84921
1.02482
0.032787
-0.694654
-1.42259
-1.81323
-2.38683
-2.89411
-3.32531
-3.64953
-3.86842
-3.96257
-3.99413
-4.01638
-4.08216
-4.02689
-3.99717
-0.883184
-0.871294
-0.873199
-0.841069
-0.74937
-0.57562
-0.296427
0.108845
0.593137
1.18543
1.84251
2.59887
3.37414
4.02176
4.59392
4.90461
5.30773
5.32752
5.24509
5.05228
4.72894
4.29584
3.72878
3.0812
2.27744
1.24117
0.530631
-0.144524
-0.859895
-1.50868
-2.1181
-2.63564
-3.04568
-3.32476
-3.48423
-3.55125
-3.5811
-3.61608
-3.84427
-3.88346
-0.802169
-0.74052
-0.70507
-0.660568
-0.50594
-0.322801
-0.0791021
0.343212
0.921384
1.64258
2.46649
3.34493
4.2313
5.03469
5.68357
6.18358
6.68173
6.9318
6.9588
6.7691
6.35823
5.83596
5.2519
4.50943
3.61095
2.78447
1.92016
1.04687
0.228373
-0.527991
-1.23726
-1.83988
-2.32137
-2.66179
-2.85032
-2.94835
-2.94237
-2.86764
-2.89498
-2.92771
-0.459267
-0.410508
-0.379469
-0.289134
-0.120119
0.0704429
0.287577
0.702101
1.32979
2.19567
3.28313
4.45112
5.59121
6.58483
7.41554
8.06412
8.60793
8.87355
8.88026
8.66829
8.25724
7.67747
6.97166
6.46483
5.43209
4.47202
3.49693
2.52821
1.57438
0.695222
-0.146879
-0.863354
-1.46177
-1.87975
-2.15933
-2.28719
-2.31408
-2.22336
-2.27758
-2.30197
-0.328762
-0.249227
-0.189241
-0.0831315
0.0881182
0.229382
0.413562
0.854429
1.6732
2.767
4.07509
5.47606
6.82997
7.93126
8.89083
9.69812
10.3549
10.7309
10.8557
10.5935
10.2233
9.57973
8.99638
8.1102
7.21356
6.37106
5.41771
4.39148
3.25233
2.15154
1.16408
0.346444
-0.321583
-0.778312
-1.04387
-1.16806
-1.22864
-1.22054
-1.29952
-1.3453
-0.102532
0.00601924
0.116623
0.26336
0.512171
0.647424
0.837149
1.32794
2.21382
3.38911
4.82562
6.39019
7.8919
9.16434
10.2952
11.2419
11.9796
12.4826
12.7605
12.5503
12.052
11.5443
10.8212
9.74547
8.84842
8.05523
7.20516
6.25842
5.10366
3.94657
2.84581
1.89306
1.02056
0.357246
-0.106351
-0.290178
-0.374252
-0.288924
-0.281931
-0.318513
0.0493497
0.181351
0.336647
0.531776
0.775038
1.04808
1.36225
1.80562
2.68731
3.9432
5.51838
7.25867
8.85737
10.2686
11.5334
12.5959
13.4049
13.9779
14.3585
14.3929
13.9034
13.3044
12.4402
11.2336
10.2423
9.34338
8.46837
7.60501
6.57639
5.55603
4.5883
3.78196
3.0182
2.35353
1.74019
1.3236
1.05001
0.902263
0.72771
0.418688
0.192743
0.320002
0.497723
0.716747
0.982266
1.32612
1.69178
2.17298
3.06097
4.41001
6.12262
7.93906
9.60217
11.1292
12.4996
13.648
14.547
15.1708
15.6585
15.7335
15.4708
14.6854
13.5378
12.4744
11.4373
10.4602
9.48887
8.57968
7.60274
6.61136
5.59437
4.74243
3.98682
3.46212
3.13993
3.01585
2.92105
2.91011
2.8962
2.83265
0.363791
0.514957
0.714277
0.966101
1.25664
1.66107
2.0485
2.5842
3.46551
4.82931
6.56086
8.36718
10.0659
11.6506
13.0663
14.2795
15.2997
16.0858
16.6446
16.8193
16.4812
15.7521
14.658
13.4231
12.3621
11.4806
10.4462
9.48478
8.49034
7.55761
6.58487
5.74257
4.9775
4.46904
4.08994
3.87424
3.71691
3.64417
3.62449
3.38459
0.47972
0.595585
0.836381
1.10763
1.40561
1.78688
2.23771
2.81195
3.69207
5.0261
6.6985
8.45985
10.1545
11.7481
13.1868
14.4935
15.6577
16.6163
17.2679
17.431
17.0913
16.4412
15.444
14.4851
13.2561
12.0932
11.1955
10.2097
9.20251
8.27584
7.29331
6.4523
5.65523
5.12208
4.67635
4.4463
4.25106
4.21432
4.18435
4.09689
0.589365
0.676595
0.93165
1.24785
1.55691
1.95403
2.39848
2.98549
3.85265
5.09754
6.61025
8.23832
9.85048
11.3916
12.8601
14.2592
15.5177
16.535
17.2508
17.2742
16.9304
16.6548
15.8972
15.1393
14.0799
12.8926
11.6643
10.7377
9.72924
8.88524
7.96357
7.23079
6.48909
5.99604
5.51017
5.23886
4.95233
4.79732
4.70654
4.52459
0.586758
0.692719
0.888839
1.21839
1.52065
1.9342
2.38534
2.95344
3.75948
4.87021
6.20223
7.65482
9.11137
10.5626
12.0097
13.4201
14.6792
15.6987
16.3134
16.1852
16.3852
16.3021
15.9028
15.2965
14.4492
13.2518
12.1666
10.9245
9.84718
9.07716
8.16725
7.44471
6.69242
6.22629
5.74467
5.53972
5.29458
5.2495
5.20152
5.17709
0.60173
0.735156
0.866535
1.20689
1.47797
1.82094
2.23892
2.79568
3.5075
4.46392
5.59271
6.83246
8.09373
9.38582
10.6853
11.9439
13.0617
14.0037
14.4571
14.7015
15.6291
15.7043
15.647
15.1774
14.4181
13.5226
12.2565
11.2227
9.83104
9.26069
8.08799
7.33452
6.54647
6.08693
5.54046
5.27563
4.90015
4.82592
4.7978
4.73854
0.510223
0.635665
0.756692
1.0143
1.28993
1.57041
1.91154
2.42023
3.01648
3.81608
4.74979
5.77549
6.82828
7.9174
9.01023
10.0644
11.0186
11.8187
12.4637
13.2083
14.6828
14.7836
15.059
14.7966
14.2366
13.4754
12.482
11.4354
10.2136
9.53196
8.57147
7.92263
7.15022
6.72669
6.17447
5.91805
5.49065
5.47727
5.34507
5.35248
0.467116
0.582545
0.68355
0.868271
1.10247
1.33035
1.61031
2.01533
2.48493
3.14717
3.88373
4.70689
5.56262
6.45018
7.33378
8.22177
9.04303
9.87831
10.8359
11.8911
13.1799
13.6234
14.0587
14.0603
13.7953
13.3042
12.5068
11.5654
10.5173
9.84967
8.94845
8.45541
7.7243
7.33714
6.77598
6.57794
6.13006
6.23066
6.07514
6.19254
0.28
0.358058
0.451235
0.58679
0.745811
0.934076
1.16036
1.47381
1.85547
2.36552
2.9387
3.60683
4.29717
5.03831
5.77256
6.51663
7.33469
8.26324
9.44271
10.6067
11.6837
12.2852
12.8732
13.0744
13.0849
12.8625
12.3301
11.4312
10.3608
9.77122
9.2867
8.78737
8.11976
7.88095
7.21908
7.14713
6.6803
6.92532
6.76818
7.06675
0.196608
0.2376
0.303133
0.421938
0.483722
0.670479
0.801221
1.03662
1.31079
1.74479
2.1504
2.66678
3.24631
3.87409
4.52878
5.23641
6.07553
7.02274
8.19498
8.93505
10.2099
10.995
11.7296
12.0741
12.3151
12.2717
12.0428
11.1336
10.2957
9.77716
9.36781
8.99281
8.41609
8.21025
7.7161
7.66198
7.14997
7.56022
7.35697
7.87206
-0.0847188
-0.0937826
0.0135819
0.0654992
0.104445
0.214592
0.330182
0.477119
0.658093
1.01657
1.39155
1.80141
2.25198
2.84576
3.46552
4.17014
4.96005
5.86023
7.0182
7.55474
8.7723
9.63703
10.5785
11.0458
11.452
11.5703
11.5568
10.7566
10.1073
9.71721
9.19505
9.10873
8.45928
8.47329
7.80254
8.11063
7.47546
8.01147
7.75883
8.57642
-0.15742
-0.147932
-0.138518
-0.0534225
-0.0376622
-0.00607798
0.0497733
0.137341
0.198942
0.47418
0.780285
1.1009
1.52856
1.98027
2.57604
3.28168
4.02435
4.91142
5.70083
6.35611
7.53497
8.36264
9.51847
10.1186
10.6493
10.9657
11.0985
10.4467
9.84967
9.52671
9.09637
9.04079
8.56707
8.66471
8.08785
8.33004
7.81354
8.54975
8.0094
9.37045
-0.491753
-0.511928
-0.481441
-0.481109
-0.37336
-0.39042
-0.353742
-0.297418
-0.257003
-0.143057
0.0817687
0.406777
0.714542
1.15638
1.67333
2.30337
3.02895
3.85026
4.60264
5.29955
6.44694
7.20596
8.53489
9.23378
9.88888
10.388
10.6191
10.1357
9.55275
9.37794
8.9342
8.96667
8.42027
8.68312
8.02408
8.54618
7.73361
8.6457
8.13002
10.0367
-0.517962
-0.521217
-0.558201
-0.493737
-0.473694
-0.420663
-0.499117
-0.407101
-0.478643
-0.390009
-0.285248
-0.146438
-0.0463652
0.347601
0.801774
1.46672
2.19237
2.86952
3.69322
4.47104
5.59538
6.35543
7.65074
8.52024
9.28597
9.97713
10.1912
9.84554
9.28608
9.15538
8.74583
8.90706
8.37783
8.77568
8.10797
8.82403
7.91602
9.22087
8.18149
11.4647
-0.804321
-0.948803
-0.884023
-0.92479
-0.838688
-0.784131
-0.800953
-0.714743
-0.75455
-0.677506
-0.653478
-0.533911
-0.31756
0.0552829
0.42343
0.930165
1.4931
2.21478
2.95882
3.85232
5.03432
5.73557
6.9619
7.94002
8.75706
9.57599
9.81865
9.59011
9.03982
8.93818
8.52426
8.73686
8.12852
8.69143
7.95349
8.87985
7.89331
9.51763
8.38849
13.4392
-1.38148
-0.940168
-1.02783
-0.759416
-0.829085
-0.65297
-0.798169
-0.64372
-0.801204
-0.756788
-0.791986
-0.649742
-0.501089
-0.207553
0.115694
0.669164
1.12344
1.7341
2.6848
3.53367
4.63757
5.46749
6.51916
7.54714
8.43625
9.37207
9.53831
9.3922
8.85901
8.76519
8.35404
8.64569
8.11239
8.79819
8.15403
9.39374
8.69783
11.0866
11.0587
18.9278
-1.15005
-1.61356
-1.46689
-1.46927
-1.15816
-1.01932
-0.959767
-0.825935
-0.886118
-0.871104
-0.943815
-0.859084
-0.627455
-0.324541
-0.0289161
0.323864
0.833786
1.5617
2.24696
3.32207
4.39918
5.18068
6.04107
7.27779
8.18089
9.19637
9.35474
9.29715
8.75717
8.65899
8.22056
8.5315
7.94084
8.76252
8.0785
9.53064
9.00388
12.6128
14.7385
26.333
-3.89502
-1.14886
-1.43586
-1.01995
-0.944249
-0.771602
-0.814582
-0.683356
-0.778392
-0.792046
-0.868573
-0.807071
-0.680217
-0.426537
-0.187001
0.208081
0.655873
1.38889
2.21383
3.37353
4.5195
5.36236
6.23243
7.403
8.21942
9.1214
9.12249
9.04779
8.55435
8.44959
8.09805
8.57726
8.12722
8.98266
8.5351
10.4822
11.0562
17.229
24.7088
42.8957
-0.310952
-0.35437
-0.384107
-0.402275
-0.409368
-0.400216
-0.396344
-0.381341
-0.373505
-0.371216
-0.400441
-0.451468
-0.521313
-0.634255
-0.758273
-0.932501
-1.07501
-1.42125
-1.55444
-2.04446
-2.14551
-2.83752
-3.09539
-3.40322
-3.53883
-3.74514
-3.87672
-4.08889
-4.28292
-4.53213
-4.73076
-5.0308
-5.29158
-5.59778
-5.87099
-6.06212
-6.20489
-6.32179
-6.4249
-6.44335
-0.379199
-0.399504
-0.416616
-0.421334
-0.414972
-0.391051
-0.378392
-0.345965
-0.333115
-0.341034
-0.339395
-0.371943
-0.416049
-0.515907
-0.61953
-0.807791
-0.96111
-1.2816
-1.42867
-1.961
-2.19027
-2.79553
-3.14626
-3.47474
-3.6194
-3.83456
-3.97984
-4.20581
-4.41262
-4.66594
-4.88952
-5.15628
-5.41682
-5.56814
-5.85297
-6.01386
-6.17055
-6.28189
-6.37207
-6.40684
-0.42451
-0.429916
-0.430499
-0.415246
-0.410021
-0.363489
-0.369872
-0.326623
-0.286032
-0.270775
-0.26896
-0.313071
-0.369002
-0.482567
-0.624148
-0.834334
-0.982612
-1.30622
-1.49232
-2.09911
-2.40988
-3.10147
-3.50545
-3.89119
-4.06698
-4.30773
-4.44915
-4.67266
-4.81351
-4.99364
-5.18864
-5.36832
-5.55188
-5.75513
-5.96644
-6.04574
-6.1848
-6.27689
-6.35517
-6.394
-0.48248
-0.474739
-0.468763
-0.443487
-0.408515
-0.366457
-0.329393
-0.269131
-0.233595
-0.209846
-0.215542
-0.2543
-0.340554
-0.479036
-0.623853
-0.820948
-1.01083
-1.37096
-1.62496
-2.27265
-2.67275
-3.34273
-3.79579
-4.18426
-4.37093
-4.60833
-4.7509
-4.9774
-5.15122
-5.26167
-5.33268
-5.44414
-5.61075
-5.78863
-5.95858
-6.08136