/*--------------------------------*- C++ -*----------------------------------*\
| =========                 |                                                 |
| \\      /  F ield         | OpenFOAM: The Open Source CFD Toolbox           |
|  \\    /   O peration     | Version:  v1806                                 |
|   \\  /    A nd           | Web:      www.OpenFOAM.com                      |
|    \\/     M anipulation  |                                                 |
\*---------------------------------------------------------------------------*/
FoamFile
{
    version     2.0;
    format      ascii;
    class       surfaceScalarField;
    location    "0.002";
    object      phi;
}
// * * * * * * * * * * * * * * * * * * * * * * * * * * * * * * * * * * * * * //

dimensions      [0 3 -1 0 0 0 0];
oriented        oriented;


internalField   nonuniform List<scalar> 
187200
(
8.63201e-06
-7.2897e-06
-1.34069e-06
3.09243e-05
-1.53517e-05
-6.94066e-06
5.37573e-05
-1.52903e-05
-7.54275e-06
7.25219e-05
-1.21904e-05
-6.57422e-06
8.65329e-05
-8.36187e-06
-5.64913e-06
9.71389e-05
-4.77947e-06
-5.82659e-06
0.000105737
-1.6564e-06
-6.94201e-06
0.000112241
1.69805e-06
-8.20156e-06
0.000115088
6.27698e-06
-9.12395e-06
0.000112297
1.18095e-05
-9.01879e-06
0.000101634
1.821e-05
-7.54742e-06
8.08034e-05
2.54178e-05
-4.5867e-06
4.72155e-05
3.30483e-05
5.39509e-07
-9.29488e-08
4.08768e-05
6.43163e-06
-6.1583e-05
4.94178e-05
1.20722e-05
-0.000136173
5.99761e-05
1.46134e-05
-0.00022088
7.35207e-05
1.11867e-05
-0.000312783
9.10628e-05
8.40269e-07
-0.000405231
0.000113686
-2.1238e-05
-0.000493225
0.000142178
-5.41837e-05
-0.00057016
0.000175812
-9.88772e-05
-0.000628763
0.000213779
-0.000155176
-0.000661812
0.000254597
-0.000221548
-0.000663007
0.000296025
-0.00029483
-0.00062733
0.000334781
-0.000370458
-0.00055329
0.000367153
-0.000441193
-0.000443934
0.000389573
-0.000498929
-0.000308294
0.000398725
-0.000534365
-0.000161222
0.000391984
-0.000539056
-2.37084e-05
0.000369339
-0.000506852
8.60136e-05
0.000329629
-0.000439351
0.000152461
0.000277201
-0.000343648
0.000173589
0.000218382
-0.000239509
0.000158561
0.000161862
-0.000146834
0.000125164
0.000112766
-7.93695e-05
8.86025e-05
7.58196e-05
-3.92577e-05
5.68204e-05
5.15878e-05
-1.98058e-05
3.1562e-05
3.76088e-05
-1.23503e-05
1.08592e-05
2.86814e-05
-7.97875e-06
1.4253e-05
-3.39381e-06
1.65589e-05
-2.05072e-05
-3.3415e-06
5.27081e-05
-3.44642e-05
-1.70366e-05
8.96082e-05
-3.03075e-05
-2.18829e-05
0.000118454
-1.77687e-05
-2.32675e-05
0.000137495
-2.43635e-06
-2.49669e-05
0.000148492
1.33171e-05
-2.90929e-05
0.000152568
2.98053e-05
-3.55378e-05
0.000148229
4.92477e-05
-4.32112e-05
0.000132145
7.30926e-05
-5.07315e-05
9.96939e-05
0.000102193
-5.7932e-05
4.61274e-05
0.000137149
-6.53721e-05
-3.17974e-05
0.000177685
-7.43421e-05
-0.000136346
0.00022387
-8.62737e-05
-0.000267529
0.000275273
-0.000103213
-0.000423026
0.000332667
-0.000127753
-0.000596058
0.000396039
-0.000163031
-0.000777644
0.000466678
-0.000211571
-0.000957061
0.000544769
-0.000274289
-0.00112212
0.000629018
-0.00035027
-0.00126138
0.000718657
-0.00043722
-0.00136449
0.000810935
-0.000532015
-0.00142242
0.000902317
-0.000630609
-0.00142843
0.00098873
-0.000728122
-0.00137921
0.00106425
-0.000817447
-0.00127359
0.00112345
-0.000894297
-0.00111499
0.00116011
-0.000951553
-0.00091214
0.00116878
-0.000982064
-0.000679455
0.00114508
-0.00097904
-0.000436939
0.00108704
-0.000937572
-0.000206514
0.000995575
-0.000856661
-1.58846e-05
0.000877532
-0.000738532
0.000120121
0.000740307
-0.000599112
0.000189482
0.000598526
-0.000449506
0.000204725
0.000462746
-0.000316127
0.000182327
0.000346153
-0.000210988
0.000143336
0.000254804
-0.000139992
0.00010232
0.000189789
-9.71855e-05
6.49581e-05
0.000146349
-7.13782e-05
2.93399e-05
0.000112363
-4.80629e-05
6.36606e-05
-2.00678e-05
1.9174e-05
-3.12004e-05
-8.48079e-06
6.13249e-05
-4.6206e-05
-3.04092e-05
0.000102314
-3.25545e-05
-3.87415e-05
0.000130749
-4.55908e-06
-4.16452e-05
0.000144664
2.94382e-05
-4.579e-05
0.000146113
6.67518e-05
-5.48831e-05
0.000135074
0.000109121
-6.82774e-05
0.000109003
0.000159373
-8.40546e-05
6.29629e-05
0.000219448
-0.000100315
-7.78615e-06
0.000290298
-0.000117357
-0.000106566
0.000370946
-0.000135018
-0.000234971
0.000460433
-0.000154343
-0.000391164
0.000556993
-0.00017693
-0.000569701
0.000658829
-0.000205019
-0.000762066
0.000765213
-0.00024018
-0.000958028
0.000875205
-0.000283204
-0.00114638
0.000988526
-0.000333497
-0.00131636
0.00110412
-0.000389361
-0.00145877
0.0012198
-0.000448368
-0.00156589
0.00133312
-0.000507348
-0.00163206
0.00144028
-0.000563183
-0.00165328
0.00153683
-0.000613295
-0.0016283
0.00161837
-0.000654617
-0.00155651
0.00167949
-0.000687032
-0.00144021
0.00171332
-0.000706166
-0.00128434
0.00171488
-0.000710637
-0.0010966
0.00167989
-0.000698843
-0.000887726
0.00160612
-0.000669915
-0.000671086
0.00149451
-0.000624111
-0.000461828
0.00134937
-0.000563051
-0.000276265
0.00118212
-0.000490148
-0.000124912
0.000998903
-0.000409948
-1.74273e-05
0.000820676
-0.000329635
4.63028e-05
0.000655902
-0.000256886
7.36366e-05
0.00051487
-0.000196051
7.81643e-05
0.000402922
-0.000152646
6.98996e-05
0.000319812
-0.000121759
5.39829e-05
0.000259447
-9.71818e-05
2.86739e-05
0.000203969
-6.62973e-05
0.000116747
-2.44121e-05
2.07022e-05
-3.42051e-05
-1.76976e-05
6.64996e-05
-4.24714e-05
-4.9532e-05
0.000107822
-1.3134e-05
-6.07435e-05
0.000130723
3.64699e-05
-6.39294e-05
0.000134544
9.64272e-05
-7.08105e-05
0.000121902
0.000164669
-8.52751e-05
9.29612e-05
0.000243414
-0.000105352
4.47637e-05
0.000334852
-0.000127281
-2.73924e-05
0.000439649
-0.000148046
-0.000125571
0.000555099
-0.000166622
-0.000250197
0.000678949
-0.000183376
-0.000397429
0.00080692
-0.000199255
-0.0005612
0.00093612
-0.000215356
-0.000733859
0.0010639
-0.000232412
-0.000906932
0.00118874
-0.00025045
-0.00107225
0.0013094
-0.000268874
-0.00122245
0.00142551
-0.000286784
-0.00135116
0.00153579
-0.000302964
-0.00145334
0.00163793
-0.00031596
-0.00152537
0.00172975
-0.0003246
-0.00156516
0.00180852
-0.000328445
-0.00157273
0.00187093
-0.000326526
-0.00154771
0.00191206
-0.000318716
-0.00149043
0.00192812
-0.0003059
-0.00140381
0.00191597
-0.000289268
-0.00129167
0.00187328
-0.000270544
-0.00115856
0.00179804
-0.000251254
-0.0010101
0.0016907
-0.000233035
-0.000852814
0.00155463
-0.00021741
-0.000693844
0.0013954
-0.000205005
-0.000538029
0.00122176
-0.000195461
-0.000393865
0.00104315
-0.000188407
-0.000266432
0.000874022
-0.00018078
-0.000161559
0.00072167
-0.000170641
-8.25851e-05
0.000593156
-0.00015726
-2.73255e-05
0.000490867
-0.000143205
8.15261e-06
0.000412747
-0.000128413
2.52638e-05
0.000350712
-0.000108376
2.10229e-05
0.000282247
-7.40373e-05
0.000161978
-2.42082e-05
2.31368e-05
-2.41796e-05
-3.31623e-05
7.35843e-05
-1.49349e-05
-7.7984e-05
0.000115442
3.61223e-05
-9.11142e-05
0.00013263
0.000111758
-9.24762e-05
0.0001267
0.000202289
-9.99321e-05
0.000102126
0.000306094
-0.000116851
5.98286e-05
0.000424115
-0.000138405
-2.14166e-06
0.000555296
-0.000158474
-8.50497e-05
0.000696022
-0.000173464
-0.000189412
0.000842074
-0.000182612
-0.000311972
0.000988374
-0.000186867
-0.000447076
0.00112953
-0.000187508
-0.000588624
0.0012629
-0.000185234
-0.000730315
0.00138584
-0.000180246
-0.000866461
0.00149717
-0.000172289
-0.00099247
0.00159616
-0.000160752
-0.00110462
0.00168252
-0.000144858
-0.00119988
0.00175519
-0.000124147
-0.00127603
0.00181326
-9.91754e-05
-0.00133136
0.00185598
-7.08974e-05
-0.00136458
0.00188261
-4.08665e-05
-0.00137773
0.00189221
-8.13955e-06
-0.00136997
0.00188442
1.98843e-05
-0.00134416
0.0018574
4.49125e-05
-0.00130362
0.00181028
6.51505e-05
-0.00124893
0.00174194
7.66409e-05
-0.00118116
0.00165269
7.75821e-05
-0.00110072
0.00154369
6.65678e-05
-0.00100654
0.00141719
4.32515e-05
-0.000899429
0.00127764
1.06523e-05
-0.000776807
0.00113094
-3.17947e-05
-0.000643455
0.000984225
-7.44302e-05
-0.000502983
0.000846197
-0.000112646
-0.000364981
0.000723613
-0.000139946
-0.000240349
0.000620931
-0.000152408
-0.000137244
0.000538959
-0.000151197
-5.88831e-05
0.000474475
-0.000140089
-7.90779e-06
0.000417632
-0.000117895
1.08273e-05
0.000342308
-7.87963e-05
0.000195841
-2.30361e-05
2.71301e-05
4.02924e-06
-5.5339e-05
8.56331e-05
4.27662e-05
-0.000116204
0.000131735
0.000119614
-0.000129593
0.000146602
0.000222383
-0.000125492
0.000135267
0.000342816
-0.000129191
0.000105143
0.00047882
-0.000142602
5.90754e-05
0.00062813
-0.000157948
-3.63437e-06
0.000785743
-0.000167737
-8.35995e-05
0.000945261
-0.000169274
-0.000178031
0.00109941
-0.000162905
-0.000283567
0.00124477
-0.00015086
-0.000394777
0.00137483
-0.000134088
-0.000507328
0.0014886
-0.000113149
-0.000617093
0.00158334
-8.77346e-05
-0.000720584
0.00165829
-5.76242e-05
-0.0008154
0.00171313
-2.21565e-05
-0.000900107
0.00174895
1.82814e-05
-0.000973657
0.00176718
6.15586e-05
-0.00103567
0.00176993
0.000105346
-0.00108564
0.00175917
0.000146774
-0.00112522
0.00173696
0.000185229
-0.00115596
0.00170508
0.000217865
-0.00117852
0.00166357
0.000243411
-0.00119386
0.00161314
0.000259599
-0.0012031
0.00155483
0.000264687
-0.00120546
0.00148755
0.000256754
-0.00119854
0.00141075
0.000235016
-0.00117824
0.00132395
0.000199442
-0.00113946
0.00122717
0.000151243
-0.00107694
0.00112293
9.21932e-05
-0.000984948
0.00101261
2.63399e-05
-0.000862619
0.000902329
-4.04338e-05
-0.000713665
0.000798697
-0.000101454
-0.000549024
0.000707426
-0.000148453
-0.000384698
0.000631763
-0.000175158
-0.000237597
0.000570963
-0.000179105
-0.000119564
0.000520466
-0.000164024
-3.72815e-05
0.000469488
-0.000134138
2.37057e-06
0.000389827
-8.71713e-05
0.00022278
-2.4568e-05
3.41937e-05
5.24386e-05
-8.26031e-05
0.000105787
0.000132752
-0.000161579
0.000161276
0.000236888
-0.000172763
0.000179392
0.0003629
-0.000158633
0.000169024
0.00050626
-0.000153077
0.000140581
0.000663853
-0.000156589
9.84137e-05
0.000829809
-0.000159512
4.28867e-05
0.000995945
-0.000154676
-2.57248e-05
0.00115461
-0.000140742
-0.000105498
0.00129882
-0.000119633
-0.000191012
0.00142344
-9.3155e-05
-0.000279649
0.00152605
-6.25847e-05
-0.000368167
0.00160506
-2.79416e-05
-0.000454292
0.00165732
1.21407e-05
-0.000536188
0.00168417
5.60158e-05
-0.000612639
0.00168687
0.00010271
-0.000683781
0.00166867
0.000151418
-0.000749694
0.00163413
0.00019897
-0.000810744
0.00158879
0.00024219
-0.000867694
0.00153738
0.000278743
-0.000922351
0.00148398
0.000307635
-0.000975995
0.0014313
0.000327427
-0.00102978
0.00138037
0.00033698
-0.00108412
0.00133148
0.000336015
-0.00113756
0.00128404
0.000324229
-0.00118711
0.00123574
0.000301359
-0.00122782
0.00118391
0.000267541
-0.00125306
0.0011258
0.000223399
-0.00125465
0.0010598
0.000168962
-0.00122523
0.000985531
0.000107974
-0.00115781
0.000905331
3.98555e-05
-0.00104732
0.000824388
-3.25437e-05
-0.000895818
0.000748945
-0.000101754
-0.000712971
0.000684474
-0.000159894
-0.000516442
0.00063397
-0.000198736
-0.000329631
0.000594677
-0.000210525
-0.000173966
0.000558809
-0.000194008
-6.26868e-05
0.0005143
-0.000156092
-4.24675e-06
0.000431968
-0.000100581
0.00024733
-2.87974e-05
4.33251e-05
0.000120513
-0.000111399
0.000133545
0.000251685
-0.000209153
0.000205096
0.000380901
-0.000215564
0.000232741
0.000522546
-0.000187291
0.000229037
0.000677711
-0.000167747
0.000207124
0.000842778
-0.000157012
0.00017257
0.00100936
-0.000144996
0.000126358
0.00116769
-0.00012553
7.01489e-05
0.00130958
-9.87598e-05
5.41178e-06
0.00142977
-6.62165e-05
-6.5643e-05
0.00152517
-3.06805e-05
-0.000140447
0.00159153
9.32383e-06
-0.00021415
0.00162747
5.12972e-05
-0.000287735
0.00163365
9.72609e-05
-0.000360225
0.0016115
0.000145161
-0.000430957
0.00156532
0.000192283
-0.000500282
0.00150219
0.000235805
-0.000568754
0.00142982
0.00027278
-0.000637197
0.00135572
0.000301514
-0.000707013
0.0012858
0.000321393
-0.00077983
0.00122417
0.000332637
-0.000856777
0.00117267
0.000335573
-0.000938235
0.00113108
0.000330744
-0.00102331
0.00109763
0.000318919
-0.00110907
0.0010694
0.000300408
-0.00119103
0.00104232
0.000275372
-0.00126316
0.0010122
0.000243838
-0.00131803
0.00097524
0.000205433
-0.00134748
0.000929118
0.000160131
-0.00134275
0.00087364
0.000107157
-0.00129528
0.000811588
4.62741e-05
-0.00119815
0.00074858
-2.13248e-05
-0.00104949
0.000691246
-9.09578e-05
-0.000856762
0.000647099
-0.000155352
-0.000636851
0.000619213
-0.000205155
-0.000416539
0.00060335
-0.000228985
-0.000225627
0.000586911
-0.000219013
-8.64629e-05
0.000553062
-0.000177925
-1.00544e-05
0.000471367
-0.000115808
0.000271773
-3.44969e-05
5.51075e-05
0.00020247
-0.000137065
0.000168557
0.00039121
-0.000252975
0.000261476
0.00054124
-0.000253258
0.000303521
0.000688995
-0.000208493
0.00030992
0.00084359
-0.000172278
0.000296235
0.00100231
-0.000145847
0.000269408
0.00115589
-0.000119707
0.000231131
0.00129449
-8.85298e-05
0.000182463
0.00141082
-5.25735e-05
0.000125149
0.00150059
-1.35042e-05
6.40973e-05
0.00155953
2.66987e-05
-1.76711e-06
0.00158778
6.96159e-05
-7.14935e-05
0.00158308
0.000114113
-0.000143457
0.00154608
0.00015953
-0.000216637
0.00148223
0.000202441
-0.000290927
0.00139985
0.000239757
-0.000366277
0.00130883
0.00026871
-0.000443155
0.00121869
0.000288012
-0.000522662
0.00113708
0.00029814
-0.000606339
0.00106879
0.000300692
-0.0006955
0.00101573
0.0002976
-0.000790584
0.000977314
0.000290443
-0.000890932
0.000950997
0.000280433
-0.000994653
0.000933038
0.000268312
-0.00109849
0.000919131
0.000254108
-0.00119819
0.00090472
0.000237306
-0.00128856
0.000885599
0.000216963
-0.00136296
0.00085848
0.000191164
-0.00141336
0.000821324
0.000158189
-0.00143
0.00077426
0.000116022
-0.00140174
0.000720105
6.32244e-05
-0.00132033
0.00066486
2.30968e-06
-0.00117879
0.000617328
-6.76197e-05
-0.000982144
0.000586446
-0.000135992
-0.000745786
0.000577352
-0.000194497
-0.000498381
0.000586254
-0.000230309
-0.00027596
0.000596031
-0.000231541
-0.000109966
0.00058099
-0.000193922
-1.60448e-05
0.0005064
-0.000128954
0.000295719
-3.99907e-05
6.79808e-05
0.000290527
-0.000156037
0.000207685
0.000539933
-0.000288427
0.000325678
0.000706081
-0.000282835
0.000385158
0.000850945
-0.000221429
0.000402853
0.000993981
-0.000168086
0.000396683
0.0011353
-0.000126821
0.000375377
0.0012664
-8.91949e-05
0.000341578
0.00137836
-5.00701e-05
0.000296935
0.00146471
-9.23846e-06
0.000243783
0.00152172
3.20171e-05
0.000183302
0.00154664
7.33697e-05
0.000116576
0.00153868
0.000115831
4.49928e-05
0.00149668
0.00015798
-3.17318e-05
0.00142585
0.000196956
-0.000112067
0.00133364
0.000228931
-0.000194585
0.00123128
0.00025109
-0.000278762
0.00113042
0.000262587
-0.000365025
0.0010402
0.000264746
-0.00045458
0.000966275
0.000260363
-0.000548736
0.000910355
0.00025259
-0.000648141
0.000871123
0.000244008
-0.000752457
0.000845362
0.000236268
-0.000860488
0.000828993
0.000230034
-0.00097054
0.00081784
0.00022525
-0.00108054
0.000808009
0.000221124
-0.00118798
0.000795934
0.000216227
-0.00128925
0.000778492
0.000208369
-0.00137897
0.000753027
0.000195175
-0.00144893
0.000717938
0.000173345
-0.001488
0.000673158
0.000140177
-0.00148281
0.000621187
9.37259e-05
-0.00142038
0.000568144
3.42845e-05
-0.0012912
0.000523241
-3.50931e-05
-0.00109491
0.00049835
-0.000108192
-0.000845946
0.000502787
-0.000174399
-0.000575092
0.000535589
-0.000220188
-0.000324241
0.000577493
-0.000232312
-0.000132865
0.000591813
-0.000202199
-2.25345e-05
0.00053365
-0.000137581
0.000317814
-4.463e-05
8.05491e-05
0.00037602
-0.000166043
0.000247134
0.00068605
-0.000312702
0.000391781
0.000864488
-0.000303054
0.000470003
0.000999608
-0.000226884
0.000498763
0.00112299
-0.000157769
0.000498288
0.00123951
-0.000103734
0.000479745
0.00134272
-5.77778e-05
0.000447131
0.00142533
-1.43541e-05
0.00040287
0.00148125
2.77135e-05
0.000348671
0.00150736
6.85611e-05
0.000285214
0.00150137
0.000108725
0.000213386
0.00146252
0.000147988
0.000133649
0.00139255
0.000183875
4.79745e-05
0.00129865
0.000212868
-4.13173e-05
0.00119161
0.000231315
-0.000132239
0.00108412
0.000238087
-0.000223818
0.000986942
0.000235056
-0.000316664
0.000907067
0.000225982
-0.00041193
0.000846516
0.000215025
-0.000510406
0.000803348
0.000205483
-0.000612064
0.000773547
0.000199235
-0.00071629
0.000752699
0.000196889
-0.000822404
0.000736957
0.00019815
-0.00093005
0.000723308
0.000202179
-0.00103908
0.000709367
0.000207676
-0.00114899
0.000693015
0.00021283
-0.00125791
0.000672121
0.000215291
-0.00136136
0.000644571
0.000211899
-0.0014512
0.000608519
0.000199265
-0.00151524
0.000563212
0.000173983
-0.00153751
0.000510335
0.000133123
-0.00150045
0.000455164
7.59217e-05
-0.00139033
0.000407635
5.4836e-06
-0.00120052
0.000382728
-7.41918e-05
-0.000943097
0.000394087
-0.000148721
-0.000649981
0.000447349
-0.000204876
-0.000370688
0.000524958
-0.000226758
-0.000154373
0.000579683
-0.000204186
-2.90216e-05
0.00054975
-0.000141451
0.0003373
-4.8507e-05
9.13829e-05
0.000451278
-0.000166641
0.000283185
0.000819094
-0.000324846
0.000454168
0.00100753
-0.000314025
0.000551214
0.00112899
-0.000226427
0.00059024
0.00122794
-0.00014398
0.000593699
0.00131583
-7.97835e-05
0.000575177
0.00138972
-2.84766e-05
0.000541389
0.00144272
1.63961e-05
0.000494811
0.00147029
5.7543e-05
0.000436582
0.00146925
9.63397e-05
0.000367153
0.00143745
0.000133348
0.000287157
0.00137508
0.000167432
0.000198115
0.0012863
0.000195286
0.000103212
0.0011804
0.000213161
6.15791e-06
0.0010698
0.000218868
-9.0171e-05
0.000966714
0.000213732
-0.000185372
0.000880079
0.000202063
-0.000280275
0.000812971
0.000188999
-0.000375756
0.000763496
0.0001785
-0.000472108
0.000727044
0.000172656
-0.000569082
0.000698674
0.000171847
-0.000666531
0.000674626
0.000175522
-0.000764948
0.000652582
0.000182791
-0.000865565
0.000631227
0.000192699
-0.000969961
0.00060963
0.000204132
-0.00107928
0.000586718
0.000215613
-0.00119303
0.000560965
0.000224913
-0.00130793
0.000530279
0.000229188
-0.00141648
0.000492327
0.000224742
-0.00150609
0.000445374
0.000207445
-0.00155923
0.000389658
0.000173816
-0.00155487
0.000329452
0.000121359
-0.00147283
0.000274768
5.08285e-05
-0.00130026
0.000242514
-3.23596e-05
-0.00104183
0.000252347
-0.00011669
-0.000728982
0.000319356
-0.000184855
-0.000419068
0.000433206
-0.000218162
-0.000175218
0.000539191
-0.000203357
-3.50896e-05
0.000551752
-0.00014213
0.000354204
-5.19937e-05
9.9473e-05
0.000510727
-0.000158922
0.000313015
0.000931064
-0.000325512
0.000508421
0.00112877
-0.000316651
0.000623591
0.00123561
-0.000221789
0.000671889
0.0013086
-0.000128956
0.000678059
0.00136664
-5.69789e-05
0.00065806
0.00141111
-1.39342e-06
0.000621767
0.00143703
4.19836e-05
0.000571083
0.00144009
8.08847e-05
0.000507346
0.00141663
0.00011636
0.000430762
0.00136499
0.000149039
0.000342309
0.00128654
0.000176992
0.000244891
0.00118728
0.000196439
0.000143224
0.00107784
0.00020422
4.20279e-05
0.000970781
0.000200216
-5.62332e-05
0.000876832
0.000188143
-0.000151132
0.000801259
0.000173719
-0.00024371
0.000743599
0.00016195
-0.000334734
0.000699142
0.000155378
-0.000424307
0.000662357
0.00015426
-0.000512448
0.000629147
0.000157667
-0.00059979
0.000597447
0.000164521
-0.000687902
0.00056663
0.000174064
-0.000779152
0.000536649
0.000185828
-0.000876251
0.000507388
0.000199342
-0.000981533
0.000478242
0.000213757
-0.00109594
0.000447881
0.000227495
-0.00121778
0.000414138
0.000237972
-0.00134109
0.000374158
0.000241486
-0.00145428
0.000325092
0.000233473
-0.0015393
0.000265539
0.000209132
-0.00157259
0.000198117
0.00016463
-0.00152881
0.000132189
9.88037e-05
-0.00138653
8.51886e-05
1.50446e-05
-0.00114104
8.31072e-05
-7.625e-05
-0.000816355
0.00015234
-0.000157672
-0.000474972
0.000297365
-0.000205542
-0.000198317
0.000463653
-0.000201118
-4.08305e-05
0.000535837
-0.000141572
0.000368456
-5.50828e-05
0.000104288
0.00055135
-0.000144911
0.000334775
0.0010167
-0.000316123
0.000552104
0.00122462
-0.000313178
0.000684206
0.00131751
-0.000214004
0.000741421
0.00136578
-0.000114396
0.000749065
0.00139546
-3.64663e-05
0.000727437
0.00141277
1.99665e-05
0.000687359
0.00141434
6.27716e-05
0.000632275
0.00139675
9.8418e-05
0.000562969
0.00135591
0.00013002
0.000479701
0.00129034
0.00015792
0.000384235
0.00120235
0.000179661
0.000280892
0.0010991
0.000191527
0.000175624
0.000991603
0.000191507
7.35329e-05
0.000891368
0.000181504
-2.30636e-05
0.000806509
0.00016692
-0.000114468
0.000739035
0.000153628
-0.000201807
0.000685622
0.000145317
-0.000285775
0.000640495
0.000142614
-0.000366563
0.000598862
0.000144283
-0.000444599
0.000558343
0.000148839
-0.00052111
0.000518534
0.000155425
-0.000598252
0.000479888
0.000163884
-0.000678909
0.000442871
0.000174435
-0.00076635
0.000407532
0.000187297
-0.000863728
0.00037332
0.000202301
-0.000973319
0.00033895
0.000218522
-0.00109535
0.000302236
0.000233932
-0.00122632
0.000260051
0.000245074
-0.00135704
0.000208721
0.000247095
-0.00147094
0.000145157
0.000234277
-0.00154326
6.93131e-05
0.00020113
-0.00154507
-1.04484e-05
0.000144447
-0.00144596
-7.87297e-05
6.4806e-05
-0.0012305
-0.000102528
-2.98219e-05
-0.000909968
-4.64465e-05
-0.000121748
-0.00054245
0.000115711
-0.000185864
-0.000227675
0.000345202
-0.000196323
-4.67355e-05
0.00049597
-0.000141073
0.000378727
-5.70063e-05
0.000105773
0.000572271
-0.000126694
0.000348048
0.00107339
-0.000298965
0.000583158
0.0012925
-0.000302985
0.000731606
0.00137517
-0.000206111
0.000797562
0.00140139
-0.000101562
0.000806729
0.00140556
-1.92644e-05
0.00078352
0.00139793
3.80515e-05
0.000739849
0.00137887
7.91376e-05
0.000680572
0.00134471
0.00011132
0.000606497
0.00129115
0.000138841
0.000518075
0.00121676
0.000161999
0.000417916
0.0011244
0.000178103
0.00031153
0.00102159
0.000183895
0.000205661
0.00091878
0.000178692
0.000105397
0.000825711
0.000165922
1.25019e-05
0.000747763
0.00015164
-7.38474e-05
0.000684422
0.000140963
-0.00015493
0.000630959
0.000135747
-0.000231464
0.000582016
0.000135013
-0.000303783
0.000534365
0.000136817
-0.000372589
0.000487282
0.000139868
-0.000439368
0.000441383
0.000143929
-0.000506404
0.00039744
0.000149485
-0.000576608
0.000355815
0.00015726
-0.000653325
0.000316316
0.000167932
-0.000740063
0.000278232
0.000181827
-0.000840005
0.000240259
0.000198632
-0.000955103
0.000200301
0.000217033
-0.00108454
0.000155244
0.000234242
-0.00122249
0.000100969
0.000245707
-0.00135586
3.3234e-05
0.000245293
-0.00146271
-5.01281e-05
0.000226284
-0.00151068
-0.000145247
0.00018277
-0.00146497
-0.000237213
0.000112772
-0.00129535
-0.000292446
2.03052e-05
-0.000999062
-0.000264534
-7.82045e-05
-0.000619726
-0.000106582
-0.000157043
-0.000266213
0.00017628
-0.00018459
-5.32139e-05
0.00042327
-0.0001403
0.000381339
-5.58263e-05
0.000104175
0.000574407
-0.000106311
0.000352918
0.00110086
-0.000276213
0.000602118
0.00133225
-0.000288949
0.000765404
0.00140891
-0.000197028
0.000840688
0.00141708
-9.0978e-05
0.000851946
0.00139932
-5.01894e-06
0.000827732
0.00137012
5.20161e-05
0.000781125
0.00133386
9.16162e-05
0.000718545
0.00128679
0.000120497
0.000641069
0.00122445
0.000144177
0.000549522
0.00114537
0.00016294
0.000447186
0.00105238
0.000174362
0.000340351
0.000952649
0.000175774
0.000236089
0.000855411
0.000167631
0.000139123
0.000768395
0.000154281
5.06337e-05
0.000694741
0.000141512
-3.05986e-05
0.000632462
0.000133192
-0.000105974
0.000576738
0.000129596
-0.000176224
0.000523462
0.000128804
-0.000241759
0.000470989
0.000128911
-0.000303372
0.000419672
0.000129222
-0.000362551
0.000370433
0.000130129
-0.000421442
0.000323821
0.00013251
-0.000482719
0.000279775
0.000137318
-0.000549464
0.000237735
0.000145326
-0.000625089
0.000196765
0.000157091
-0.000713099
0.000155507
0.000172763
-0.000816521
0.000111977
0.000191745
-0.000936751
6.32513e-05
0.000212224
-0.0010715
5.14923e-06
0.000230569
-0.00121217
-6.72995e-05
0.000241202
-0.0013407
-0.000158336
0.000236742
-0.00142767
-0.000267782
0.000209503
-0.00143486
-0.000383922
0.0001539
-0.00132204
-0.00047592
7.06516e-05
-0.00106804
-0.00048906
-2.9478e-05
-0.000697608
-0.000358246
-0.000118764
-0.000312928
-4.54897e-05
-0.000162911
-6.00336e-05
0.000307262
-0.000136886
0.000370194
-4.88885e-05
0.000100141
0.00055991
-8.56443e-05
0.000350353
0.00110049
-0.000249843
0.000609739
0.00134462
-0.000271756
0.000786494
0.00141992
-0.000187758
0.000871351
0.00141492
-8.26954e-05
0.000886591
0.00137938
4.70091e-06
0.000862092
0.00133212
6.24996e-05
0.000813479
0.00128169
0.000100784
0.000748732
0.00122468
0.000126864
0.000669495
0.00115672
0.000146964
0.000576895
0.00107599
0.000161978
0.000474642
0.000984858
0.000169771
0.00036933
0.000889596
0.000168364
0.00026793
0.000797865
0.000158946
0.000174685
0.000715539
0.000146101
9.02702e-05
0.000644214
0.000134942
1.32623e-05
0.000581437
0.000128034
-5.77765e-05
0.000523169
0.000124608
-0.000123509
0.000466689
0.000122506
-0.000184331
0.000411524
0.000120286
-0.000241004
0.000358447
0.000117899
-0.000294903
0.000308183
0.000116148
-0.000347933
0.00026082
0.00011603
-0.000402415
0.000215841
0.000118416
-0.00046102
0.000172357
0.000123983
-0.000526795
0.000129242
0.000133298
-0.000603109
8.50811e-05
0.00014674
-0.000693392
3.79617e-05
0.000164299
-0.000800306
-1.49349e-05
0.0001851
-0.000924345
-7.76541e-05
0.000206842
-0.00106112
-0.000155507
0.000224985
-0.00119806
-0.000254179
0.000232781
-0.00131097
-0.000376519
0.000221648
-0.00136256
-0.00051588
0.000183544
-0.00130702
-0.000646138
0.000114679
-0.00110644
-0.000710534
2.08908e-05
-0.000763959
-0.00062638
-7.43425e-05
-0.000362741
-0.00031519
-0.000131517
-6.65918e-05
0.000138194
-0.000127081
0.000337143
-3.35403e-05
9.43459e-05
0.000531492
-6.59277e-05
0.000341484
0.00107474
-0.000221382
0.000607403
0.00133143
-0.000252736
0.000796422
0.00140979
-0.000178891
0.000891204
0.00139696
-7.68151e-05
0.000912012
0.00134778
1.07979e-05
0.000888378
0.00128614
6.96194e-05
0.000839091
0.00122402
0.000106957
0.000773479
0.0011594
0.000130886
0.000694044
0.00108811
0.000148048
0.000602239
0.00100782
0.00015998
0.000501882
0.00092009
0.000165125
0.000399392
0.000829921
0.000162165
0.000301397
0.000743409
0.00015245
0.000211612
0.000664774
0.00014055
0.000130419
0.000594824
0.000130584
5.63712e-05
0.000531337
0.000124147
-1.18363e-05
0.000471381
0.000119996
-7.47666e-05
0.000413428
0.000116191
-0.000132716
0.000357604
0.000111869
-0.000186358
0.000304641
0.000107449
-0.000236913
0.000254836
0.000103903
-0.000286041
0.000207813
0.000102136
-0.000335716
0.0001627
0.000102815
-0.000388183
0.000118389
0.000106435
-0.000446029
7.36531e-05
0.000113435
-0.000512228
2.70269e-05
0.000124253
-0.000590087
-2.33917e-05
0.000139213
-0.000682899
-8.03314e-05
0.000158208
-0.000792906
-0.000147768
0.000180122
-0.000919175
-0.000231309
0.000202071
-0.00105436
-0.000337561
0.000218562
-0.0011803
-0.000471968
0.000221391
-0.00126416
-0.00063293
0.000200911
-0.00125879
-0.000800959
0.00014945
-0.00111462
-0.000922485
6.77804e-05
-0.000811353
-0.000901172
-2.84715e-05
-0.000409055
-0.000622238
-9.52507e-05
-7.34343e-05
-9.01082e-05
-0.000107319
0.00027361
-9.90155e-06
8.74153e-05
0.000492245
-4.81683e-05
0.000327763
0.00102708
-0.000192689
0.000596541
0.00129501
-0.000232352
0.000796264
0.00138027
-0.000170208
0.00090184
0.00136468
-7.33028e-05
0.000929736
0.00130606
1.3821e-05
0.000908792
0.00123367
7.34127e-05
0.000860091
0.00116218
0.00011054
0.000794788
0.00109166
0.000133041
0.000716485
0.00101848
0.000147927
0.00062695
0.000939886
0.000157469
0.00052982
0.000856417
0.000160803
0.000431017
0.000771638
0.000157086
0.000336508
0.000690068
0.00014785
0.000249654
0.000614746
0.000136882
0.000170731
0.000546108
0.000127638
9.84637e-05
0.000482545
0.000121059
3.17786e-05
0.00042221
0.000115855
-2.96978e-05
0.000364394
0.000110511
-8.61599e-05
0.000309415
0.000104652
-0.000138175
0.000257715
9.89408e-05
-0.000186806
0.000209131
9.43366e-05
-0.000233508
0.000162935
9.15802e-05
-0.000279974
0.000118037
9.11284e-05
-0.000328082
7.32193e-05
9.32782e-05
-0.000379969
2.72342e-05
9.83056e-05
-0.000438116
-2.1408e-05
0.000106582
-0.000505472
-7.45874e-05
0.000118551
-0.000585363
-0.000135031
0.000134592
-0.000680956
-0.000206787
0.000154612
-0.000793882
-0.000295637
0.000177254
-0.000921272
-0.00040903
0.000198858
-0.00105108
-0.000554641
0.000212478
-0.00115642
-0.000735586
0.000207997
-0.00119229
-0.000939743
0.000174659
-0.00110176
-0.00112052
0.000107501
-0.000842972
-0.00117556
1.56077e-05
-0.000450643
-0.000955133
-5.94339e-05
-8.32281e-05
-0.000377342
-8.01811e-05
0.00017198
1.84021e-05
7.99046e-05
0.000445244
-3.29033e-05
0.000310484
0.000961469
-0.000164971
0.000578719
0.00123813
-0.000211363
0.000787579
0.00133333
-0.000161919
0.000904589
0.00131966
-7.19917e-05
0.000941089
0.001256
1.35604e-05
0.000924747
0.00117601
7.40053e-05
0.000878096
0.00109715
0.000111682
0.000814238
0.00102195
0.000133574
0.00073814
0.000947668
0.000146914
0.000651975
0.000871321
0.00015473
0.000559015
0.000792437
0.00015694
0.000464414
0.000713132
0.000153107
0.000373396
0.000636474
0.000144611
0.000288987
0.000564576
0.000134579
0.000211562
0.000497779
0.000125754
0.000140176
0.000435147
0.000118784
7.40731e-05
0.000375719
0.000112594
1.30745e-05
0.000319288
0.000106105
-4.29154e-05
0.000266133
9.9272e-05
-9.42901e-05
0.000216245
9.28443e-05
-0.000142043
0.000169229
8.76551e-05
-0.000187441
0.000124031
8.43017e-05
-0.000231964
7.94819e-05
8.3078e-05
-0.000277262
3.43979e-05
8.41194e-05
-0.000324996
-1.25989e-05
8.75671e-05
-0.000377217
-6.28163e-05
9.36293e-05
-0.000436373
-0.000118151
0.00010272
-0.000505484
-0.000181387
0.000115466
-0.000588094
-0.00025666
0.000132483
-0.000687513
-0.000350023
0.000153805
-0.00080453
-0.000469736
0.000177723
-0.000932813
-0.000625525
0.000199167
-0.001052
-0.00082491
0.00020851
-0.00112109
-0.00106333
0.000192678
-0.0010792
-0.00130335
0.000140937
-0.000868165
-0.00144273
5.61339e-05
-0.000492775
-0.00130217
-2.83564e-05
-0.000100944
-0.000713471
-5.57015e-05
3.0393e-05
4.06431e-05
7.22482e-05
0.000393394
-2.03979e-05
0.000290786
0.00088211
-0.000139179
0.000555421
0.001164
-0.000190499
0.000771645
0.00127101
-0.000153899
0.000900406
0.00126334
-7.24419e-05
0.000947078
0.00119885
1.04738e-05
0.000937306
0.00111417
7.16107e-05
0.000894287
0.0010297