/*--------------------------------*- C++ -*----------------------------------*\
| =========                 |                                                 |
| \\      /  F ield         | OpenFOAM: The Open Source CFD Toolbox           |
|  \\    /   O peration     | Version:  v1806                                 |
|   \\  /    A nd           | Web:      www.OpenFOAM.com                      |
|    \\/     M anipulation  |                                                 |
\*---------------------------------------------------------------------------*/
FoamFile
{
    version     2.0;
    format      ascii;
    class       volVectorField;
    location    "0.0915";
    object      U;
}
// * * * * * * * * * * * * * * * * * * * * * * * * * * * * * * * * * * * * * //

dimensions      [0 1 -1 0 0 0 0];


internalField   nonuniform List<vector> 
64000
(
(-0.0102199 -0.011937 -0.00830854)
(0.0153311 -0.0115928 -0.00584385)
(0.0216547 -0.0039339 0.000302819)
(0.0264071 -0.00330964 0.00110104)
(0.0277058 -0.00233237 0.00143579)
(0.0281329 -0.00274858 0.00201372)
(0.0277512 -0.00375117 0.00219524)
(0.024629 -0.00412268 0.00268313)
(0.0234459 -0.0050717 0.0040282)
(0.016671 -0.0048232 0.00376759)
(0.0109286 -0.00530286 0.00529082)
(-0.00102451 -0.00786762 0.00688014)
(-0.0183908 -0.0124492 0.00588733)
(-0.0429746 -0.0174214 0.00382014)
(-0.070595 -0.0180071 0.00470452)
(-0.107047 -0.0171747 0.00237947)
(-0.134197 -7.20469e-05 0.00141452)
(-0.179411 -0.00450123 -0.00288966)
(-0.176982 -0.00951076 0.00475306)
(-0.238433 -0.0270655 -0.0142213)
(-0.209449 -0.0207654 -0.0208376)
(-0.104559 -0.022674 -0.0380878)
(-0.109404 -0.00752517 -0.0251243)
(-0.107894 -0.00273467 -0.0371268)
(-0.126094 0.00336929 -0.0481904)
(-0.120322 0.011518 -0.057889)
(-0.108834 0.021635 -0.062529)
(-0.0723774 0.0323257 -0.0588818)
(-0.03817 0.0393994 -0.0542478)
(0.00554475 0.0508819 -0.0400013)
(0.050271 0.0483618 -0.0320487)
(0.0868344 0.0385108 -0.0249628)
(0.103096 0.0282233 -0.0126406)
(0.100157 0.0145317 -0.00525711)
(0.0865758 0.00593076 0.000956175)
(0.0683501 -0.00205488 0.00355467)
(0.049501 -0.00609589 0.00456721)
(0.0295523 -0.00549674 0.00540456)
(0.0157191 -0.00404178 0.0058416)
(0.0020644 -0.00263249 0.00376903)
(-0.00730817 0.0024106 -0.00471262)
(0.00884202 -0.01642 -0.00445908)
(0.0242462 -0.0106137 -0.00195555)
(0.0349035 -0.00699697 -0.000965827)
(0.0406288 -0.00239099 -0.00143968)
(0.0407938 -0.000529735 -0.00176454)
(0.0396435 0.00341412 -0.00328236)
(0.0326762 0.00496785 -0.00292453)
(0.0255523 0.010286 -0.00731205)
(0.00835351 0.0161795 -0.0039848)
(-0.015059 0.0247225 -0.00830075)
(-0.0521337 0.0322619 0.000835046)
(-0.0987067 0.0424611 -0.00404438)
(-0.151152 0.0619443 -0.00680688)
(-0.209091 0.075375 -0.0114189)
(-0.267098 0.0843126 -0.018242)
(-0.344097 0.0928956 -0.0439659)
(-0.449744 0.0949602 -0.0588845)
(-0.495145 0.101257 -0.0764404)
(-0.581955 0.100857 -0.0976933)
(-0.535352 0.128662 -0.0944146)
(-0.401988 0.143732 -0.125565)
(-0.38845 0.189346 -0.135167)
(-0.373294 0.213065 -0.145453)
(-0.364768 0.237555 -0.157294)
(-0.325915 0.258874 -0.1636)
(-0.277905 0.279808 -0.165051)
(-0.205593 0.295062 -0.15345)
(-0.130504 0.301289 -0.133675)
(-0.0572828 0.305183 -0.109985)
(0.00644664 0.290058 -0.0769141)
(0.0698042 0.259393 -0.0466647)
(0.1076 0.211668 -0.0390562)
(0.120048 0.159868 -0.0262576)
(0.115189 0.109469 -0.0129042)
(0.0967172 0.0697789 -0.00542352)
(0.0775566 0.0412859 -0.00106992)
(0.0532829 0.0264671 -8.75709e-05)
(0.0318328 0.0166175 0.00134744)
(0.0077082 0.00818178 0.00139477)
(-0.000460515 -0.00469812 0.00154705)
(0.0153023 -0.0222303 -0.00200499)
(0.0323007 -0.0170204 -0.00305479)
(0.0431624 -0.00496022 -0.00434456)
(0.0454333 0.00453234 -0.00596034)
(0.0434494 0.0156564 -0.00727885)
(0.036382 0.0306536 -0.00835514)
(0.0221317 0.0447885 -0.00987262)
(0.00656748 0.0689049 -0.00175073)
(-0.0235403 0.0899278 -0.00497828)
(-0.0613615 0.116553 -0.00816955)
(-0.114071 0.14889 -0.0132222)
(-0.168587 0.18249 -0.0178312)
(-0.246813 0.211364 -0.0324741)
(-0.342032 0.231551 -0.0358854)
(-0.438497 0.245245 -0.0424545)
(-0.521925 0.250371 -0.0592437)
(-0.610271 0.27003 -0.0781126)
(-0.650583 0.30065 -0.095916)
(-0.722392 0.335691 -0.115971)
(-0.661682 0.373853 -0.104807)
(-0.501717 0.404039 -0.123878)
(-0.464747 0.460971 -0.125068)
(-0.438372 0.491351 -0.123396)
(-0.420852 0.523443 -0.126493)
(-0.377681 0.544788 -0.125064)
(-0.329165 0.559203 -0.120447)
(-0.262808 0.562183 -0.105157)
(-0.197065 0.552105 -0.0829206)
(-0.130886 0.531779 -0.0595112)
(-0.0756318 0.499862 -0.0400346)
(-0.0309231 0.452248 -0.0279049)
(0.00237928 0.379754 -0.0174194)
(0.0246754 0.307032 -0.00877291)
(0.0384256 0.227655 -0.0107098)
(0.0448907 0.163011 -0.0109546)
(0.0456577 0.115678 -0.00734065)
(0.0370718 0.0787967 -0.00513694)
(0.0264671 0.0526546 -0.00151242)
(0.00767354 0.0264144 0.00118336)
(0.000837315 -0.00881808 0.00192813)
(0.0176762 -0.0233952 -0.00130191)
(0.038503 -0.0107577 -0.00388685)
(0.0461336 0.00612313 -0.00709767)
(0.0442418 0.0300681 -0.00782183)
(0.0403497 0.0544421 -0.00933245)
(0.027743 0.0896674 -0.00911557)
(0.00941807 0.122464 -0.00589603)
(-0.0174293 0.167161 -0.0106194)
(-0.0632145 0.207094 -0.0130197)
(-0.109027 0.251214 -0.0174085)
(-0.173671 0.288698 -0.0250393)
(-0.256793 0.31778 -0.0275953)
(-0.34732 0.334694 -0.0292727)
(-0.433006 0.35595 -0.0320587)
(-0.512342 0.379227 -0.0366171)
(-0.580042 0.40978 -0.051872)
(-0.655281 0.438647 -0.061971)
(-0.681705 0.480908 -0.0715786)
(-0.739844 0.526371 -0.0779171)
(-0.668233 0.559499 -0.0463947)
(-0.487215 0.580774 -0.0456326)
(-0.43611 0.622872 -0.0398211)
(-0.40988 0.62908 -0.029474)
(-0.393366 0.642294 -0.027442)
(-0.359296 0.642431 -0.0225336)
(-0.322465 0.635073 -0.0190622)
(-0.272763 0.616069 -0.0113659)
(-0.224625 0.590277 0.000619801)
(-0.178803 0.55728 0.007848)
(-0.147815 0.516144 0.0127227)
(-0.122231 0.471308 0.0114411)
(-0.0983386 0.411829 0.00555661)
(-0.0758097 0.349521 -0.00241944)
(-0.0522133 0.269975 -0.00594474)
(-0.0220656 0.202494 -0.0107038)
(-0.00111347 0.147853 -0.0109473)
(0.00782575 0.111668 -0.00819546)
(0.01614 0.0786279 -0.00368548)
(0.00606381 0.0388947 0.000913632)
(0.00106722 -0.00915829 0.000616705)
(0.0234551 -0.0125591 -0.00408973)
(0.0458238 0.0042743 -0.00790814)
(0.0546948 0.0383841 -0.00884173)
(0.0522084 0.0755394 -0.00853771)
(0.046446 0.121249 -0.0157122)
(0.0285134 0.175771 -0.013639)
(0.000679328 0.235463 -0.00659114)
(-0.03214 0.29165 -0.00808208)
(-0.0851853 0.339094 -0.0102573)
(-0.144875 0.376813 -0.0130987)
(-0.223024 0.397122 -0.0157307)
(-0.297364 0.419807 -0.0164405)
(-0.372145 0.444444 -0.0216062)
(-0.444053 0.474571 -0.0211625)
(-0.511966 0.507282 -0.0217542)
(-0.566859 0.535698 -0.0259878)
(-0.62341 0.570673 -0.0238419)
(-0.630202 0.618321 -0.0180982)
(-0.673482 0.665438 -0.0261953)
(-0.603232 0.693029 0.00544909)
(-0.415937 0.698775 0.0168281)
(-0.360468 0.711576 0.0282601)
(-0.343701 0.684204 0.036594)
(-0.339278 0.667499 0.0366441)
(-0.324459 0.640968 0.0423945)
(-0.307565 0.609137 0.0435714)
(-0.276436 0.572083 0.0475476)
(-0.248962 0.530866 0.0407417)
(-0.223207 0.490885 0.0324163)
(-0.203453 0.445605 0.0222418)
(-0.193295 0.412273 0.0150947)
(-0.184502 0.37433 0.00758081)
(-0.177371 0.343433 -0.00443693)
(-0.15416 0.279227 -0.0140273)
(-0.104658 0.209884 -0.0148766)
(-0.0531411 0.161969 -0.0140726)
(-0.017519 0.13159 -0.0118916)
(0.00251944 0.0975397 -0.00641254)
(0.00319434 0.0489034 0.000906989)
(0.00583532 -0.00355588 -0.000106503)
(0.0284651 0.00262216 -0.00688218)
(0.0597347 0.0293709 -0.0066141)
(0.0715318 0.0811431 -0.0102121)
(0.0661756 0.138915 -0.0152007)
(0.0626758 0.202344 -0.0189613)
(0.0464908 0.277444 -0.0142028)
(0.0129912 0.332161 -0.00570798)
(-0.0394585 0.377448 -0.00577815)
(-0.109217 0.411778 -0.00800325)
(-0.178546 0.441678 -0.0101364)
(-0.243954 0.469006 -0.0103087)
(-0.302959 0.502517 -0.00861379)
(-0.361461 0.530535 -0.00556804)
(-0.41093 0.560462 3.06819e-05)
(-0.463465 0.588976 0.00579339)
(-0.495621 0.61913 0.0089375)
(-0.529954 0.650174 0.00856881)
(-0.530604 0.699013 0.0102405)
(-0.56082 0.734563 0.0095115)
(-0.494242 0.758722 0.0394695)
(-0.324481 0.710048 0.0533571)
(-0.285574 0.692177 0.0638577)
(-0.290692 0.633787 0.0752318)
(-0.300947 0.593625 0.0769886)
(-0.305149 0.550627 0.0763814)
(-0.304257 0.508076 0.0736416)
(-0.293292 0.465819 0.0671323)
(-0.279139 0.418712 0.065036)
(-0.267463 0.379945 0.0436117)
(-0.257801 0.336235 0.0320972)
(-0.24667 0.305446 0.0169643)
(-0.232425 0.279226 0.00624842)
(-0.238853 0.267416 -0.00552987)
(-0.241692 0.243093 -0.0172193)
(-0.176004 0.194187 -0.0149481)
(-0.0937629 0.162994 -0.0156713)
(-0.0410581 0.137201 -0.0122487)
(-0.00510452 0.105589 -0.00719884)
(0.00224399 0.0526612 0.0014342)
(0.00643484 0.00202746 -0.00113435)
(0.0378432 0.0159831 -0.0102407)
(0.080724 0.0565744 -0.0105352)
(0.105073 0.111825 -0.0127617)
(0.100218 0.177999 -0.0179105)
(0.0974238 0.250825 -0.0205032)
(0.0598785 0.319292 -0.0140164)
(-0.0035929 0.34745 0.000913146)
(-0.0551371 0.391408 -0.00404142)
(-0.112357 0.429155 -0.00464844)
(-0.160941 0.473862 -0.00464802)
(-0.211741 0.516219 -0.00270011)
(-0.258092 0.556358 0.000794831)
(-0.305212 0.589958 0.00576802)
(-0.344763 0.623261 0.0140111)
(-0.379919 0.648155 0.0193108)
(-0.401912 0.6761 0.0256347)
(-0.420488 0.688135 0.0289191)
(-0.408011 0.714016 0.0273949)
(-0.428453 0.726501 0.017812)
(-0.422697 0.746684 0.0354512)
(-0.286739 0.639359 0.056567)
(-0.234173 0.591241 0.0610911)
(-0.25658 0.528245 0.0725621)
(-0.277493 0.48646 0.0723426)
(-0.298626 0.447856 0.0713761)
(-0.31372 0.412892 0.0673634)
(-0.319452 0.378116 0.0598713)
(-0.318416 0.34111 0.046477)
(-0.318859 0.306631 0.030348)
(-0.31568 0.273398 0.0169161)
(-0.307494 0.24524 0.00401683)
(-0.292699 0.224792 -0.00406369)
(-0.287144 0.20929 -0.011458)
(-0.289997 0.219767 -0.0199461)
(-0.228028 0.194724 -0.0215149)
(-0.128384 0.168976 -0.0223924)
(-0.0563822 0.14842 -0.0172962)
(-0.0102841 0.114933 -0.0111479)
(0.00220214 0.0578928 -0.000315752)
(0.00722945 0.00833531 -0.00385239)
(0.0454244 0.0347413 -0.0139499)
(0.0993011 0.0837559 -0.0139574)
(0.125441 0.139879 -0.0118401)
(0.128133 0.199318 -0.0127932)
(0.117866 0.272533 -0.01408)
(0.0574638 0.305927 -0.00406317)
(0.00622865 0.352172 0.00415142)
(-0.024908 0.398425 -0.000188127)
(-0.0749405 0.452593 0.00141281)
(-0.11699 0.497565 0.00184133)
(-0.159944 0.53582 0.00844312)
(-0.196229 0.569972 0.0141282)
(-0.228231 0.59744 0.0224737)
(-0.254984 0.624112 0.0268801)
(-0.284127 0.639524 0.0313033)
(-0.301783 0.651992 0.0343008)
(-0.319874 0.649863 0.0336516)
(-0.31684 0.646272 0.030933)
(-0.329668 0.620177 0.0154001)
(-0.371501 0.626559 0.0174913)
(-0.288759 0.544101 0.0369643)
(-0.220964 0.463855 0.0396611)
(-0.244323 0.422167 0.0507735)
(-0.273111 0.387091 0.0539448)
(-0.304606 0.361704 0.0549898)
(-0.329928 0.336254 0.0557655)
(-0.347217 0.309952 0.0481196)
(-0.357529 0.282377 0.0382608)
(-0.364596 0.252029 0.0159068)
(-0.365771 0.220451 0.00676338)
(-0.355882 0.195572 -0.0026681)
(-0.340637 0.182814 -0.00998533)
(-0.32192 0.172919 -0.0139312)
(-0.328425 0.194109 -0.0233772)
(-0.27789 0.198343 -0.0214563)
(-0.162548 0.174586 -0.0230338)
(-0.074988 0.157893 -0.0178728)
(-0.015455 0.122386 -0.0107383)
(0.00317924 0.0619412 0.000496268)
(0.00581818 0.0220058 -0.00663715)
(0.0538585 0.0662839 -0.0179695)
(0.119713 0.122638 -0.0194909)
(0.152104 0.178609 -0.013892)
(0.160572 0.239768 -0.014317)
(0.131749 0.293695 -0.0142344)
(0.0762703 0.326611 -0.00434582)
(0.0356769 0.385479 0.00337177)
(0.00894108 0.42315 0.00965071)
(-0.0250709 0.464454 0.00914791)
(-0.0646802 0.501546 0.0134417)
(-0.096353 0.529866 0.0187736)
(-0.122474 0.553053 0.026457)
(-0.147433 0.56713 0.0327618)
(-0.170775 0.572725 0.0351179)
(-0.196622 0.569631 0.0356671)
(-0.218475 0.56425 0.0344236)
(-0.245172 0.5475 0.0297682)
(-0.265801 0.533645 0.0237616)
(-0.280275 0.498302 0.00994144)
(-0.331809 0.488619 -0.000558905)
(-0.311963 0.457933 0.011432)
(-0.240412 0.36011 0.0206431)
(-0.242925 0.342093 0.0270287)
(-0.277121 0.317301 0.0346492)
(-0.312854 0.302192 0.0386657)
(-0.347602 0.284517 0.0437769)
(-0.37247 0.262702 0.0392585)
(-0.392856 0.239359 0.0234473)
(-0.409734 0.206235 0.00733401)
(-0.41148 0.181226 -0.00243366)
(-0.398146 0.158088 -0.00855639)
(-0.382474 0.144762 -0.0135795)
(-0.353725 0.145074 -0.0225802)
(-0.342662 0.15802 -0.0260656)
(-0.307944 0.193756 -0.0301887)
(-0.198249 0.177822 -0.0267805)
(-0.0902873 0.167759 -0.0250374)
(-0.020531 0.132896 -0.0139743)
(0.00410592 0.0686561 -0.00171617)
(0.00773384 0.0379358 -0.00922857)
(0.0629589 0.104165 -0.0255651)
(0.138452 0.164685 -0.0245021)
(0.177563 0.218679 -0.0151036)
(0.181128 0.273571 -0.0158133)
(0.150632 0.307261 -0.0151464)
(0.107554 0.352978 -0.00556914)
(0.0751003 0.400356 0.00607724)
(0.0450393 0.439397 0.0131723)
(0.0201259 0.466016 0.0239927)
(-0.00572962 0.489942 0.0214262)
(-0.035831 0.50346 0.0316545)
(-0.0592248 0.511569 0.0370407)
(-0.0823896 0.503862 0.0426405)
(-0.10533 0.489539 0.0429505)
(-0.132463 0.466769 0.039777)
(-0.159909 0.444392 0.0343859)
(-0.191003 0.418391 0.0267097)
(-0.222798 0.401564 0.017924)
(-0.252234 0.382237 0.00419422)
(-0.304356 0.366054 -0.00901875)
(-0.336526 0.365687 -0.0067659)
(-0.272139 0.297136 0.0097617)
(-0.240708 0.287998 0.0120815)
(-0.278147 0.270249 0.0231712)
(-0.31453 0.262191 0.029897)
(-0.35503 0.243516 0.0393449)
(-0.387554 0.227252 0.0326063)
(-0.416598 0.197601 0.0241475)
(-0.431381 0.170912 0.00816595)
(-0.436609 0.142831 0.00920359)
(-0.43061 0.1205 0.0161268)
(-0.410588 0.101215 0.0124189)
(-0.384067 0.102572 0.00830086)
(-0.363373 0.115738 -0.0149299)
(-0.331138 0.163856 -0.0257987)
(-0.22868 0.174955 -0.0258942)
(-0.108415 0.16791 -0.0217843)
(-0.0264408 0.140653 -0.0131757)
(0.00502809 0.0730881 -0.000568096)
(0.00881251 0.0615952 -0.0118563)
(0.0720047 0.148173 -0.0318475)
(0.156499 0.212166 -0.031096)
(0.202047 0.261766 -0.0191773)
(0.20103 0.301037 -0.0118867)
(0.175256 0.334056 -0.0154161)
(0.147608 0.374511 -0.00475658)
(0.116815 0.412467 0.00269713)
(0.0918931 0.441731 0.0107365)
(0.0640694 0.463542 0.0266901)
(0.0360538 0.470249 0.0355266)
(0.0176836 0.470953 0.0457297)
(-0.0046901 0.459484 0.047206)
(-0.0330326 0.436901 0.049104)
(-0.0604756 0.409698 0.0477994)
(-0.0920744 0.377585 0.0415245)
(-0.12484 0.348611 0.033039)
(-0.16085 0.321435 0.0238036)
(-0.195731 0.30455 0.0150224)
(-0.233786 0.292024 0.0021967)
(-0.28378 0.28112 -0.00818219)
(-0.331391 0.2851 -0.0114252)
(-0.277747 0.264691 0.00269483)
(-0.234617 0.2521 0.00373018)
(-0.266816 0.239463 0.0162221)
(-0.305964 0.227532 0.0244388)
(-0.351893 0.212765 0.0334981)
(-0.388703 0.190324 0.0308754)
(-0.421605 0.164755 0.019521)
(-0.444553 0.134755 0.0288424)
(-0.458281 0.099941 0.0305394)
(-0.458903 0.0715034 0.0165702)
(-0.443971 0.0556288 0.0118952)
(-0.409502 0.0527563 0.00301613)
(-0.37098 0.0669837 -0.00193057)
(-0.339574 0.115517 -0.0243139)
(-0.253122 0.154675 -0.029047)
(-0.125619 0.165038 -0.0240342)
(-0.0296545 0.145357 -0.0152396)
(0.00439163 0.0786073 -0.00223912)
(0.00998934 0.0802747 -0.0125691)
(0.0780058 0.187858 -0.0358413)
(0.170492 0.254776 -0.0344286)
(0.215822 0.293721 -0.0183332)
(0.219953 0.321855 -0.0106138)
(0.204516 0.354444 -0.00813463)
(0.182302 0.386554 -0.00699298)
(0.156542 0.411339 0.00572213)
(0.130105 0.432208 0.0112792)
(0.105997 0.441346 0.022692)
(0.0833674 0.445493 0.0343629)
(0.0550981 0.435215 0.0502663)
(0.0286977 0.411535 0.0546393)
(0.00493156 0.377103 0.0549736)
(-0.0256753 0.344302 0.0482637)
(-0.0614437 0.311972 0.0395419)
(-0.0984642 0.286061 0.0283951)
(-0.135919 0.263614 0.0188368)
(-0.173524 0.254247 0.0102351)
(-0.216718 0.243746 -0.000385238)
(-0.26408 0.239206 -0.00773673)
(-0.309025 0.239951 -0.0117023)
(-0.262689 0.240965 -0.000130127)
(-0.217199 0.226039 -0.00104156)
(-0.247248 0.210574 0.0112724)
(-0.283843 0.195039 0.0201999)
(-0.332522 0.17862 0.028189)
(-0.372932 0.1556 0.0221175)
(-0.410162 0.128236 0.0374352)
(-0.442507 0.0930308 0.044298)
(-0.463676 0.0583963 0.0374237)
(-0.465445 0.0322215 0.0479586)
(-0.457579 0.0101488 0.0381657)
(-0.437528 0.00636541 0.0349905)
(-0.398279 0.0152795 0.0245699)
(-0.354548 0.0613834 0.00282319)
(-0.266286 0.117055 -0.0259517)
(-0.139791 0.152398 -0.0256547)
(-0.0358714 0.143747 -0.014809)
(0.00548818 0.0814521 -0.00219005)
(0.010616 0.102186 -0.0115942)
(0.0831854 0.229391 -0.0381211)
(0.176816 0.297216 -0.0373247)
(0.227502 0.326627 -0.0191384)
(0.24234 0.349168 -0.00627449)
(0.235011 0.373049 -0.000695586)
(0.214895 0.39595 0.0034759)
(0.190841 0.410918 0.00438269)
(0.170141 0.421002 0.0139521)
(0.147111 0.423534 0.0248394)
(0.120713 0.414842 0.0340816)
(0.0940553 0.396475 0.0411279)
(0.0613348 0.36901 0.053845)
(0.0287183 0.333996 0.054459)
(0.000248446 0.293583 0.0483824)
(-0.0355257 0.266318 0.0351786)
(-0.075606 0.24328 0.0227817)
(-0.112234 0.226906 0.0140958)
(-0.150849 0.221649 0.00550047)
(-0.195211 0.212901 -0.000844225)
(-0.237231 0.213256 -0.0068492)
(-0.273928 0.210146 -0.00944815)
(-0.231216 0.227617 -0.00147697)
(-0.19346 0.205671 -0.00364565)
(-0.217669 0.184094 0.00753466)
(-0.25304 0.162976 0.0156962)
(-0.300394 0.140069 0.020369)
(-0.343582 0.117672 0.0323532)
(-0.388533 0.0851971 0.0447622)
(-0.426995 0.0517718 0.0456665)
(-0.449761 0.0205903 0.0661936)
(-0.47264 -0.0169715 0.0474237)
(-0.478639 -0.0560468 0.0339616)
(-0.461929 -0.0766712 0.0116166)
(-0.420255 -0.0646713 0.0039084)
(-0.373296 -0.0180569 0.00721654)
(-0.287101 0.0661738 -0.00310878)
(-0.154944 0.12347 -0.0315245)
(-0.0408893 0.137849 -0.0146634)
(0.0053859 0.0849341 -0.00372196)
(0.0102938 0.108328 -0.0107569)
(0.0819012 0.252097 -0.0404561)
(0.17727 0.322928 -0.0411724)
(0.233642 0.349669 -0.0221711)
(0.259274 0.363983 -0.00395226)
(0.259524 0.376374 0.0056358)
(0.2418 0.388624 0.0118117)
(0.219618 0.397577 0.0150722)
(0.199719 0.403237 0.0181915)
(0.17739 0.398203 0.0223377)
(0.153928 0.384018 0.0277679)
(0.122396 0.360637 0.0389998)
(0.0886271 0.328851 0.0404797)
(0.0511785 0.296742 0.0483488)
(0.0195115 0.262484 0.0458894)
(-0.011255 0.231826 0.0294169)
(-0.0525804 0.214722 0.0176277)
(-0.0857406 0.200931 0.0101814)
(-0.124287 0.19632 0.00259319)
(-0.16459 0.190633 -0.000626354)
(-0.202617 0.189191 -0.00523527)
(-0.221121 0.190412 -0.00460849)
(-0.186915 0.218898 -0.000668996)
(-0.168692 0.188066 -0.00182901)
(-0.189202 0.158253 0.00400254)
(-0.219483 0.128151 0.0115139)
(-0.261553 0.105128 0.0155027)
(-0.304533 0.0760891 0.0335244)
(-0.35116 0.0468117 0.040513)
(-0.387806 0.0176663 0.0627221)
(-0.434601 -0.0232638 0.0462002)
(-0.476434 -0.0762574 0.0381336)
(-0.493005 -0.121032 0.0233789)
(-0.479599 -0.153442 0.0122898)
(-0.438192 -0.155669 -0.00836855)
(-0.377445 -0.115822 -0.00731997)
(-0.293557 -0.015098 -0.0011924)
(-0.172526 0.0805316 -0.0174632)
(-0.0455346 0.122375 -0.0205023)
(0.00675199 0.0842488 -0.00236725)
(0.00917851 0.118897 -0.00844547)
(0.081123 0.276855 -0.0395625)
(0.177635 0.352462 -0.0423662)
(0.24037 0.376565 -0.0229317)
(0.273151 0.383228 -0.00250714)
(0.278979 0.382846 0.0114802)
(0.267604 0.385594 0.0211897)
(0.250826 0.388457 0.0238661)
(0.232663 0.387817 0.0265103)
(0.20929 0.377962 0.0286761)
(0.183042 0.360474 0.0302626)
(0.151981 0.331987 0.0288437)
(0.115409 0.301864 0.0293415)
(0.0772091 0.265777 0.0310015)
(0.0386231 0.239918 0.0352859)
(0.00704457 0.207977 0.0242313)
(-0.0264646 0.190598 0.0121126)
(-0.059538 0.180611 0.0072457)
(-0.0925979 0.173874 0.000714126)
(-0.1306 0.167779 -0.000636827)
(-0.15818 0.16548 -0.00212799)
(-0.157067 0.185502 0.0024299)
(-0.139621 0.194901 0.000375496)
(-0.150513 0.163826 6.44709e-05)
(-0.165621 0.131453 0.00332591)
(-0.185442 0.096551 0.00744644)
(-0.221688 0.0696569 0.020133)
(-0.261838 0.0391337 0.028854)
(-0.300112 0.0133787 0.048228)
(-0.352124 -0.0242885 0.0414131)
(-0.409837 -0.077067 0.038846)
(-0.45776 -0.128236 0.0287194)
(-0.487657 -0.179733 0.0177561)
(-0.490181 -0.220588 0.00204332)
(-0.45553 -0.239547 -0.0136623)
(-0.388755 -0.209415 -0.0214928)
(-0.298799 -0.120126 -0.0188989)
(-0.182365 0.0235457 0.00121424)
(-0.0545671 0.101725 -0.0270791)
(0.00563219 0.0870937 -0.00370754)
(0.00684287 0.0991337 -0.00896938)
(0.074885 0.27058 -0.0398994)
(0.171721 0.352212 -0.0418141)
(0.239114 0.377038 -0.0225003)
(0.279077 0.37856 0.000930786)
(0.293288 0.374053 0.0151126)
(0.289396 0.372301 0.0214007)
(0.274017 0.367326 0.0251261)
(0.255299 0.359358 0.0274552)
(0.233278 0.347153 0.0282892)
(0.207117 0.327292 0.0278175)
(0.17402 0.302941 0.0248206)
(0.135646 0.271558 0.020305)
(0.0973351 0.241606 0.013603)
(0.0596106 0.214742 0.0185124)
(0.0257928 0.196149 0.0134918)
(-0.00157653 0.175927 0.00805076)
(-0.0280044 0.166123 0.0030238)
(-0.0614167 0.154062 -0.00120827)
(-0.0917728 0.152248 -5.42651e-05)
(-0.0971731 0.161414 0.00322419)
(-0.0989946 0.173089 0.00412265)
(-0.109782 0.161567 0.00330583)
(-0.127411 0.135258 0.00283552)
(-0.144913 0.110938 0.00321041)
(-0.160777 0.0723776 0.00612131)
(-0.18772 0.0433908 0.0144431)
(-0.21759 0.0135352 0.031692)
(-0.26032 -0.019532 0.0316345)
(-0.315581 -0.0669261 0.0345035)
(-0.37118 -0.115326 0.0305712)
(-0.424038 -0.172178 0.0260204)
(-0.462439 -0.230669 0.0156682)
(-0.478611 -0.285674 0.00206324)
(-0.456737 -0.318637 -0.0154328)
(-0.397299 -0.308084 -0.0280797)
(-0.292844 -0.229177 -0.0316916)
(-0.182648 -0.0761879 -0.0191913)
(-0.0617279 0.0564959 -0.019447)
(0.00724006 0.0762816 -0.00782314)
(0.00762209 0.106543 -0.00333906)
(0.0742979 0.284578 -0.0338302)
(0.169945 0.37004 -0.038764)
(0.243629 0.392403 -0.0182485)
(0.293139 0.388174 0.00660288)
(0.316646 0.374773 0.0153549)
(0.315304 0.365333 0.0233945)
(0.300555 0.354487 0.0250947)
(0.284345 0.345202 0.0241227)
(0.262 0.329352 0.0214952)
(0.236685 0.307806 0.018417)
(0.203228 0.280181 0.0138505)
(0.163039 0.251001 0.00973518)
(0.123738 0.221215 0.00619282)
(0.0870104 0.198277 0.00407104)
(0.0530683 0.181596 0.00428601)
(0.0226049 0.170047 0.00105965)
(-0.00312532 0.161642 -0.000595824)
(-0.0253776 0.154826 -0.000314817)
(-0.0381504 0.15617 0.00151607)
(-0.0484526 0.159752 0.00405059)
(-0.0648108 0.146763 0.0061847)
(-0.0823031 0.131272 0.00617055)
(-0.102633 0.109466 0.00538593)
(-0.125135 0.0884259 0.00718874)
(-0.141563 0.0568926 0.00602497)
(-0.158551 0.0220773 0.015277)
(-0.189956 -0.0105162 0.0164622)
(-0.230917 -0.052867 0.021355)
(-0.280228 -0.0948598 0.0225993)
(-0.334455 -0.142723 0.0241411)
(-0.387201 -0.198922 0.0218479)
(-0.430101 -0.26091 0.0158582)
(-0.455526 -0.326426 0.00376747)
(-0.446022 -0.37583 -0.01278)
(-0.396709 -0.389293 -0.029837)
(-0.3031 -0.325568 -0.043124)
(-0.187776 -0.178085 -0.0322668)
(-0.059715 0.0128413 -0.00904583)
(0.00653705 0.0741027 -0.0126079)
(-0.00261617 0.0787783 -0.0151797)
(0.0531743 0.265089 -0.0404775)
(0.150484 0.360996 -0.0463492)
(0.231858 0.385832 -0.0262178)
(0.291038 0.383835 -0.00432799)
(0.326252 0.363855 0.00917686)
(0.336508 0.347167 0.0152524)
(0.325801 0.328684 0.0158769)
(0.30785 0.315793 0.0143237)
(0.282828 0.305722 0.0107143)
(0.254503 0.293823 0.0077065)
(0.220278 0.27673 0.00470093)
(0.180391 0.255862 0.00208407)
(0.143154 0.234651 0.000391835)
(0.11078 0.213904 0.000747596)
(0.0816453 0.202957 0.00268142)
(0.0590292 0.197167 -0.00353985)
(0.0374078 0.190545 -0.00280637)
(0.0155593 0.182177 -0.00148726)
(-0.00225125 0.171055 0.00261012)
(-0.0204032 0.149496 0.00548482)
(-0.0403195 0.129228 0.00792741)
(-0.0594838 0.108459 0.00759309)
(-0.0809198 0.0880657 0.00784487)
(-0.104572 0.0680743 0.00615066)
(-0.127836 0.0466466 0.00451634)
(-0.145993 0.0110681 0.00326388)
(-0.170597 -0.0250094 0.00597793)
(-0.205144 -0.0640123 0.00913355)
(-0.245504 -0.110352 0.0129713)
(-0.29209 -0.163119 0.0149366)
(-0.341395 -0.227067 0.0146957)
(-0.386616 -0.297557 0.0104951)
(-0.41897 -0.376107 0.00109647)
(-0.422087 -0.441886 -0.0138514)
(-0.382802 -0.473073 -0.0308734)
(-0.293252 -0.429886 -0.0554314)
(-0.181305 -0.300077 -0.0500662)
(-0.0552766 -0.0712974 -0.0163692)
(0.00613514 0.0524483 -0.00373824)
(-0.00314201 0.14948 -0.00523829)
(0.0494573 0.35203 -0.0199186)
(0.140523 0.451082 -0.0309562)
(0.225159 0.472567 -0.0114496)
(0.292941 0.460802 -0.00425266)
(0.334123 0.428487 0.0123539)
(0.349696 0.392481 0.0157829)
(0.344998 0.378987 0.0183609)
(0.341583 0.386244 0.0147534)
(0.325958 0.38965 0.0102685)
(0.299473 0.383812 0.00443989)
(0.261682 0.366783 0.000215629)
(0.218823 0.339831 -0.00298367)
(0.176165 0.310881 -0.00374004)
(0.143658 0.281332 -0.00294342)
(0.119752 0.255841 0.00076077)
(0.0912018 0.235515 -0.00168099)
(0.0622969 0.215574 -0.00739596)
(0.0364632 0.193557 -0.00405592)
(0.010973 0.169082 -0.00218034)
(-0.00899919 0.143214 0.0051961)
(-0.0254324 0.115796 0.00699454)
(-0.0434736 0.0936643 0.00807252)
(-0.062303 0.0714155 0.00934022)
(-0.083126 0.0508596 0.00421402)
(-0.109941 0.0299012 0.00273282)
(-0.133032 0.00568002 0.00174569)
(-0.1554 -0.0294489 -0.00387162)
(-0.189752 -0.0683615 -0.00444776)
(-0.230701 -0.111906 -0.00202144)
(-0.274817 -0.155042 0.00384084)
(-0.317769 -0.213122 0.00808172)
(-0.359522 -0.282114 0.00943674)
(-0.392478 -0.366612 0.00403723)
(-0.397052 -0.448359 -0.00951073)
(-0.36799 -0.516857 -0.03303)
(-0.303974 -0.51662 -0.0641915)
(-0.190456 -0.390029 -0.0594198)
(-0.0498335 -0.173634 -0.0357356)
(0.00870684 0.0254378 -0.00455954)
(-0.018033 0.233099 -0.0238414)
(0.0193115 0.473353 -0.042773)
(0.109468 0.582998 -0.0511325)
(0.195039 0.621943 -0.0361623)
(0.267069 0.61245 -0.0251355)
(0.315959 0.581958 -0.00808683)
(0.360388 0.536995 0.00145241)
(0.397454 0.51192 0.00184916)
(0.398954 0.502464 -0.00469353)
(0.364635 0.483796 -0.00903488)
(0.320467 0.45726 -0.0110975)
(0.2687 0.422864 -0.0119047)
(0.218339 0.382312 -0.0114698)
(0.176917 0.340783 -0.0100487)
(0.143865 0.302514 -0.00786535)
(0.119359 0.26434 -0.00346306)
(0.100096 0.231165 0.000888281)
(0.0756701 0.202244 1.28415e-05)
(0.0479006 0.180976 -0.00344808)
(0.02529 0.153627 -0.0008405)
(0.00251075 0.131443 0.00254306)
(-0.0152473 0.103007 0.00644963)
(-0.0300215 0.0796147 0.00778619)
(-0.0495515 0.0562252 0.00852008)
(-0.069623 0.0323372 0.00298808)
(-0.0920475 0.00954031 0.00679201)
(-0.117114 -0.00716108 0.00603776)
(-0.144971 -0.0320621 0.00387143)
(-0.171303 -0.0622666 0.000525037)
(-0.193039 -0.106273 -0.00389692)
(-0.225489 -0.159056 -0.0102608)
(-0.266092 -0.233715 -0.0146311)
(-0.306864 -0.319098 -0.0178924)
(-0.344204 -0.425579 -0.0224715)
(-0.372825 -0.525369 -0.0309851)
(-0.371973 -0.625606 -0.0477068)
(-0.299748 -0.652828 -0.0705967)
(-0.220179 -0.546355 -0.0851266)
(-0.08543 -0.261543 -0.0435298)
(0.0149698 0.0105025 -0.00379588)
(0.000481707 0.204886 0.00101288)
(0.0388965 0.448731 -0.036398)
(0.113634 0.574299 -0.0489952)
(0.199158 0.631285 -0.0449601)
(0.270467 0.636528 -0.0368058)
(0.320842 0.617771 -0.0255781)
(0.361031 0.58174 -0.0186922)
(0.393306 0.538785 -0.00886715)
(0.396755 0.497041 -0.0104622)
(0.36514 0.460831 -0.00948749)
(0.324508 0.425908 -0.00898501)
(0.275123 0.390916 -0.0070067)
(0.226434 0.352519 -0.00522477)
(0.185556 0.317235 -0.00277977)
(0.154363 0.282012 -0.00213316)
(0.132604 0.249682 0.000702583)
(0.110256 0.216003 0.00243933)
(0.0911862 0.18492 0.00523635)
(0.0647932 0.163554 0.00576571)
(0.0358068 0.141346 0.000215002)
(0.0126525 0.118044 0.00315974)
(-0.00667362 0.0928725 0.00585081)
(-0.0205897 0.0680237 0.00797793)
(-0.0396517 0.0428897 0.00707876)
(-0.0579483 0.0215972 0.00614929)
(-0.0739539 -0.000264314 0.00936131)
(-0.0928301 -0.0169096 0.00944947)
(-0.119001 -0.0344481 0.00609802)
(-0.157652 -0.0501465 0.00297203)
(-0.199025 -0.081813 0.00357953)
(-0.243426 -0.127784 0.00641865)
(-0.282212 -0.196593 0.00803475)
(-0.315229 -0.284774 0.00680653)
(-0.330528 -0.418198 -0.00179579)
(-0.339375 -0.565466 -0.0125391)
(-0.334108 -0.70668 -0.0245862)
(-0.279773 -0.782699 -0.0475895)
(-0.168454 -0.753587 -0.0633576)
(-0.0481459 -0.464153 -0.0682235)
(0.00315084 -0.0986264 0.00678776)
(0.000470424 0.219731 -0.00158512)
(0.0373316 0.438632 -0.0322658)
(0.105478 0.562466 -0.0432363)
(0.183885 0.618957 -0.04128)
(0.253737 0.625219 -0.0266892)
(0.307164 0.603733 -0.0206997)
(0.352753 0.566043 -0.0115503)
(0.389769 0.52517 -0.00437233)
(0.398138 0.481255 -0.0044219)
(0.37123 0.447019 -0.00330382)
(0.329444 0.413198 -0.00250592)
(0.277206 0.375998 -0.000987994)
(0.229392 0.338807 0.000573587)
(0.192398 0.303599 0.00162632)
(0.161818 0.270574 0.00237031)
(0.137399 0.23632 0.00410466)
(0.116984 0.202052 0.00603177)
(0.101985 0.167149 0.00862223)
(0.0799449 0.140351 0.00924822)
(0.0524422 0.120152 0.00969812)
(0.0240887 0.101641 0.00521245)
(0.00293345 0.0778607 0.00573671)
(-0.012612 0.0530432 0.0103395)
(-0.0283348 0.0306532 0.0084698)
(-0.0436357 0.009994 0.00755359)
(-0.0583836 -0.00962959 0.00958224)
(-0.0738427 -0.029698 0.0100705)
(-0.0923476 -0.05126 0.00998121)
(-0.119984 -0.0677247 0.00776686)
(-0.152534 -0.0858942 0.00542397)
(-0.193224 -0.104007 0.00522794)
(-0.237616 -0.143741 0.00581171)
(-0.299976 -0.199343 0.00865176)
(-0.355381 -0.30081 0.0133949)
(-0.376797 -0.428556 0.0128955)
(-0.371992 -0.587176 0.00743935)
(-0.328387 -0.707291 -0.00686348)
(-0.228126 -0.735912 -0.0299576)
(-0.061632 -0.524719 -0.0430822)
(0.0242261 -0.0970015 -0.020646)
(0.0066898 0.195631 -0.00222338)
(0.0456699 0.394341 -0.0260132)
(0.107501 0.526227 -0.0359165)
(0.1824 0.588013 -0.035176)
(0.249497 0.60499 -0.0230791)
(0.301637 0.587859 -0.0152394)
(0.348579 0.552138 -0.00614561)
(0.383238 0.50902 0.000176859)
(0.394267 0.458958 0.000369367)
(0.373586 0.419072 0.000757757)
(0.330805 0.380408 0.00158239)
(0.280385 0.342829 0.00389879)
(0.236505 0.309065 0.00516241)
(0.201754 0.276569 0.00608493)
(0.172044 0.245298 0.00598561)
(0.148406 0.21347 0.00690056)
(0.123599 0.182577 0.00818724)
(0.109083 0.147655 0.0117382)
(0.0938404 0.117112 0.0145981)
(0.0695113 0.0955832 0.0136426)
(0.0397927 0.0826077 0.012532)
(0.0122889 0.0618985 0.0106733)
(-0.00116788 0.0414188 0.0107761)
(-0.015818 0.020691 0.0097472)
(-0.0300633 0.000295628 0.00971937)
(-0.0431249 -0.0185482 0.0094965)
(-0.0598349 -0.0369267 0.00953928)
(-0.0754678 -0.0604659 0.009797)