/*--------------------------------*- C++ -*----------------------------------*\
| =========                 |                                                 |
| \\      /  F ield         | OpenFOAM: The Open Source CFD Toolbox           |
|  \\    /   O peration     | Version:  v1806                                 |
|   \\  /    A nd           | Web:      www.OpenFOAM.com                      |
|    \\/     M anipulation  |                                                 |
\*---------------------------------------------------------------------------*/
FoamFile
{
    version     2.0;
    format      ascii;
    class       vectorField;
    location    "0.023";
    object      currentcloudofpoints;
}
// * * * * * * * * * * * * * * * * * * * * * * * * * * * * * * * * * * * * * //


2409
(
(0.718839 1.15667 0.999986)
(0.917909 0.75341 0.999991)
(1.12288 1.34796 0.999865)
(1.00561 1.04076 0.721335)
(1.00569 1.04068 1.27871)
(1.03469 1.0584 1)
(0.514535 1.24882 0.999833)
(0.81455 0.566064 1.00006)
(1.16993 1.5396 0.999985)
(0.977547 1.02445 0.532283)
(0.977461 1.02468 1.46758)
(1.11796 1.33182 1.09006)
(1.10103 1.28704 1.1706)
(1.07415 1.21839 1.23253)
(1.04137 1.13256 1.26993)
(1.12076 1.34051 1.04492)
(1.11013 1.30979 1.13057)
(1.08785 1.25312 1.2017)
(1.05799 1.17577 1.25166)
(1.02367 1.08627 1.27466)
(0.922091 0.767679 1.07728)
(0.932501 0.810451 1.14997)
(0.950668 0.874441 1.21313)
(0.975965 0.952905 1.25762)
(0.920427 0.760587 1.03841)
(0.927967 0.789422 1.11277)
(0.94149 0.843004 1.18126)
(0.96391 0.914244 1.23512)
(0.990589 0.996855 1.26821)
(1.11783 1.3319 0.90991)
(1.10105 1.28687 0.829615)
(1.07413 1.21797 0.767848)
(1.04143 1.1324 0.730252)
(1.12065 1.34052 0.954886)
(1.11008 1.30984 0.86953)
(1.08784 1.25275 0.798626)
(1.05798 1.17546 0.748659)
(1.02366 1.08627 0.725387)
(0.975965 0.952911 0.742422)
(0.950791 0.874399 0.786845)
(0.932139 0.810185 0.849946)
(0.922196 0.767826 0.922427)
(0.990582 0.996948 0.731973)
(0.963878 0.914088 0.764618)
(0.941518 0.843004 0.818971)
(0.927569 0.789154 0.886844)
(0.920857 0.761038 0.9615)
(0.921558 1.0742 1.25763)
(0.843389 1.10525 1.21263)
(0.779205 1.13079 1.14828)
(0.734623 1.14928 1.07723)
(0.964481 1.0573 1.26675)
(0.882582 1.09005 1.23617)
(0.812256 1.11795 1.17938)
(0.757002 1.13981 1.11177)
(0.726294 1.1531 1.03855)
(0.734723 1.1495 0.922811)
(0.778426 1.13119 0.851417)
(0.842754 1.10539 0.786761)
(0.921365 1.07415 0.742757)
(0.726667 1.15305 0.961542)
(0.756449 1.14032 0.887971)
(0.811672 1.11801 0.820347)
(0.882113 1.09012 0.763565)
(0.964415 1.05736 0.733674)
(0.832929 0.804581 0.999996)
(0.764251 0.878763 0.999593)
(0.71907 0.96797 0.999953)
(0.701028 1.06319 1)
(0.876698 0.779408 1.00007)
(0.799372 0.842048 0.999711)
(0.742426 0.923996 0.99971)
(0.710114 1.01563 1.00003)
(0.709514 1.10965 0.999989)
(0.76515 1.24051 0.999758)
(0.835135 1.30683 0.999788)
(0.925442 1.34795 0.999973)
(1.02497 1.36036 0.999938)
(0.742347 1.19784 0.999919)
(0.800376 1.27346 0.999716)
(0.88025 1.32794 0.999943)
(0.976833 1.35351 0.999985)
(1.07366 1.35518 0.999865)
(0.818514 0.574743 1.08854)
(0.830549 0.597838 1.17474)
(0.852616 0.63639 1.2528)
(0.876849 0.691966 1.32143)
(0.900472 0.76068 1.37996)
(0.921531 0.841065 1.42649)
(0.947849 0.930724 1.45574)
(0.816967 0.570035 1.0443)
(0.825195 0.58636 1.13167)
(0.842047 0.616994 1.21405)
(0.865944 0.66386 1.28689)
(0.889728 0.726461 1.35047)
(0.911701 0.800678 1.40323)
(0.934821 0.885905 1.44089)
(0.963014 0.977729 1.46182)
(1.00982 1.11917 1.4625)
(1.04691 1.21071 1.43866)
(1.08558 1.29706 1.39754)
(1.11829 1.37602 1.34033)
(1.14467 1.44311 1.26708)
(1.15914 1.49568 1.18327)
(1.16722 1.52873 1.09347)
(0.993566 1.07205 1.46487)
(1.02831 1.16496 1.4506)
(1.06701 1.25351 1.41816)
(1.10244 1.33651 1.36913)
(1.13261 1.40937 1.30413)
(1.15266 1.46957 1.22502)
(1.16346 1.51261 1.13845)
(1.16875 1.53452 1.0468)
(0.818586 0.575061 0.911156)
(0.830274 0.59763 0.825397)
(0.852622 0.635697 0.74668)
(0.87609 0.69063 0.67708)
(0.899786 0.759739 0.618986)
(0.92132 0.840919 0.573655)
(0.947831 0.930728 0.54451)
(0.817628 0.570615 0.955677)
(0.824654 0.586299 0.868142)
(0.842172 0.616509 0.785859)
(0.865579 0.663004 0.712159)
(0.888921 0.725173 0.648148)
(0.911173 0.800095 0.59621)
(0.934804 0.885908 0.559524)
(0.962966 0.977619 0.538214)
(1.16721 1.52881 0.906509)
(1.1592 1.49579 0.816703)
(1.14468 1.44281 0.73305)
(1.11831 1.37582 0.659682)
(1.08562 1.29718 0.602155)
(1.04682 1.21078 0.561312)
(1.00995 1.11906 0.537415)
(1.16874 1.53456 0.95317)
(1.16348 1.51274 0.861522)
(1.15272 1.46951 0.775001)
(1.1326 1.40899 0.696053)
(1.1025 1.33654 0.630621)
(1.06699 1.25357 0.581755)
(1.02827 1.165 0.549341)
(0.993767 1.07182 0.534948)
(0.523262 1.24225 1.08603)
(0.552357 1.22413 1.16858)
(0.599672 1.19866 1.24548)
(0.660886 1.16783 1.31469)
(0.729455 1.1341 1.37412)
(0.805077 1.09899 1.42148)
(0.890458 1.06279 1.45081)
(0.518812 1.246 1.0431)
(0.537946 1.2331 1.12768)
(0.576041 1.21114 1.20715)
(0.631496 1.18281 1.27961)
(0.695644 1.15087 1.3444)
(0.767681 1.11641 1.39771)
(0.84689 1.08096 1.43529)
(0.935286 1.04418 1.46077)
(0.524206 1.24172 0.914181)
(0.550769 1.22495 0.83094)
(0.600882 1.19831 0.755275)
(0.660141 1.16803 0.684562)
(0.729741 1.13401 0.626133)
(0.805584 1.09865 0.579906)
(0.890322 1.06261 0.548938)
(0.520216 1.24518 0.956813)
(0.5372 1.23344 0.872255)
(0.575764 1.21144 0.792821)
(0.63173 1.18271 0.720465)
(0.695405 1.15096 0.655233)
(0.768104 1.11618 0.603091)
(0.847053 1.08067 0.565513)
(0.935269 1.04395 0.53876)
(0.719525 0.614684 1.00008)
(0.642325 0.677547 1.00009)
(0.580226 0.755026 0.999979)
(0.533812 0.844324 0.999919)
(0.505041 0.942227 0.999957)
(0.492848 1.04485 1.00004)
(0.497115 1.14868 0.999955)
(0.767016 0.590533 1.00007)
(0.680739 0.645555 1.0001)
(0.611694 0.715684 1.00003)
(0.557168 0.798839 0.999926)
(0.519685 0.892463 0.999908)
(0.499329 0.992695 1.00001)
(0.495683 1.09607 1.00001)
(0.506644 1.19835 0.99989)
(0.549683 1.33855 0.999877)
(0.604844 1.41335 0.999937)
(0.678945 1.47296 1.00004)
(0.769308 1.51684 1.00017)
(0.868505 1.54581 1.00013)
(0.969984 1.56119 1.00002)
(1.07134 1.55995 0.99998)
(0.532058 1.29383 0.999854)
(0.577121 1.37609 0.99993)
(0.641678 1.4432 0.999967)
(0.724134 1.49482 1.00014)
(0.819269 1.53102 1.00014)
(0.919568 1.55235 1.00007)
(1.0212 1.56141 0.999986)
(1.12074 1.54839 0.999981)
(0.990154 1.03259 0.629449)
(0.985695 1.02808 0.579432)
(0.997201 1.03674 0.676691)
(0.990459 1.03259 1.3706)
(0.997515 1.0366 1.32342)
(0.985708 1.02833 1.42047)
(0.870108 0.657049 0.999849)
(0.894387 0.705958 0.999871)
(0.845601 0.605841 1.00004)
(1.14904 1.44094 0.99993)
(1.13543 1.39363 0.99989)
(1.1609 1.48976 0.999958)
(0.708802 1.37616 1.24505)
(0.698439 1.43008 1.17402)
(0.878511 1.25645 1.40673)
(0.875843 1.51226 1.16139)
(0.575911 1.36192 1.0803)
(0.95281 1.19619 1.44373)
(1.06857 1.537 1.13636)
(0.978861 1.50456 1.21493)
(0.621539 1.36119 1.17027)
(0.788133 1.45271 1.2162)
(0.755119 1.48852 1.1195)
(0.652348 1.28003 1.26552)
(0.886639 1.44647 1.27096)
(0.966345 1.53893 1.13312)
(0.806244 1.38328 1.3016)
(1.0137 1.55846 1.06654)
(0.974771 1.28695 1.41497)
(0.921743 1.54701 1.07643)
(0.557629 1.30335 1.12214)
(0.869861 1.15088 1.43548)
(0.786447 1.21794 1.38612)
(0.902339 1.36052 1.35541)
(1.06688 1.48357 1.24058)
(0.65537 1.44154 1.08695)
(0.588684 1.27933 1.19436)
(0.820592 1.30952 1.35951)
(1.05891 1.42481 1.31196)
(0.980551 1.44018 1.30037)
(0.538484 1.30644 1.05773)
(0.940095 1.11183 1.45849)
(1.09922 1.55079 1.05976)
(0.740682 1.30945 1.31755)
(0.710518 1.22511 1.33749)
(1.01999 1.3718 1.3631)
(0.710563 1.48601 1.05294)
(0.835309 1.52911 1.07326)
(0.981238 1.15806 1.45395)
(0.99875 1.20442 1.44306)
(0.958986 1.06849 1.46381)
(0.974796 1.11593 1.46151)
(0.946606 1.15391 1.45082)
(1.01071 1.24941 1.42781)
(1.02984 1.29205 1.40732)
(0.963923 1.24179 1.42937)
(1.0528 1.33436 1.38061)
(1.06862 1.37296 1.35141)
(0.998202 1.32956 1.38975)
(1.08856 1.39986 1.3259)
(1.10223 1.43266 1.2892)
(1.03942 1.39833 1.33771)
(1.10611 1.46217 1.25333)
(1.1128 1.48823 1.21146)
(1.06418 1.45391 1.27638)
(1.11378 1.51549 1.15995)
(1.11779 1.53136 1.11496)
(1.06772 1.51126 1.18885)
(1.13325 1.53919 1.07656)
(1.13487 1.54447 1.03008)
(1.0838 1.54386 1.09801)
(1.08536 1.5554 1.02982)
(0.590708 1.3879 1.04021)
(0.562566 1.35076 1.04029)
(0.55702 1.33445 1.06919)
(0.544055 1.32283 1.02882)
(0.526444 1.27784 1.0289)
(0.667228 1.45764 1.04364)
(0.630254 1.42742 1.0435)
(0.615843 1.40145 1.0838)
(0.740053 1.50141 1.02676)
(0.694719 1.4796 1.02649)
(0.682825 1.46405 1.07007)
(0.851837 1.53738 1.03684)
(0.802426 1.523 1.03665)
(0.773492 1.50717 1.06328)
(0.945727 1.55385 1.03845)
(0.895297 1.54589 1.03813)
(0.878963 1.53744 1.07494)
(1.0427 1.55959 1.03353)
(0.991899 1.55989 1.03311)
(0.967766 1.55225 1.07161)
(1.05666 1.55503 1.06334)
(0.665457 1.36863 1.20762)
(0.659823 1.39574 1.17253)
(0.70383 1.40357 1.20977)
(0.743551 1.44135 1.19514)
(0.748264 1.41486 1.23126)
(0.638563 1.40206 1.12895)
(0.676826 1.43609 1.13034)
(0.726672 1.45987 1.14698)
(0.771981 1.47096 1.16759)
(0.704822 1.46535 1.10339)
(0.916862 1.22638 1.42423)
(0.927246 1.27194 1.41023)
(0.912295 1.17333 1.43819)
(0.874342 1.20359 1.42085)
(0.891086 1.30874 1.38137)
(0.939783 1.32415 1.38519)
(0.832311 1.23713 1.39632)
(0.828328 1.18426 1.41136)
(0.849973 1.28283 1.38308)
(0.80352 1.26396 1.37296)
(0.861453 1.33488 1.35726)
(0.855807 1.52043 1.117)
(0.898825 1.52942 1.11909)
(0.816502 1.49936 1.14044)
(0.795643 1.50845 1.09669)
(0.933118 1.47428 1.24348)
(0.881768 1.48019 1.21665)
(0.927255 1.50778 1.18794)
(0.921152 1.52485 1.14767)
(0.972622 1.52229 1.17403)
(0.943992 1.54276 1.10455)
(0.83247 1.48218 1.18935)
(0.838026 1.44965 1.24379)
(0.589496 1.33216 1.14635)
(0.566651 1.33301 1.10134)
(0.598801 1.36147 1.12534)
(0.548063 1.305 1.09009)
(0.540417 1.27288 1.10435)
(0.55536 1.26384 1.14574)
(0.530861 1.27452 1.07203)
(0.570551 1.25164 1.18149)
(0.594558 1.23905 1.2205)
(0.573267 1.29126 1.15836)
(0.626226 1.23942 1.25566)
(0.657581 1.22383 1.29023)
(0.620752 1.27966 1.23)
(0.720353 1.17948 1.35596)
(0.68567 1.19655 1.3261)
(0.682761 1.25239 1.30142)
(0.757923 1.17605 1.3798)
(0.796234 1.15823 1.4037)
(0.748903 1.22142 1.36168)
(0.836877 1.12504 1.4286)
(0.880282 1.10698 1.44263)
(0.915671 1.08734 1.45433)
(0.906058 1.13146 1.44567)
(0.680599 1.32828 1.25581)
(0.725558 1.34303 1.28169)
(0.697001 1.29475 1.29138)
(0.773372 1.34648 1.30986)
(0.758173 1.37977 1.27342)
(0.637836 1.32087 1.21845)
(0.797781 1.41857 1.25938)
(1.04127 1.5482 1.1013)
(0.725714 1.26743 1.32759)
(0.764571 1.26359 1.35188)
(0.780975 1.30948 1.33851)
(0.814038 1.34654 1.33088)
(0.732871 1.48732 1.08614)
(1.01804 1.53887 1.13529)
(1.02432 1.52161 1.17661)
(1.02348 1.49535 1.22891)
(0.99004 1.54842 1.09993)
(0.980665 1.47223 1.25819)
(0.933528 1.44274 1.28548)
(1.02502 1.46215 1.27179)
(0.605229 1.32057 1.18276)
(0.846522 1.41502 1.28663)
(0.855037 1.37158 1.32841)
(0.895357 1.40364 1.3137)
(0.941845 1.40015 1.32822)
(0.962487 1.36687 1.35997)
(1.00129 1.40637 1.3321)
(1.02042 1.43319 1.30709)
(0.653601 0.889453 1.29855)
(0.531745 0.955613 1.15497)
(0.632532 0.730855 1.15451)
(0.686881 0.679124 1.16471)
(0.554589 1.00569 1.20966)
(0.693492 0.964863 1.35001)
(0.752705 0.620039 1.1346)
(0.520382 1.16515 1.12602)
(0.859138 0.923913 1.43058)
(0.577315 0.921324 1.22194)
(0.698644 0.730686 1.24554)
(0.512684 1.05868 1.1279)
(0.622556 0.997806 1.29097)
(0.820246 0.832505 1.38746)
(0.670142 1.07324 1.3361)
(0.599095 1.08633 1.26707)
(0.760005 0.656572 1.21545)
(0.825535 1.0112 1.42984)
(0.671635 0.661768 1.08517)
(0.514939 0.934402 1.08497)
(0.774024 0.935045 1.39822)
(0.546437 1.11758 1.19336)
(0.744146 1.04292 1.39118)
(0.543418 0.841333 1.07866)
(0.757196 0.779271 1.32488)
(0.793829 0.702064 1.29016)
(0.613288 0.815182 1.21504)
(0.688681 0.808319 1.29372)
(0.828258 0.749653 1.34498)
(0.726868 0.86459 1.34736)
(0.574092 0.806276 1.12983)
(0.550987 0.876382 1.14919)
(0.751532 0.60095 1.0623)
(0.900212 0.99048 1.4527)
(0.58728 0.754252 1.06647)
(0.500583 1.13894 1.05892)
(0.498207 1.0226 1.05624)
(0.711956 0.640418 1.10984)
(0.679723 0.670384 1.12507)
(0.71972 0.649426 1.1499)
(0.752663 0.610675 1.09847)
(0.71123 0.631016 1.07394)
(0.722962 0.667615 1.19023)
(0.756549 0.638088 1.17549)
(0.786208 0.59764 1.11178)
(0.792166 0.60907 1.15479)
(0.785521 0.587966 1.07542)
(0.796129 0.627501 1.19561)
(0.891531 0.882366 1.42915)
(0.905089 0.927474 1.44339)
(0.861639 0.796711 1.38381)
(0.873368 0.836687 1.40711)
(0.839994 0.877884 1.40957)
(0.9246 0.960596 1.45494)
(0.939584 1.00771 1.46159)
(0.880109 0.957308 1.44118)
(0.522443 1.00637 1.14166)
(0.533726 1.03169 1.16916)
(0.543478 0.980252 1.18237)
(0.52976 1.08771 1.16086)
(0.551339 1.06114 1.20166)
(0.588747 1.0013 1.25032)
(0.57713 1.04567 1.23835)
(0.611167 1.04179 1.27909)
(0.566169 0.963052 1.21585)
(0.600237 0.95897 1.25652)
(0.572855 1.10152 1.2302)
(0.554831 0.938048 1.18836)
(0.659721 0.704561 1.15966)
(0.652607 0.695936 1.12021)
(0.630009 0.707225 1.07587)
(0.610367 0.742373 1.11061)
(0.657226 0.669689 1.04274)
(0.695532 0.637803 1.04289)
(0.735415 0.60753 1.03124)
(0.615436 0.715609 1.03348)
(0.517527 1.11137 1.12715)
(0.533629 1.14116 1.16002)
(0.507421 1.09843 1.09368)
(0.510715 1.15196 1.09268)
(0.514811 0.988579 1.10615)
(0.505662 1.04042 1.09239)
(0.500254 1.07986 1.05771)
(0.647065 1.0355 1.31313)
(0.635435 1.0795 1.30116)
(0.682262 1.01898 1.34264)
(0.658958 0.981175 1.31995)
(0.63868 0.943372 1.29444)
(0.67454 0.927101 1.32357)
(0.615776 0.9049 1.26026)
(0.865739 0.755132 1.36256)
(0.824973 0.791229 1.36591)
(0.796541 0.883692 1.39286)
(0.816009 0.929593 1.41411)
(0.773179 0.848665 1.36736)
(0.750918 0.899679 1.37282)
(0.789593 0.806159 1.35581)
(0.792332 0.764661 1.33467)
(0.74223 0.821976 1.33577)
(0.665896 1.12039 1.32543)
(0.631131 1.12684 1.29029)
(0.700239 1.10378 1.35489)
(0.737074 1.0885 1.38251)
(0.707958 1.05792 1.36322)
(0.719381 1.00389 1.37023)
(0.600583 1.14214 1.25628)
(0.573576 1.15765 1.21937)
(0.857775 1.03713 1.43996)
(0.815404 1.05519 1.42548)
(0.785136 1.02698 1.41105)
(0.77485 1.07107 1.40637)
(0.895489 1.02673 1.45175)
(0.862886 1.00101 1.44031)
(0.842069 0.967656 1.42975)
(0.800142 0.973145 1.41396)
(0.759224 0.988944 1.39441)
(0.665476 0.73029 1.20007)
(0.692697 0.704743 1.20536)
(0.623537 0.772794 1.18503)
(0.655897 0.772249 1.23059)
(0.580844 0.780033 1.09834)
(0.603817 0.768066 1.14218)
(0.594198 0.810424 1.17243)
(0.72912 0.693553 1.23056)
(0.536644 1.19443 1.14751)
(0.522496 1.2035 1.10626)
(0.512884 1.19012 1.0727)
(0.508473 1.19365 1.02953)
(0.550486 1.17052 1.18135)
(0.710189 0.914465 1.34885)
(0.690726 0.876898 1.32246)
(0.633407 0.851526 1.25736)
(0.59608 0.867772 1.21859)
(0.67111 0.848707 1.29621)
(0.650557 0.810993 1.255)
(0.708816 0.83654 1.31969)
(0.783335 0.583446 1.03123)
(0.583963 0.754699 1.03336)
(0.56099 0.798373 1.03325)
(0.510669 0.938323 1.04244)
(0.525459 0.888905 1.04259)
(0.539008 0.842812 1.03938)
(0.565579 0.797076 1.07265)
(0.529582 0.887177 1.08192)
(0.495779 1.03372 1.02816)
(0.502102 0.981944 1.02813)
(0.506918 0.97787 1.07064)
(0.498978 1.14392 1.02952)
(0.497612 1.09133 1.02959)
(0.807095 0.646812 1.23415)
(0.83655 0.696952 1.30592)
(0.824087 0.669442 1.27171)
(0.777596 0.679233 1.25272)
(0.853282 0.720734 1.33354)
(0.811906 0.725769 1.31733)
(0.734003 0.949945 1.37402)
(0.745928 0.7163 1.2677)
(0.541618 0.915536 1.15218)
(0.564531 0.898418 1.18558)
(0.58292 0.845301 1.18192)
(0.77564 0.74058 1.30763)
(0.728917 0.754255 1.28533)
(0.694065 0.769079 1.27002)
(0.723335 0.79378 1.30899)
(0.532805 0.904906 1.11745)
(0.523155 0.944768 1.12038)
(0.558744 0.823599 1.10433)
(0.54739 0.858715 1.11423)
(0.562915 0.841028 1.13961)
(0.665875 0.783207 0.7453)
(0.593062 0.983534 0.742747)
(0.67251 0.728668 0.78737)
(0.682635 0.679804 0.842099)
(0.516437 1.01298 0.866536)
(0.749967 0.94038 0.615158)
(0.516454 1.11182 0.865153)
(0.818382 1.00521 0.572351)
(0.620119 0.799598 0.78766)
(0.550639 0.948802 0.811217)
(0.780998 0.783435 0.657915)
(0.602038 1.08652 0.730959)
(0.669609 0.948625 0.673265)
(0.613029 0.873479 0.749888)
(0.727919 0.874408 0.649695)
(0.545166 1.04264 0.803712)
(0.731726 1.03183 0.616197)
(0.749846 0.657101 0.794877)
(0.858806 0.924519 0.568864)
(0.747351 0.619387 0.874083)
(0.603584 0.726821 0.943427)
(0.520807 0.921539 0.903052)
(0.558604 0.807108 0.918444)
(0.671284 0.658859 0.924246)
(0.556405 1.13146 0.794073)
(0.568187 0.847971 0.835885)
(0.747351 0.721984 0.723457)
(0.616441 0.743126 0.859037)
(0.664657 1.06334 0.666626)
(0.496797 1.05445 0.939449)
(0.81548 0.847177 0.60832)
(0.750162 0.60237 0.941422)
(0.508058 1.17447 0.922475)
(0.690734 0.825756 0.694651)
(0.629056 1.01955 0.701074)
(0.898682 0.989517 0.547504)
(0.61694 0.836236 0.768768)
(0.639486 0.827896 0.747399)
(0.643192 0.791206 0.76666)
(0.669686 0.755868 0.766483)
(0.646589 0.763831 0.787457)
(0.678262 0.804174 0.719711)
(0.651907 0.849074 0.722187)
(0.710332 0.724925 0.755599)
(0.706608 0.752338 0.73431)
(0.719128 0.773739 0.70887)
(0.803704 0.932351 0.591739)
(0.784524 0.972619 0.593274)
(0.838254 0.965025 0.571073)
(0.740787 0.98604 0.615583)
(0.775397 1.01834 0.593795)
(0.837193 0.885501 0.587816)
(0.782372 0.893776 0.611933)
(0.739496 0.907461 0.632684)
(0.698986 0.91148 0.661698)
(0.710588 0.944585 0.644484)
(0.701304 0.990186 0.644601)
(0.771681 0.860929 0.629432)
(0.894549 1.02615 0.548004)
(0.938874 1.00711 0.538415)
(0.923874 0.960131 0.545366)
(0.531223 1.07695 0.834058)
(0.530794 1.02755 0.83485)
(0.51711 1.0618 0.865684)
(0.551495 1.08674 0.798831)
(0.536326 1.12154 0.829135)
(0.507046 1.08274 0.901955)
(0.50684 1.03352 0.902762)
(0.554184 1.17806 0.812013)
(0.534564 1.16793 0.847585)
(0.512375 1.14304 0.893573)
(0.529218 1.1994 0.876405)
(0.503392 1.11361 0.930667)
(0.858351 0.997566 0.560944)
(0.879205 0.957178 0.558768)
(0.768864 1.06526 0.59791)
(0.811926 1.05196 0.576145)
(0.853973 1.03409 0.561246)
(0.594208 0.823351 0.811642)
(0.59104 0.860207 0.792986)
(0.644387 0.735538 0.822971)
(0.618522 0.771171 0.822924)
(0.592892 0.794904 0.847133)
(0.89128 0.882636 0.570803)
(0.904978 0.927845 0.5567)
(0.870492 0.843764 0.590358)
(0.603563 0.928088 0.746288)
(0.582359 0.910625 0.780633)
(0.57178 0.965677 0.77685)
(0.560046 0.897776 0.823472)
(0.548237 0.995171 0.807334)
(0.533695 0.980473 0.838633)
(0.569241 1.01259 0.773186)
(0.535744 0.934825 0.856656)
(0.519107 0.966531 0.884623)
(0.544845 0.884178 0.869293)
(0.70988 0.850107 0.672692)
(0.75416 0.828711 0.653855)
(0.73599 0.804667 0.676668)
(0.799238 0.815393 0.633812)
(0.842127 0.77186 0.638644)
(0.82962 0.737522 0.66729)
(0.764755 0.752721 0.690605)
(0.813105 0.707221 0.700809)
(0.858803 0.803543 0.613544)
(0.598102 1.03479 0.736849)
(0.573891 1.06413 0.767504)
(0.579914 1.1085 0.762838)
(0.632087 1.12706 0.708335)
(0.602841 1.14199 0.743272)
(0.579081 1.1646 0.774831)
(0.633897 1.07477 0.69902)
(0.662922 1.11554 0.67567)
(0.615762 1.05281 0.715886)
(0.611616 1.00139 0.722187)
(0.647127 1.04144 0.683963)
(0.632237 0.965783 0.708573)
(0.642066 0.910595 0.711938)
(0.680879 0.887181 0.684686)
(0.698789 1.04745 0.641645)
(0.667471 1.00576 0.669914)
(0.649664 0.983904 0.68721)
(0.730996 1.08288 0.621423)
(0.697602 1.09879 0.64653)
(0.711215 0.692615 0.791)
(0.716039 0.668298 0.818492)
(0.677742 0.704094 0.814461)
(0.714796 0.649355 0.857931)
(0.748609 0.638096 0.834203)
(0.790689 0.627648 0.809714)
(0.802127 0.646779 0.770793)
(0.789286 0.608611 0.849714)
(0.749538 0.689259 0.759072)
(0.800907 0.67976 0.735036)
(0.5096 0.986556 0.92119)
(0.64974 0.710909 0.850485)
(0.709201 0.638929 0.899189)
(0.677073 0.669221 0.882889)
(0.644291 0.700223 0.891203)
(0.516438 1.20796 0.918216)
(0.512511 1.21141 0.961037)
(0.656969 0.667869 0.962123)
(0.695834 0.636846 0.962075)
(0.735057 0.608514 0.970769)
(0.782978 0.584401 0.970705)
(0.710391 0.63042 0.932754)
(0.592008 0.740736 0.97165)
(0.62322 0.701865 0.971664)
(0.637608 0.692061 0.933782)
(0.546097 0.825364 0.959096)
(0.569323 0.780442 0.958895)
(0.581238 0.766272 0.930731)
(0.527618 0.882463 0.951199)
(0.513067 0.931751 0.951447)
(0.540416 0.863505 0.910657)
(0.494919 1.04971 0.969714)
(0.501536 0.997392 0.969704)
(0.497651 1.10111 0.969577)
(0.503072 1.16156 0.961028)
(0.784938 0.588874 0.926248)
(0.783414 0.597472 0.892365)
(0.749044 0.610942 0.907621)
(0.610204 0.734747 0.90095)
(0.587872 0.774483 0.8886)
(0.563895 0.827467 0.876807)
(0.729953 1.44486 0.818876)
(0.68417 1.37981 0.780111)
(0.979751 1.53208 0.843428)
(0.801484 1.30259 0.643106)
(0.565295 1.32189 0.884127)
(1.0796 1.53573 0.865463)
(0.944218 1.20263 0.558745)
(0.908107 1.31325 0.613571)
(0.632837 1.40054 0.865781)
(0.768058 1.38964 0.726015)
(0.696869 1.30413 0.70958)
(0.711946 1.47949 0.916645)
(0.871127 1.40437 0.689656)
(0.856706 1.2386 0.592294)
(0.833938 1.46247 0.773346)
(0.865804 1.15199 0.567001)
(1.05635 1.50104 0.783194)
(0.798493 1.19673 0.602645)
(0.577016 1.36897 0.937373)
(1.01897 1.55827 0.932739)
(0.899799 1.54182 0.911174)
(0.945442 1.47676 0.750117)
(0.997378 1.30482 0.594127)
(0.615553 1.30397 0.787485)
(0.631827 1.43138 0.942549)
(0.890992 1.50953 0.824844)
(1.03755 1.37379 0.640364)
(0.962845 1.39491 0.658503)
(0.541049 1.30698 0.943975)
(1.10228 1.55019 0.940371)
(0.937848 1.11287 0.542064)
(0.802849 1.49866 0.858109)
(0.807629 1.52387 0.93572)
(1.04651 1.43579 0.695949)
(0.640182 1.24684 0.730715)
(0.732879 1.22522 0.646777)
(1.08688 1.55503 0.970233)
(1.1364 1.54427 0.969984)
(1.13478 1.53901 0.923498)
(0.681156 1.42275 0.842094)
(0.658461 1.3905 0.822852)
(0.707018 1.41264 0.799144)
(0.726686 1.3847 0.752999)
(0.749892 1.41761 0.772312)
(0.720953 1.4626 0.86776)
(0.672448 1.44042 0.890811)
(0.80118 1.42607 0.749268)
(0.7825 1.45352 0.795931)
(0.766456 1.47188 0.838032)
(0.757624 1.48881 0.887375)
(0.81863 1.48117 0.815661)
(0.563723 1.35376 0.968501)
(0.590992 1.39152 0.968564)
(0.528067 1.27794 0.971734)
(0.545634 1.32286 0.971849)
(0.559073 1.33807 0.940576)
(0.618354 1.42254 0.971198)
(0.655356 1.45245 0.971161)
(0.60424 1.40038 0.93986)
(0.695456 1.47647 0.958416)
(0.740599 1.49845 0.958135)
(0.671697 1.45547 0.929572)
(0.838044 1.53513 0.967717)
(0.788417 1.52058 0.967995)
(0.760043 1.50141 0.925945)
(0.884052 1.54402 0.955745)
(0.934884 1.55096 0.955323)
(0.854132 1.53238 0.923377)
(0.994616 1.55977 0.966594)
(1.04528 1.55931 0.966144)
(0.959652 1.54907 0.921691)
(1.06074 1.55447 0.936361)
(0.957917 1.06891 0.536042)
(0.914469 1.08773 0.545859)
(0.973835 1.1164 0.538447)
(0.558333 1.27379 0.856997)
(0.545017 1.28181 0.898826)
(0.553401 1.31437 0.914001)
(0.533024 1.27433 0.928967)
(0.58326 1.26435 0.808988)
(0.589889 1.31321 0.835415)
(0.604826 1.38468 0.901611)
(0.57139 1.34553 0.91074)
(0.598829 1.36136 0.874629)
(0.624205 1.35305 0.825909)
(1.03023 1.53466 0.853683)
(1.01834 1.51763 0.812736)
(1.06789 1.51855 0.82429)
(1.10749 1.49674 0.800271)
(1.11942 1.5151 0.841065)
(1.0494 1.54762 0.89911)
(1.09088 1.54303 0.902953)
(0.999419 1.54531 0.887984)
(1.12339 1.53107 0.885991)
(0.60856 1.25138 0.770618)
(0.650796 1.20728 0.707606)
(0.620859 1.2225 0.743048)
(0.628454 1.27541 0.758917)
(0.73176 1.17946 0.636724)
(0.69637 1.19682 0.66554)
(0.687071 1.23616 0.688116)
(0.802357 1.14765 0.591352)
(0.764332 1.16534 0.61496)
(0.766539 1.21065 0.625448)
(0.878301 1.1073 0.558969)
(0.835369 1.12541 0.573776)
(0.831987 1.17439 0.584217)
(0.902892 1.13242 0.556074)
(0.890227 1.35878 0.651308)
(0.836482 1.3537 0.666082)
(0.854641 1.30778 0.628443)
(0.829966 1.27053 0.617878)
(0.882291 1.2762 0.602933)
(0.827493 1.21776 0.597432)
(0.800472 1.24977 0.622965)
(0.767116 1.26408 0.645111)
(0.732361 1.3472 0.717383)
(0.749843 1.30333 0.676223)
(0.785763 1.34631 0.684089)
(0.820185 1.39662 0.708027)
(0.71515 1.26496 0.677292)
(0.649783 1.34204 0.783479)
(0.691425 1.34213 0.744576)
(0.657363 1.30376 0.748873)
(0.901051 1.22044 0.576581)
(0.927316 1.25864 0.585824)
(0.970926 1.25459 0.575308)
(0.953977 1.30959 0.603741)
(0.861294 1.19533 0.579343)
(0.905744 1.17697 0.564186)
(0.941425 1.15751 0.551146)
(0.994572 1.20797 0.557598)
(1.02219 1.25823 0.576956)
(0.977416 1.16127 0.547128)
(0.936011 1.35373 0.636013)
(0.916848 1.39938 0.674201)
(0.98148 1.34993 0.626048)
(0.632598 1.41605 0.904217)
(0.85344 1.43338 0.731529)
(0.668381 1.27562 0.720031)
(0.8053 1.51109 0.896935)
(0.88983 1.46845 0.761928)
(0.908644 1.44037 0.719435)
(0.955409 1.43698 0.703182)
(0.918287 1.49285 0.787845)
(0.862605 1.48594 0.798724)
(0.847379 1.50383 0.841429)
(0.997554 1.45837 0.72134)
(1.05301 1.46845 0.739074)
(1.00205 1.4898 0.765119)
(1.09582 1.43755 0.714923)
(1.10123 1.47085 0.758343)
(0.962905 1.50436 0.796471)
(1.00522 1.41611 0.676036)
(1.04226 1.40465 0.668094)
(1.00105 1.38497 0.64865)
(1.08242 1.40471 0.678155)
(1.07761 1.37399 0.650391)
(0.939812 1.5366 0.87767)
(0.895352 1.52584 0.867958)
(0.85171 1.51961 0.884105)
(0.935369 1.52005 0.833859)
(1.0179 1.33929 0.616849)
(1.04108 1.30072 0.597895)
(1.0617 1.33535 0.621189)
(0.890722 0.949126 1.22788)
(0.842601 0.834777 1.10825)
(0.755699 0.924658 1.07905)
(0.861553 1.02243 1.2302)
(0.71598 1.02342 1.064)
(0.824829 0.97176 1.1927)
(0.875047 0.882732 1.18109)
(0.797858 0.922481 1.14026)
(0.759166 1.01628 1.13658)
(0.927626 1.00545 1.2563)
(0.8053 0.837315 1.04783)
(0.805416 1.04998 1.18794)
(0.739747 1.07972 1.11248)
(0.859943 0.790719 1.04768)
(0.7115 1.09659 1.05241)
(0.71473 1.12657 1.02621)
(0.723113 1.12282 1.06464)
(0.737175 1.1142 1.0945)
(0.759528 1.10512 1.1299)
(0.725783 1.08805 1.08209)
(0.859734 0.859267 1.14326)
(0.837203 0.902645 1.16066)
(0.820728 0.879243 1.12404)
(0.800105 0.87997 1.09343)
(0.777265 0.923536 1.109)
(0.781428 0.881503 1.06325)
(0.824254 0.835813 1.07777)
(0.851645 0.812798 1.07762)
(0.832886 0.814021 1.04775)
(0.904371 0.847359 1.16455)
(0.88918 0.823153 1.12763)
(0.883276 0.801714 1.09205)
(0.891748 0.779239 1.062)
(0.757668 0.971095 1.10708)
(0.737997 1.02 1.09933)
(0.736612 0.974591 1.07102)
(0.717676 0.996235 1.0316)
(0.738345 0.947183 1.03903)
(0.749497 1.04801 1.12426)
(0.727779 1.05164 1.08778)
(0.708364 1.0435 1.03192)
(0.713534 1.05993 1.05806)
(0.705893 1.08006 1.02601)
(0.934389 0.951686 1.24116)
(0.952114 0.979509 1.25631)
(0.909342 0.977543 1.24214)
(0.966901 1.02292 1.26646)
(0.894918 1.01419 1.24371)
(0.876097 0.985885 1.22946)
(0.924675 1.03982 1.25699)
(0.891749 1.04853 1.244)
(0.850248 0.927776 1.18752)
(0.811701 0.947477 1.16588)
(0.778951 0.969744 1.13836)
(0.793026 0.99415 1.16367)
(0.819555 0.821081 1.02381)
(0.785682 0.858565 1.02349)
(0.846795 0.797799 1.02374)
(0.760987 0.902616 1.03903)
(0.921683 0.912946 1.2195)
(0.882974 0.91649 1.20439)
(0.857829 0.960529 1.21076)
(0.913487 0.879321 1.19637)
(0.843261 0.99714 1.21148)
(0.852831 1.06386 1.22164)
(0.792922 1.09027 1.16751)
(0.824697 1.0775 1.19998)
(0.833975 1.03624 1.2091)
(0.773372 1.0648 1.14859)
(0.889853 0.772424 1.02383)
(0.782715 1.03316 1.16155)
(0.815075 1.01097 1.1904)
(0.78841 1.21238 1.11062)
(1.0223 1.32884 1.11902)
(0.969578 1.34778 1.06176)
(0.984635 1.28283 1.17261)
(0.909952 1.24421 1.18552)
(0.982609 1.19597 1.23556)
(0.931213 1.30808 1.12885)
(0.88438 1.32152 1.06829)
(0.909694 1.15885 1.23339)
(1.05259 1.35372 1.05604)
(0.85724 1.27045 1.12691)
(0.846343 1.19913 1.17774)
(0.803391 1.26818 1.06066)
(0.753218 1.21056 1.05098)
(0.971533 1.12136 1.26338)
(0.927003 1.33514 1.06505)
(0.950913 1.32849 1.09532)
(0.908117 1.31518 1.09833)
(0.871148 1.29611 1.09763)
(0.893972 1.28979 1.12802)
(0.97809 1.31796 1.12337)
(1.00377 1.30591 1.14587)
(0.958789 1.29568 1.15048)
(0.996889 1.33838 1.09009)
(0.947825 1.26356 1.17872)
(0.921016 1.27675 1.15702)
(0.883945 1.25811 1.15613)
(0.743902 1.17966 1.064)
(0.735956 1.18331 1.02518)
(0.783937 1.17131 1.12908)
(0.761529 1.18047 1.0933)
(0.770824 1.21139 1.08046)
(1.06141 1.30843 1.14421)
(1.06981 1.33116 1.10502)
(1.03782 1.3415 1.08787)
(1.08557 1.34358 1.07285)
(1.08786 1.35196 1.02819)
(1.01146 1.16443 1.25336)
(1.02721 1.20691 1.23421)
(1.02885 1.25008 1.20093)
(1.04169 1.28475 1.17138)
(0.984141 1.23923 1.20291)
(1.00564 1.12656 1.26669)
(0.988544 1.08114 1.27121)
(0.977289 1.15861 1.24996)
(0.876316 1.13221 1.22358)
(0.915957 1.11646 1.24633)
(0.94148 1.13984 1.2482)
(0.946816 1.09761 1.26034)
(0.878385 1.17915 1.20522)
(0.845306 1.1519 1.19491)
(0.946818 1.17696 1.23405)
(0.91035 1.20118 1.20854)
(0.877959 1.22194 1.18184)
(0.947608 1.21933 1.20897)
(0.759025 1.22561 1.02544)
(0.81319 1.16455 1.16239)
(0.818006 1.20559 1.14312)
(0.796186 1.2401 1.08558)
(0.77849 1.23915 1.05556)
(0.830824 1.26901 1.09298)
(0.823157 1.24108 1.11815)
(0.852234 1.23505 1.15203)
(1.03887 1.35736 1.02786)
(1.0119 1.35 1.0588)
(0.997937 1.35403 1.03108)
(0.784062 1.25454 1.02988)
(0.819175 1.28786 1.03044)
(0.904955 1.33534 1.03442)
(0.859788 1.31468 1.03365)
(0.844026 1.29485 1.06415)
(0.947721 1.34811 1.03071)
(0.906491 1.17263 0.77339)
(1.04393 1.32351 0.869991)
(0.838231 1.28138 0.912101)
(0.992638 1.19887 0.762365)
(0.862531 1.24454 0.845154)
(0.950869 1.31237 0.869428)
(0.841534 1.16489 0.8092)
(0.939292 1.24953 0.80787)
(0.790368 1.20269 0.879111)
(1.00923 1.2747 0.81348)
(1.01635 1.35161 0.937137)
(0.972898 1.12468 0.737487)
(0.906416 1.33421 0.942427)
(0.769078 1.2326 0.949239)
(0.762254 1.17604 0.901522)
(0.784397 1.16682 0.865517)
(0.744022 1.19409 0.97513)
(0.752014 1.19057 0.936311)
(0.779858 1.21753 0.914571)
(0.816678 1.18353 0.845555)
(0.810482 1.14777 0.831049)
(0.842264 1.13511 0.79799)
(0.914267 1.1233 0.757082)
(0.940604 1.14851 0.755492)
(0.94745 1.09921 0.740451)
(0.982974 1.16159 0.749505)
(0.950534 1.18534 0.768517)
(0.900712 1.24769 0.826353)
(0.923228 1.2109 0.791137)
(0.885577 1.20866 0.810198)
(0.967025 1.22389 0.786135)
(0.874557 1.13893 0.779568)
(0.874114 1.1688 0.791172)
(0.852642 1.20442 0.827693)
(0.767048 1.23661 0.974491)
(0.827194 1.22289 0.862994)
(0.815005 1.24154 0.895974)
(0.851059 1.26297 0.879215)
(0.804029 1.25662 0.931319)
(0.989237 1.08283 0.729302)
(1.00635 1.12823 0.733762)
(1.01658 1.16569 0.745907)
(0.98145 1.29348 0.842296)
(0.975034 1.26184 0.811187)
(0.945594 1.28146 0.838924)