/*--------------------------------*- C++ -*----------------------------------*\
| =========                 |                                                 |
| \\      /  F ield         | OpenFOAM: The Open Source CFD Toolbox           |
|  \\    /   O peration     | Version:  v1806                                 |
|   \\  /    A nd           | Web:      www.OpenFOAM.com                      |
|    \\/     M anipulation  |                                                 |
\*---------------------------------------------------------------------------*/
FoamFile
{
    version     2.0;
    format      ascii;
    class       volScalarField;
    location    "0.137";
    object      p;
}
// * * * * * * * * * * * * * * * * * * * * * * * * * * * * * * * * * * * * * //

dimensions      [0 2 -2 0 0 0 0];


internalField   nonuniform List<scalar> 
64000
(
0.000357402
0.128482
0.243919
0.375814
0.611278
0.921927
1.29663
1.82508
2.56287
3.42193
4.31687
5.37927
6.52117
7.79235
9.18105
10.5286
12.2066
13.7254
15.5286
16.9564
19.4042
20.6341
21.9573
23.0278
24.2928
25.3567
26.4565
27.3611
28.1264
28.6681
29.3603
30.011
30.5293
31.0153
31.3761
31.7271
31.9344
32.1324
32.2447
32.3127
-0.227897
-0.0660569
0.0499671
0.188763
0.427539
0.714418
1.0333
1.56995
2.34501
3.23777
4.12712
5.22956
6.4149
7.66531
9.03031
10.1832
12.1119
13.7389
15.4732
17.0373
19.2934
20.6792
22.0268
23.1487
24.4238
25.4845
26.5807
27.4626
28.2803
28.8877
29.3479
30.014
30.5538
31.0235
31.3854
31.6896
31.9323
32.1293
32.2447
32.2973
-0.699065
-0.561843
-0.456192
-0.281474
-0.0408744
0.207292
0.534998
1.15046
1.90175
2.70381
3.61079
4.61344
5.80848
7.30848
8.7388
10.2337
11.9197
13.5212
15.2476
16.8174
18.9829
20.3713
21.7211
22.8071
24.0656
25.0962
26.1717
27.0658
27.8972
28.6068
29.1942
29.7079
30.353
30.8644
31.2795
31.5942
31.8305
32.025
32.1483
32.2104
-1.45943
-1.36133
-1.23861
-1.05741
-0.800961
-0.644311
-0.197802
0.396034
1.12048
1.84898
2.96586
4.12535
5.39278
6.77117
8.2749
9.80139
11.4627
13.1147
14.8691
16.4616
18.5705
19.9753
21.3174
22.4107
23.6638
24.6937
25.7726
26.6694
27.538
28.2762
28.9658
29.58
30.1656
30.7222
31.164
31.4748
31.7519
31.9078
32.0148
32.0848
-2.40369
-2.35429
-2.262
-2.08684
-1.81376
-1.63734
-1.22223
-0.635148
0.145428
1.0146
2.09743
3.25359
4.52226
5.9517
7.50074
9.08213
10.8164
12.5597
14.3734
16.0432
18.1761
19.6002
20.9625
22.0552
23.3132
24.3451
25.4201
26.3193
27.1829
27.964
28.6779
29.3584
29.9131
30.463
30.9715
31.4051
31.621
31.7393
31.8467
31.9093
-3.76977
-3.64732
-3.47913
-3.30835
-3.00651
-2.69689
-2.49056
-1.81661
-0.811583
-0.0582432
0.962041
2.13125
3.48513
4.9388
6.51508
8.07039
9.82493
11.8855
13.922
15.7336
17.9132
19.3696
20.75
21.8845
23.1543
24.2051
25.2562
26.1328
26.9704
27.7515
28.4815
29.1833
29.8154
30.3651
30.8813
31.3403
31.4527
31.5337
31.5853
31.6316
-5.45883
-5.35759
-5.15291
-4.83684
-4.50638
-4.25365
-3.85912
-3.21098
-2.49918
-1.65071
-0.530999
0.725783
2.16367
3.72571
5.4288
7.22154
9.14062
11.0441
13.2327
15.3188
17.5813
19.191
20.6323
21.8038
23.0778
24.1447
25.1616
26.0304
26.8378
27.586
28.2883
28.9486
29.581
30.145
30.7064
31.0941
31.2153
31.212
31.2496
31.2775
-6.73945
-6.66728
-6.5929
-6.43455
-6.24634
-6.05118
-5.50635
-4.98693
-4.16563
-3.24624
-2.1006
-0.807825
0.703742
2.36948
4.21028
6.14345
8.20573
10.2886
12.3018
14.7445
17.135
18.9955
20.5675
21.7798
23.0665
24.1544
25.1457
25.9981
26.7413
27.4713
28.123
28.7269
29.3083
29.8375
30.2907
30.7426
30.8251
30.8185
30.8108
30.8342
-8.07135
-8.04549
-8.01649
-7.87611
-7.55913
-7.4425
-7.02208
-6.65536
-5.84426
-4.96464
-3.81219
-2.48219
-0.914745
0.815688
2.76412
4.83474
7.05626
9.28388
11.4813
14.1157
16.6774
18.8211
20.5053
21.8109
23.0809
24.2035
25.1665
25.9806
26.7091
27.3536
27.947
28.5029
28.9942
29.4775
29.9206
30.2595
30.3902
30.3327
30.2712
30.2981
-9.43005
-9.40795
-9.34672
-9.29393
-9.14926
-9.1033
-8.59897
-8.53053
-7.64889
-6.72359
-5.5917
-4.21813
-2.6335
-0.84253
1.19553
3.40063
5.78357
8.19908
10.6871
13.4992
16.2844
18.639
20.448
21.8574
23.1356
24.2849
25.2154
26.0221
26.7043
27.2652
27.7679
28.2343
28.6615
29.0778
29.4345
29.7334
29.7982
29.7453
29.6432
29.6649
-10.9001
-10.8172
-10.8205
-10.803
-10.7866
-10.8021
-10.3928
-10.1024
-9.57402
-8.56974
-7.42665
-6.06353
-4.44633
-2.59024
-0.46138
1.90292
4.50397
7.09807
10.1548
13.1059
16.0099
18.5307
20.4356
21.9491
23.2329
24.429
25.3128
26.0946
26.6581
27.1717
27.5792
27.9232
28.264
28.5625
28.8796
29.0814
29.124
29.0457
28.9001
28.9186
-12.3472
-12.29
-12.3275
-12.3796
-12.5224
-12.5069
-12.198
-11.862
-11.421
-10.546
-9.36044
-7.99598
-6.37451
-4.46649
-2.17349
0.292396
3.19843
6.35442
9.61264
12.6442
15.7226
18.4509
20.4771
22.0565
23.3521
24.5178
25.4066
26.1142
26.6572
27.0531
27.426
27.7176
27.9286
28.192
28.3828
28.4544
28.3443
28.2117
28.0652
28.0561
-13.884
-13.8388
-13.9033
-14.0775
-14.256
-14.2325
-14.0249
-13.6836
-13.1203
-12.6746
-11.4309
-10.0172
-8.38626
-6.55711
-3.93526
-0.982504
2.18895
5.50215
8.88016
12.1097
15.3986
18.4513
20.6053
22.2522
23.6317
24.7417
25.5174
26.1617
26.5486
26.8518
26.9808
27.098
27.2256
27.3407
27.4857
27.6478
27.5244
27.2862
27.0926
27.0525
-15.3829
-15.3517
-15.4719
-15.7351
-15.9329
-15.9313
-15.7665
-15.5145
-15.0518
-14.5372
-13.5629
-12.1012
-10.4711
-8.03892
-5.38558
-2.41068
0.904506
4.38685
7.96641
11.4058
14.9158
18.4616
20.7
22.3125
23.6344
24.8171
25.5533
26.045
26.3398
26.4777
26.4997
26.4981
26.471
26.4781
26.5306
26.6043
26.7299
26.207
25.995
25.9328
-16.982
-16.977
-17.1345
-17.4039
-17.6374
-17.7002
-17.5579
-17.3589
-17.0008
-16.412
-15.623
-13.8065
-11.7644
-9.53647
-7.0128
-4.0368
-0.576423
3.07579
6.70663
10.5055
14.5474
18.5609
20.9276
22.6704
23.9771
24.9378
25.6829
26.0178
26.0759
26.0505
25.9127
25.7413
25.5894
25.4689
25.4025
25.3949
25.3258
25.3903
24.7194
24.6456
-18.3541
-18.3957
-18.5798
-18.8516
-19.1065
-19.2578
-19.263
-19.126
-18.7885
-18.09
-17.1394
-15.22
-13.3436
-11.1756
-8.63194
-5.77361
-2.4525
1.2259
5.87208
9.78439
14.1119
18.6555
21.1694
22.9453
24.0671
24.904
25.3894
25.7
25.6644
25.4233
25.092
24.7745
24.4904
24.2721
24.1225
24.0134
23.8822
23.6544
23.3141
23.1622
-20.029
-20.0684
-20.2351
-20.5042
-20.7938
-21.0174
-21.1085
-20.9999
-20.5937
-19.7568
-18.5971
-16.9846
-15.0628
-12.7543
-10.1177
-7.21766
-4.28458
0.452916
5.07982
9.22709
13.5536
18.2129
20.9698
22.6968
24.0491
24.8894
25.0973
25.0512
24.8974
24.529
23.9976
23.5117
23.0687
22.7593
22.5534
22.4332
22.221
22.054
22.1751
21.5766
-20.9475
-21.0482
-21.2508
-21.5594
-21.9497
-22.3429
-22.6183
-22.6029
-22.2004
-21.2528
-20.142
-18.6395
-16.6766
-14.252
-11.4529
-8.77338
-5.22774
-0.627694
4.36577
8.51923
12.6141
16.9353
19.785
21.6254
23.377
24.2819
24.4613
24.2192
23.6063
22.9285
22.3285
21.8293
21.4079
21.0862
20.8436
20.6859
20.5154
20.1911
19.9526
19.6641
-22.5694
-22.6088
-22.7379
-23.03
-23.4036
-23.8933
-24.3915
-24.4351
-24.114
-22.8387
-21.9635
-20.4231
-18.4945
-16.0222
-13.2572
-9.93866
-6.23008
-1.66316
3.29009
7.44431
11.3675
14.952
17.5607
19.2226
20.772
21.8353
22.2855
22.2885
21.9176
21.1674
20.2798
19.7572
19.0075
18.52
18.2645
18.1574
18.0732
18.0794
17.927
18.0257
-22.5309
-22.7023
-22.9242
-23.3241
-23.8968
-24.9272
-26.0817
-26.4007
-26.1959
-25.1156
-24.3345
-22.6582
-20.6048
-17.8429
-14.6462
-10.989
-7.05296
-2.63096
2.28138
6.36712
9.93477
13.2607
15.2045
16.3467
17.1424
17.7007
17.8989
17.7369
17.4378
17.0776
17.2104
17.2204
16.8224
16.2735
15.9354
15.8149
15.7156
15.6423
15.5252
15.7213
-24.6126
-24.321
-24.4888
-24.7936
-25.3919
-26.7842
-28.2087
-28.639
-28.5301
-27.604
-26.7622
-24.9186
-22.6626
-19.5687
-15.9559
-12.0723
-7.96144
-3.50271
1.31668
5.37882
8.5676
11.695
13.1841
13.8907
14.1607
14.4146
14.5352
14.1172
13.3665
12.5402
11.8746
11.7553
12.4149
12.9894
13.2002
13.2371
13.2004
13.1976
13.1602
12.8587
-24.9968
-25.0373
-25.2279
-25.7213
-26.4755
-27.9274
-29.4461
-30.096
-30.2943
-29.3442
-28.6448
-26.8389
-24.6121
-21.365
-17.4725
-13.2747
-9.00975
-4.27858
0.535679
4.78019
7.62128
10.2938
11.6166
11.853
11.8756
12.0472
12.2426
12.1134
11.5449
10.6784
9.54334
8.5524
8.00498
6.64142
7.64358
9.02353
9.72352
10.1088
10.5226
10.6554
-25.7991
-25.842
-26.1046
-26.6246
-27.4977
-28.8546
-30.3037
-31.1691
-31.499
-30.9059
-30.2181
-28.5215
-26.3851
-23.1539
-19.193
-14.8354
-10.006
-5.35693
-0.322364
4.27908
6.97422
9.07006
10.0942
9.72872
9.43529
9.727
9.91172
9.90392
9.55118
8.87524
7.92374
6.89312
6.34178
5.16536
3.74431
4.2356
4.57126
4.72568
4.71049
4.37191
-25.8417
-26.1092
-26.3482
-27.0091
-28.0281
-29.1871
-30.3894
-31.3278
-31.8059
-31.6607
-30.9927
-29.5683
-27.6786
-24.719
-20.9445
-17.1502
-12.5214
-7.25099
-1.68343
3.3275
6.22608
8.22616
9.11306
8.49293
8.01918
8.14621
8.2286
8.2193
7.90768
7.26761
6.30828
5.20619
4.19081
3.64808
2.39965
2.44336
2.34536
2.3005
2.36054
2.54964
-25.6639
-25.6451
-26.1547
-26.9496
-27.9545
-28.9503
-29.9127
-30.7632
-31.3185
-31.39
-30.7263
-29.6727
-28.1336
-25.5408
-22.2777
-19.4341
-15.5531
-10.2948
-4.02909
1.85845
5.21218
7.65793
9.14731
8.94398
8.44541
7.95363
7.51312
7.19635
6.89154
6.24758
5.28434
4.15324
2.99308
2.00531
1.2099
0.897272
0.558971
0.454379
0.49483
0.64814
-24.9694
-25.1445
-25.3238
-26.2383
-27.1703
-28.0029
-28.6891
-29.2977
-29.6755
-29.5482
-28.9244
-27.9927
-26.7878
-24.2806
-21.2756
-19.2689
-17.0298
-12.6814
-5.39449
1.63498
5.31917
7.71485
10.3813
10.4962
10.0112
8.95645
7.83945
6.96351
6.3408
5.55716
4.37514
3.09619
1.6333
0.338785
-0.308876
-0.860872
-1.38656
-1.57212
-1.62641
-1.54764
-23.5785
-24.1079
-23.7549
-24.749
-25.7939
-26.2945
-26.4867
-26.6082
-26.7224
-26.3973
-25.9585
-24.6238
-23.098
-20.9165
-18.1168
-15.4638
-12.8251
-8.71588
-2.23452
4.80205
8.43267
10.6168
13.1909
13.4143
12.602
11.0002
9.27477
7.84154
6.66949
5.5318
4.13876
2.71773
0.691844
-0.442736
-1.19363
-1.99361
-2.69972
-3.00666
-3.19418
-3.0213
-22.4914
-22.539
-22.4433
-22.5913
-23.5943
-23.7299
-23.826
-23.7064
-23.4753
-22.8397
-21.961
-20.1197
-18.3122
-16.4653
-13.2601
-10.1767
-7.20991
-3.10409
2.86252
9.09257
13.2156
15.6533
17.1492
16.9943
15.8756
13.7128
11.3243
9.20968
7.2137
5.38669
3.21831
1.07969
-1.68265
-3.18362
-4.05226
-4.92668
-5.71358
-6.05851
-6.25688
-5.88847
-20.791
-20.3649
-20.6942
-20.277
-20.9601
-20.9582
-20.6898
-20.0315
-19.3596
-18.9238
-18.1528
-16.2037
-13.9661
-12.1899
-9.79309
-6.72071
-2.93613
1.57012
7.15268
13.0793
17.4894
19.884
22.078
21.5877
19.3538
16.3555
13.1895
10.2271
7.2966
4.47921
1.46658
-0.732179
-3.43949
-5.14
-6.45179
-7.55902
-8.77615
-9.54244
-10.2984
-10.6456
-18.8772
-18.6064
-18.3019
-17.7772
-17.9593
-17.3837
-16.6295
-15.9918
-15.3521
-14.3661
-12.9728
-11.4579
-8.54888
-6.24029
-4.46537
-1.30859
2.61486
7.20735
11.9618
17.1256
21.6349
24.0928
26.0732
25.3398
22.9747
19.2365
15.2608
11.5496
7.71004
4.22484
0.631325
-1.90545
-4.17263
-6.56694
-8.21137
-9.60423
-11.1327
-12.0336
-12.793
-12.8697
-16.6401
-16.4806
-16.0347
-15.1751
-14.6417
-13.8159
-12.934
-11.825
-10.4835
-8.92186
-7.26817
-6.01258
-3.04683
0.0809122
2.61822
4.89129
8.9564
13.246
17.2021
21.2835
24.9773
27.6509
29.3219
28.2137
25.296
21.4002
16.7814
12.297
7.47769
3.65787
-0.211352
-2.88604
-5.42192
-7.32656
-9.73794
-11.4897
-13.2907
-14.2132
-14.8991
-14.9508
-14.0725
-13.7759
-13.3492
-12.5746
-11.1659
-9.7481
-8.46342
-6.93798
-5.23862
-3.38287
-1.54829
-0.0742147
2.28117
5.80933
9.34964
12.4642
15.9092
19.8035
22.946
25.7035
28.3116
30.9772
31.959
30.4982
27.1037
23.0093
17.6659
12.9664
7.44825
2.25816
-1.32617
-4.24235
-6.87764
-8.43784
-11.5984
-13.4654
-15.5186
-16.2861
-16.928
-16.7201
-11.559
-11.2154
-10.5579
-9.38054
-7.45278
-5.60115
-4.07592
-2.26809
-0.247204
1.89445
4.02777
5.97137
8.57312
11.892
15.2955
18.9406
22.2415
25.9437
28.7809
30.0706
32.1586
33.921
34.0596
32.2114
28.3241
24.1315
18.4546
13.4394
7.73338
0.99597
-2.58028
-5.68237
-8.66246
-9.95074
-13.3562
-15.4248
-17.5966
-18.2661
-18.8549
-18.2997
-8.87384
-8.43114
-7.65997
-6.25827
-4.47097
-2.07214
-0.0366823
2.251
4.57679
7.03708
9.52244
12.0192
14.9466
18.0929
21.4646
24.9478
27.7784
30.2386
33.3138
34.2536
35.521
36.5228
35.8223
33.5132
29.1408
24.7236
18.8538
13.4523
7.45136
-0.0420149
-4.37965
-7.23146
-10.2026
-11.6822
-14.8908
-17.1769
-19.5939
-19.934
-20.6337
-19.471
-5.996
-5.7135
-4.94936
-3.7334
-1.9179
0.128651
3.05557
5.65303
8.60385
11.4746
14.0961
16.881
19.9373
23.1765
26.3127
29.3588
31.8001
34.037
36.0846
36.999
38.2091
38.3711
37.1498
34.4221
29.6308
24.9675
18.8648
13.4545
7.00072
-0.51903
-5.19556
-8.81244
-12.0268
-13.4355
-16.9267
-18.6838
-21.1861
-21.748
-22.2826
-20.4444
-3.18585
-2.87993
-2.52719
-1.11592
0.602033
2.7455
5.50827
9.04214
12.1251
15.1046
17.5244
20.4006
23.4213
26.4091
29.4423
32.3416
34.7229
36.562
38.2856
39.6189
40.0662
39.9384
37.9793
34.7921
30.0394
25.1694
18.8404
13.3588
6.49376
-1.36083
-6.19133
-10.2041
-13.5359
-15.1536
-18.2929
-19.0393
-23.1906
-22.5977
-23.5482
-20.7124
-1.32777
-1.33044
-0.560628
0.531564
2.58118
4.89548
7.67625
11.5571
14.6784
17.3932
20.0449
22.9754
25.9983
29.0151
31.7778
34.4219
36.7364
38.5214
39.9611
41.4293
41.4523
41.2247
38.3174
34.9568
29.9795
25.1586
18.897
13.2347
5.92718
-2.08421
-7.33524
-11.059
-15.1989
-17.0171
-19.9692
-20.5073
-23.1101
-24.3255
-24.2436
-20.4804
-1.14572
0.369463
1.13409
2.59302
4.25469
6.95004
10.3084
13.3942
16.2773
19.2811
22.1912
25.0961
27.9789
30.8639
33.5031
35.995
38.1149
39.88
41.2201
42.577
42.1789
41.827
38.9905
35.5497
30.3914
25.3335
19.0696
13.2788
5.43432
-2.52467
-8.13449
-11.6761
-15.5076
-17.8628
-20.9726
-21.7908
-23.7932
-23.1439
-23.5496
-16.6856
0.0492048
0.569087
2.00058
3.48968
4.89465
8.25983
11.1464
14.5718
17.7128
20.7652
23.7369
26.6137
29.2743
31.9108
34.3762
36.832
38.9986
40.7927
42.0185
43.322
42.7401
42.1836
39.4098
35.6796
30.803
25.5616
19.2355
13.2622
5.01
-2.90512
-8.98893
-12.6734
-16.4482
-18.5744
-21.8952
-22.4028
-25.1074
-22.7459
-21.8015
-12.2216
-1.75785
1.78202
2.95215
4.81737
6.41749
9.11734
12.249
15.2632
18.4293
21.6076
24.581
27.4408
30.0043
32.4662
34.7356
37.1161
39.2347
41.0908
42.2979
43.6437
43.1196
42.4834
39.8385
36.0966
31.3915
25.9502
19.4359
13.1507
4.64193
-3.16067
-9.52117
-13.2058
-16.9165
-18.608
-21.885
-21.9402
-23.5752
-18.9153
-14.4499
0.39153
-0.00448326
0.102266
0.248023
0.44859
0.694184
1.00635
1.36689
1.82445
2.59236
3.48309
4.36701
5.48033
6.61839
7.85467
9.23336
10.5939
12.2023
13.6838
15.4916
17.1007
19.2903
20.6569
21.9331
23.0807
24.3331
25.387
26.458
27.3307
28.1538
28.7984
29.2835
29.9956
30.562
31.0451
31.3723
31.7735
32.0349
32.2091
32.3177
32.3885
-0.201278
-0.128379
0.0199049
0.214286
0.460425
0.771122
1.16027
1.58332
2.35907
3.26589
3.96397
5.28613
6.40689
7.66288
9.04981
10.4444
12.1314
13.7512
15.4901
17.1183
19.2173
20.6664
21.9949
23.1173
24.3495
25.3809
26.4369
27.2972
28.1189
28.7978
29.3904
29.9501
30.598
30.9988
31.409
31.7468
31.9946
32.1883
32.3001
32.3653
-0.638309
-0.537285
-0.38573
-0.258638
-0.0188248
0.251195
0.557389
1.01482
1.94445
2.76448
3.66188
4.77218
5.96512
7.32233
8.76576
10.2484
11.9111
13.5306
15.2415
16.864
18.8907
20.3101
21.63
22.7053
23.9421
24.9515
26.0029
26.8676
27.7112
28.4417
29.1164
29.7535
30.3688
30.8625
31.3571
31.6308
31.8791
32.0837
32.2047
32.3009
-1.38055
-1.23389
-1.14376
-1.02379
-0.738398
-0.635019
-0.116263
0.423886
1.19018
2.02818
3.02875
4.18012
5.43807
6.7985
8.29778
9.79101
11.4575
13.1085
14.8607
16.4826
18.4731
19.8883
21.211
22.314
23.5526
24.5807
25.6529
26.5485
27.441
28.2158
28.9274
29.5747
30.1946
30.7628
31.2476
31.5913
31.848
31.9692
32.0863
32.1592
-2.34671
-2.26074
-2.17123
-2.01933
-1.71199
-1.5588
-1.14391
-0.587951
0.219803
1.10912
2.1552
3.30463
4.5757
5.99114
7.51823
9.05426
10.7722
12.5143
14.2878
15.9859
18.0661
19.4846
20.8494
21.9673
23.2424
24.2474
25.3783
26.3108
27.2221
28.03
28.7752
29.4243
29.9692
30.5555
31.096
31.4948
31.7084
31.827
31.901
31.9685
-3.60893
-3.48367
-3.36886
-3.11118
-2.99913
-2.7442
-2.38777
-1.75818
-0.874182
-0.0289222
0.970644
2.14583
3.50063
4.96635
6.54998
8.15469
9.91748
11.8635
13.8676
15.6942
17.8127
19.295
20.6891
21.8503
23.1311
24.2025
25.2712
26.1782
27.0291
27.8472
28.5976
29.346
29.9188
30.4682
30.9988
31.4011
31.5425
31.6206
31.6584
31.6905
-5.31941
-5.17006
-4.9538
-4.61073
-4.48184
-4.25096
-3.82372
-3.2599
-2.50475
-1.63439
-0.519607
0.739565
2.17265
3.72894
5.42744
7.24195
9.19531
11.1898
13.294
15.3154
17.5493
19.1444
20.6286
21.8356
23.1236
24.2006
25.2567
26.138
26.9801
27.7175
28.4323
29.0754
29.6925
30.2731
30.8468
31.1824
31.2986
31.3103
31.3318
31.3288
-6.65122
-6.58471
-6.48749
-6.29434
-6.17641
-6.02208
-5.58068
-4.98183
-4.16626
-3.24124
-2.10002
-0.768357
0.710324
2.39054
4.24328
6.1817
8.27255
10.3704
12.5729
14.7883
17.1958
18.9925
20.6035
21.86
23.1556
24.2416
25.2838
26.1689
26.9733
27.6214
28.2608
28.8854
29.3769
29.9793
30.4574
30.8505
30.9196
30.9088
30.9033
30.8883
-8.00878
-7.97448
-7.9083
-7.82766
-7.5567
-7.54554
-7.11931
-6.65782
-5.87607
-4.96883
-3.81718
-2.45823
-0.9086
0.863936
2.8279
4.91723
7.15198
9.40905
11.7988
14.198
16.7723
18.853
20.5726
21.9191
23.2046
24.3024
25.3335
26.2148
26.9344
27.5842
28.1236
28.6258
29.1547
29.6299
30.0711
30.3902
30.4788
30.4223
30.3756
30.3516
-9.3919
-9.38127
-9.33752
-9.30565
-9.14837
-9.2131
-8.85016
-8.41921
-7.69044
-6.76871
-5.59905
-4.23725
-2.63939
-0.785611
1.29715
3.52711
5.92559
8.38094
10.9938
13.6102
16.3671
18.7112
20.5358
21.9991
23.2896
24.4169
25.4281
26.2191
26.9787
27.4642
27.9795
28.4361
28.8062
29.1893
29.6227
29.865
29.9377
29.8419
29.7533
29.7192
-10.8904
-10.8986
-10.9072
-10.7998
-10.7846
-10.9799
-10.6074
-10.1972
-9.50931
-8.60379
-7.48653
-6.09691
-4.45813
-2.54056
-0.313713
2.1006
4.70071
7.40107
10.3081
13.1552
16.0729
18.6151
20.5423
22.1163
23.4089
24.5956
25.5124
26.3039
26.8031
27.4018
27.8345
28.2065
28.547
28.7678
29.1727
29.3523
29.2485
29.1522
29.0172
28.9718
-12.3564
-12.3461
-12.3879
-12.4018
-12.5661
-12.6311
-12.4258
-12.1816
-11.5938
-10.5586
-9.43109
-8.02269
-6.34846
-4.35341
-1.98459
0.64356
3.49039
6.49962
9.65423
12.7095
15.8056
18.5311
20.6168
22.2676
23.6073
24.7611
25.6125
26.2709
26.9001
27.2353
27.5437
27.7691
27.9564
28.1625
28.1994
28.5624
28.6547
28.3426
28.1678
28.1122
-13.9067
-13.913
-13.988
-14.1507
-14.3257
-14.2457
-14.3649
-13.9959
-13.5499
-12.7741
-11.4226
-9.98104
-8.2457
-6.18642
-3.66762
-0.791414
2.30413
5.5619
8.92593
12.1928
15.5158
18.5154
20.7715
22.5094
23.9177
25.0161
25.8144
26.48
26.767
27.1279
27.255
27.3176
27.3976
27.4131
27.522
27.5829
27.6819
27.5651
27.1931
27.1578
-15.427
-15.4512
-15.5931
-15.8562
-16.0333
-16.061
-15.895
-15.9614
-15.4521
-14.9564
-13.4756
-11.8708
-10.1068
-7.93437
-5.37057
-2.37205
0.939055
4.41877
7.98851
11.4829
15.1175
18.5626
21.0056
22.7927
24.0337
25.1129
25.9072
26.4125
26.7434
26.8199
26.8136
26.8075
26.7527
26.7241
26.6311
26.6981
26.5908
26.5036
26.0261
25.9659
-17.0435
-17.1108
-17.3162
-17.5779
-17.7675
-17.8483
-17.7482
-17.5939
-17.4376
-16.9751
-15.402
-13.644
-11.8242
-9.66327
-7.12394
-4.0918
-0.642693
2.97569
6.7033
10.5322
14.6652
18.5963
21.2846
23.057
24.4452
25.522
26.1681
26.5029
26.5359
26.4586
26.2894
26.0711
25.8859
25.7348
25.6309
25.4724
25.4246
25.1335
25.1252
24.6968
-18.4826
-18.5634
-18.7731
-19.0555
-19.2944
-19.4752
-19.4979
-19.3541
-19.0349
-18.6172
-17.2353
-15.3822
-13.6132
-11.4395
-8.85744
-5.9322
-2.57466
1.17962
5.53934
9.71937
14.1823
18.7216
21.5007
23.4993
24.7867
25.6549
26.1101
26.2841
26.1707
25.8904
25.502
25.137
24.8052
24.5459
24.3554
24.1924
24.0397
23.7853
23.5326
23.2392
-20.1578
-20.216
-20.4184
-20.6982
-20.8844
-21.2338
-21.3503
-21.276
-20.8699
-20.1477
-18.925
-17.2893
-15.4306
-13.097
-10.4118
-7.46345
-4.29699
-0.0219821
4.86855
9.4002
13.8311
18.2913
21.3934
23.5032
24.8817
25.6745
25.9157
25.8399
25.4957
25.0038
24.4257
23.8814
23.4003
23.0395
22.7773
22.5947
22.4831
22.2051
22.1199
22.0873
-21.1668
-21.2898
-21.5087
-21.8421
-22.1134
-22.6275
-22.8994
-22.9474
-22.5937
-21.8408
-20.3402
-19.0062
-17.166
-14.6775
-11.8545
-8.89436
-5.48357
-0.921594
4.52852
8.85639
13.0628
17.3369
20.4502
22.6306
24.215
25.0134
25.131
24.8814
24.3171
23.6348
22.8995
22.2697
21.7154
21.2847
20.975
20.7713
20.6448
20.4112
20.0758
19.7864
-22.7168
-22.7274
-22.9446
-23.1149
-23.5112
-24.1517
-24.6781
-24.8431
-24.5233
-23.869
-22.075
-20.7848
-19.0487
-16.4245
-13.4775
-10.1273
-6.42934
-1.45612
3.60333
7.90971
12.059
15.8201
18.6383
20.5034
21.8365
22.5129
22.7247
22.6102
22.1633
21.4342
20.651
20.0325
19.4363
18.9851
18.6606
18.4851
18.3709
18.2208
17.9646
17.7081
-22.8513
-22.9122
-23.2141
-23.4735
-24.1038
-25.1886
-26.3331
-26.7999
-26.6902
-26.1454
-24.6349
-22.824
-21.1393
-18.2055
-14.8187
-10.9197
-7.09065
-2.30297
2.93496
7.03631
10.5068
13.7936
16.1146
17.2516
17.9802
18.4924
18.4612
18.1487
17.7544
17.2893
17.0408
16.9201
16.6328
16.3489
16.1465
16.0563
15.9909
15.8759
15.7118
15.4668
-24.4547
-24.3537
-24.6291
-24.8273
-25.6484
-26.9701
-28.4445
-29.1049
-29.0911
-28.5448
-27.2392
-25.2705
-23.3045
-19.9752
-16.0557
-11.7821
-7.41481
-2.83546
2.04904
6.01629
8.82099
11.7256
13.7257
14.0555
14.3465
14.8211
15.0174
14.4595
13.5325
12.8666
11.9997
11.6628
11.9785
12.4853
12.7767
13.0178
13.1361
13.1798
13.1081
12.8064
-25.2821
-25.1495
-25.4755
-25.7549
-26.7117
-28.1661
-29.7722
-30.6658
-30.911
-30.4055
-29.4682
-27.4394
-25.4079
-21.9297
-17.5665
-12.8582
-7.84337
-3.1671
1.49314
5.62196
7.86883
10.5126
11.8831
11.7376
11.5471
11.8244
12.2789
12.1618
11.4798
10.5022
9.52471
8.40549
7.50969
6.83804
7.3276
8.56564
9.27873
9.73492
9.97701
10.5009
-26.1659
-26.0081
-26.3773
-26.8172
-27.8036
-29.2046
-30.7355
-31.8062
-32.2378
-32.0216
-31.4178
-29.3228
-27.4373
-24.0699
-19.5602
-14.7444
-9.33689
-4.13074
0.961756
5.67257
7.69039
9.24793
10.1854
9.04963
8.40933
9.04279
9.50075
9.63813
9.3136
8.5366
7.48998
6.7319
5.63521
4.53215
3.57569
4.02794
4.53812
4.82216
4.88257
4.64281
-26.395
-26.3115
-26.6511
-27.3292
-28.3702
-29.6493
-30.9501
-32.0568
-32.7117
-32.8205
-32.4418
-30.8169
-29.2045
-26.3371
-22.0784
-17.956
-12.7707
-6.61963
-0.619216
4.86908
7.12121
8.67521
9.11699
7.5332
6.74551
7.10998
7.47297
7.62721
7.431
6.8551
5.88212
4.86384
3.87023
2.88797
1.91726
1.87462
1.93935
2.01912
2.14372
2.27708
-26.0358
-26.1239
-26.5149
-27.3473
-28.4822
-29.5868
-30.6568
-31.6732
-32.4064
-32.6843
-32.3929
-31.4243
-30.1555
-27.8893
-24.2469
-21.4411
-17.3608
-11.9148
-4.31243
2.95419
6.02285
8.36618
9.46313
8.68761
7.68705
6.95375
6.53967
6.40347
6.2477
5.73859
4.85572
3.60834
2.81639
1.70777
0.809752
0.428991
0.126944
0.08692
0.233288
0.452297
-25.3864
-25.4388
-25.6962
-26.6374
-27.7834
-28.7548
-29.5804
-30.3456
-30.9388
-31.1623
-30.905
-30.1641
-28.9412
-27.0705
-24.0855
-22.0986
-20.0616
-16.0122
-7.78802
1.35275
5.17433
8.2483
10.5936
10.4539
9.54565
8.05858
6.75111
5.98599
5.7386
5.08997
4.06107
2.56898
1.54895
0.446091
-0.531031
-1.1599
-1.70615
-1.8236
-1.76071
-1.55362
-24.3487
-24.4309
-24.6069
-25.5041
-26.5521
-27.257
-27.721
-28.0832
-28.3603
-28.366
-28.0421
-27.211
-25.4651
-23.6585
-20.8359
-17.9512
-15.5148
-11.3877
-3.86785
4.62062
8.83166
11.1354
13.4612
13.4807
12.3921
10.3728
8.4282
7.0469
6.20453
5.29947
3.93804
2.18866
0.532079
-0.174917
-1.47686
-2.28142
-3.01695
-3.30384
-3.4283
-3.17341
-22.8599
-22.9641
-22.9871
-23.5722
-24.5773
-24.9387
-25.0447
-24.9447
-24.7769
-24.4175
-23.7412
-22.4509
-20.6829
-18.5626
-15.2176
-11.392
-8.23419
-3.77315
2.24146
8.81843
13.1188
16.4349
18.008
17.4199
16.2443
13.7283
11.0207
8.82761
6.96765
5.24765
3.14114
0.767475
-1.62328
-2.911
-4.37372
-5.25936
-6.09038
-6.48272
-6.74863
-6.39867
-20.8082
-21.1418
-21.0418
-21.2788
-22.0007
-22.0311
-21.6975
-21.1068
-20.4622
-19.7476
-18.7249
-17.0406
-14.8054
-12.7578
-9.81274
-6.55347
-2.82145
1.6203
6.87084
12.641
17.5052
20.6899
23.0507
22.3776
20.175
16.9466
13.4295
10.2999
7.35893
4.66381
1.75719
-0.566266
-3.46771
-5.05332
-6.79567
-7.92982
-9.11238
-9.95439
-10.414
-10.7983
-19.1032
-19.2025
-18.7118
-18.6249
-18.7899
-18.3311
-17.5622
-16.6314
-15.6008
-14.3923
-12.9013
-10.9664
-8.28335
-5.72308
-3.83674
-0.48333
3.37519
8.03621
12.3946
17.1328
22.2614
25.3933
27.2615
26.5456
23.9439
20.0436
15.7633
11.8112
7.89782
4.42273
0.845199
-1.80552
-4.34768
-6.77187
-8.68129
-10.2248
-11.7121
-12.6534
-13.0537
-13.4157
-16.9699
-16.5244
-16.2315
-15.8393
-15.2275
-14.1771
-13.088
-11.8593
-10.3907
-8.76228
-7.02194
-4.96671
-1.94773
0.711149
3.19724
5.40075
9.26802
13.9818
17.5383
22.1819
26.2873
29.1389
30.4605
29.4682
26.7029
22.3492
17.4169
12.7013
7.83055
3.84915
-0.119912
-2.90424
-5.69347
-7.87522
-10.1731
-12.216
-13.964
-14.9662
-15.3299
-15.5437
-14.3715
-13.9463
-13.5014
-12.7434
-11.3516
-9.68434
-8.27434
-6.80433
-5.04611
-3.07459
-1.01342
1.06225
3.48355
6.24706
9.37919
12.5545
16.0762
19.5814
23.2936
26.6491
29.9637
32.4945
33.1376
31.7466
28.4003
23.9395
18.4526
13.4498
7.76881
2.47563
-1.39319
-4.35335
-7.42961
-9.34492
-11.995
-14.0059
-16.3917
-17.1894
-17.625
-17.5882
-11.7776
-11.3201
-10.8159
-9.58102
-7.63824
-5.6246
-3.90834
-2.13521
-0.0951749
2.16573
4.61773
7.45496
9.71834
12.621
15.7343
19.1362
22.7876
26.405
29.2824
31.4104
33.8104
35.6445
35.4931
33.5022
29.6741
25.0204
19.2384
14.0373
7.87021
1.22119
-2.91605
-5.99624
-9.16351
-11.4022
-13.6165
-16.1095
-18.431
-19.3367
-19.8712
-19.4608
-9.12983
-8.62681
-7.79306
-6.49297
-4.52103
-2.25584
-0.224127
1.9021
4.42531
7.37761
10.4467
13.4437
16.4234
19.2924
22.3569
25.3341
28.6068
31.5689
34.0579
35.5022
37.1831
38.3712
37.3345
34.7623
30.4701
25.5881
19.5721
14.0963
7.4865
0.219909
-4.691
-7.69461
-10.9903
-13.1736
-16.1625
-17.324
-20.5055
-20.9713
-22.0286
-21.0369
-6.25457
-6.01564
-5.15732
-3.81294
-1.99832
0.262257
2.84127
5.34442
8.499
11.6543
14.3884
17.4898
20.7811
24.1978
27.2999
30.085
32.6544
35.1119
37.2708
38.4073
39.269
40.0348
38.4082
35.415
30.7439
25.6949
19.5531
13.9443
7.0738
-0.520209
-5.91674
-9.46598
-12.8751
-15.0167
-18.0696
-19.7938
-21.8007
-23.0117
-23.8185
-22.4332
-3.5582
-3.21127
-2.63487
-1.14797
0.698091
3.04886
5.76063
8.74806
12.1106
15.0152
17.8345
20.8746
24.0207
27.1676
30.2236
33.1565
35.4572
37.7078
39.5073
40.8938
41.0708
41.1352
39.1035
35.8897
31.0579
25.8256
19.5441
13.721
6.47996
-1.20036
-6.68375
-10.8735
-14.4575
-16.5667
-19.6765
-20.8642
-23.8944
-23.8986
-25.2888
-23.1146
-1.35724
-1.26734
-0.549091
0.680807
2.77667
5.08917
8.41789
11.4014
14.5601
17.5585
20.5734
23.5695
26.715
29.8596
32.7705
35.582
37.6303
39.5297
41.0649
42.5952
42.4648
42.0453
39.4063
36.1213
31.1371
25.7756
19.4093
13.5074
5.74459
-2.07386
-7.91736
-11.9502
-16.0496
-17.9861
-21.2396
-22.3042
-25.0246
-25.1198
-26.7658
-22.2954
-0.815206
0.616593
1.35306
2.88349
4.79867
7.27031
10.7003
13.2582
16.4977
19.6556
22.7267
25.5504
28.6201
31.7129
34.5295
37.183
39.3694
41.1567
42.2971
43.5067
43.1276
42.6079
39.8775
36.4263
31.1001
25.8769
19.4744
13.3715
5.08985
-2.78781
-8.93828
-12.3989
-16.354
-18.8178
-21.9857
-22.8618
-25.2923
-24.3583
-25.0537
-17.5661
0.539432
0.934196
2.33217
3.64223
5.81489
8.26624
11.7632
14.9782
18.0382
21.0745
24.1737
27.1677
29.8443
32.6485
35.3507
38.0208
40.2181
42.1703
43.4008
44.2287
43.5409
42.9058
40.182
36.495
31.4018
26.0504
19.5709
13.3245
4.77998
-3.16966
-9.82545
-13.5614
-17.5994
-19.5545
-22.8919
-23.4786
-25.7182
-23.5253
-21.8414
-10.7624
-1.29263
2.23454
3.38808
5.16192
6.92291
9.39783
12.623
15.8297
19.0454
22.2732
25.2234
28.1266
30.7972
33.408
35.8158
38.3586
40.439
42.4088
43.556
44.5577
44.0148
43.3197
40.6102
36.7152
31.8206
26.4334
19.7768
13.2309
4.48113
-3.48352
-10.1761
-14.1274
-17.967
-19.6776
-22.7738
-23.0928
-23.9483
-19.1955
-12.3173
5.28722
0.153552
0.177276
0.324308
0.543143
0.805829
1.09514
1.43961
1.95314
2.71481
3.58324
4.48692
5.54081
6.67586
7.9215
9.21225
10.6241
12.3309
13.9571
15.7201
17.2797
19.4966
20.8274
22.189
23.2845
24.5293
25.5615
26.6314
27.5202
28.3388
29.0367
29.5078
30.2145
30.6767
31.1881
31.5696
31.9177
32.1304
32.3685
32.4587
32.5296
-0.0798215
-0.0436896
0.0974501
0.296514
0.574339
0.859417
1.20284
1.7951
2.43746
3.43798
4.29117
5.33486
6.46867
7.74875
9.14711
10.6025
12.2967
13.9239
15.683
17.3056
19.3758
20.7823
22.0891
23.1815
24.4075
25.4267
26.4789
27.3382
28.1707
28.8346
29.4651
30.0903
30.612
31.1427
31.5459
31.8956
32.1225
32.3324
32.4444
32.5569
-0.521634
-0.473828
-0.286864
-0.179629
0.109105
0.202004
0.766645
1.27565
2.03051
2.89269
3.83104
4.89871
6.07795
7.40509
8.83246
10.335
12.0134
13.6483
15.4058
17.0119
18.9945
20.3398
21.6344
22.7048
23.9093
24.9197
25.9508
26.8557
27.6827
28.4688
29.1073
29.8051
30.4245
31.0231
31.5404
31.7698
32.0266
32.2239
32.3344
32.4092
-1.20613
-1.1009
-1.03092
-0.972016
-0.633159
-0.433312
-0.00131271
0.558556
1.32532
2.19294
3.17318
4.29695
5.53523
6.86631
8.30967
9.83003
11.5168
13.1863
14.9649
16.5788
18.5033
19.8548
21.1505
22.2519
23.4923
24.5268
25.5843
26.4437
27.3781
28.1741
28.9631
29.6382
30.2769
30.9078
31.4088
31.7614
32.0017
32.1189
32.2093
32.2693
-2.16055
-2.06361
-2.00123
-1.8835
-1.64449
-1.40783
-1.00337
-0.45427
0.355859
1.25054
2.27601
3.38695
4.64001
6.02233
7.48977
9.05903
10.8121
12.5579
14.4164
16.0581
17.9686
19.3079
20.6875
21.8503
23.1776
24.3219
25.3383
26.2745
27.2038
28.0289
28.8024
29.513
30.1047
30.7779
31.311
31.6807
31.8721
31.9784
32.0368
32.0809
-3.31397
-3.24919
-3.17969
-3.04316
-2.87628
-2.61775
-2.24015
-1.64667
-0.795967
0.0410961
1.01669
2.18175
3.53963
4.98344
6.52004
8.20599
10.0098
11.8799
13.8875
15.6969
17.8165
19.2558
20.6571
21.8326
23.1145
24.2042
25.2352
26.1652
27.0932
27.9009
28.609
29.379
30.0387
30.6431
31.1543
31.5434
31.6974
31.7763
31.8085
31.8127
-4.94232
-4.83967
-4.68319
-4.51333
-4.32682
-4.10842
-3.70278
-3.2118
-2.4766
-1.60013
-0.492946
0.762194
2.19681
3.72233
5.38282
7.22771
9.19684
11.257
13.3368
15.3382
17.5296
19.0908
20.6021
21.8265
23.1081
24.2165
25.2424
26.1865
27.1069
27.7458
28.5091
29.1391
29.7918
30.4006
31.1832
31.3974
31.4966
31.4836
31.4918
31.4782
-6.3642
-6.33714
-6.29152
-6.18464
-6.05414
-5.87802
-5.53678
-4.95615
-4.14934
-3.23301
-2.10612
-0.793545
0.731645
2.42642
4.27944
6.23516
8.31807
10.4627