/*--------------------------------*- C++ -*----------------------------------*\
| =========                 |                                                 |
| \\      /  F ield         | OpenFOAM: The Open Source CFD Toolbox           |
|  \\    /   O peration     | Version:  v1806                                 |
|   \\  /    A nd           | Web:      www.OpenFOAM.com                      |
|    \\/     M anipulation  |                                                 |
\*---------------------------------------------------------------------------*/
FoamFile
{
    version     2.0;
    format      ascii;
    class       surfaceScalarField;
    location    "0.137";
    object      phi;
}
// * * * * * * * * * * * * * * * * * * * * * * * * * * * * * * * * * * * * * //

dimensions      [0 3 -1 0 0 0 0];
oriented        oriented;


internalField   nonuniform List<scalar> 
187200
(
-6.40009e-06
3.06847e-05
-2.4342e-05
3.13254e-05
3.42869e-06
-4.11536e-05
4.25852e-05
1.6354e-05
-2.76127e-05
4.78183e-05
1.95444e-05
-2.47766e-05
4.74571e-05
2.26518e-05
-2.22902e-05
4.82308e-05
2.16764e-05
-2.24501e-05
5.04897e-05
2.10842e-05
-2.33429e-05
5.91887e-05
1.80608e-05
-2.67583e-05
7.00049e-05
1.87395e-05
-2.95531e-05
8.19755e-05
1.91833e-05
-3.1152e-05
9.07002e-05
2.27766e-05
-3.15012e-05
9.65261e-05
2.33883e-05
-2.92145e-05
9.04298e-05
3.01584e-05
-2.40615e-05
7.30184e-05
3.42707e-05
-1.6858e-05
4.36159e-05
3.65081e-05
-7.10468e-06
2.57706e-05
1.74373e-05
4.08117e-07
-8.70983e-06
2.06458e-05
1.38344e-05
-4.50718e-05
3.38278e-05
2.53445e-06
-0.000139362
8.832e-05
5.97146e-06
-0.000300489
0.000142832
1.82959e-05
-0.00056411
0.000217651
4.59702e-05
-0.000733515
0.000219744
-5.03394e-05
-0.000867762
0.000271433
-0.000137187
-0.00090056
0.000287246
-0.000254448
-0.000879027
0.000319502
-0.000341036
-0.000799121
0.000347737
-0.000427644
-0.000677991
0.000374972
-0.000496103
-0.000526646
0.000392827
-0.00054417
-0.000345438
0.000387027
-0.000568233
-0.000171077
0.000375124
-0.000549483
-3.32127e-05
0.000339518
-0.000477382
5.64732e-05
0.000293215
-0.000382901
8.74226e-05
0.000230049
-0.000260998
8.17062e-05
0.000169685
-0.000163966
5.5256e-05
0.000118312
-9.18587e-05
3.13859e-05
7.72237e-05
-5.33511e-05
1.31404e-05
5.30305e-05
-3.47841e-05
2.83826e-06
4.06298e-05
-3.03276e-05
-3.71801e-06
3.02849e-05
-2.37268e-05
2.0972e-05
-2.46873e-05
-1.69983e-05
8.40623e-05
-3.63787e-05
1.54401e-05
2.67758e-05
-5.57838e-05
4.30873e-05
3.60509e-05
-4.73431e-05
5.91448e-05
4.56975e-05
-4.22096e-05
6.69091e-05
5.54667e-05
-4.05791e-05
7.00849e-05
6.1295e-05
-4.27936e-05
6.80352e-05
6.9793e-05
-4.66569e-05
6.4362e-05
7.6805e-05
-5.50675e-05
5.04358e-05
9.45568e-05
-6.18881e-05
2.39553e-05
0.000117609
-7.19441e-05
-1.77203e-05
0.000151984
-8.75323e-05
-7.59573e-05
0.000177489
-9.58626e-05
-0.000150574
0.000206527
-0.00010175
-0.000244604
0.000244054
-0.000115752
-0.000360779
0.000295039
-0.000142355
-0.000518032
0.00035624
-0.000181547
-0.000668348
0.000426132
-0.000255166
-0.000820629
0.0004974
-0.000311286
-0.000964411
0.000605046
-0.000372938
-0.00111995
0.000713209
-0.000414835
-0.00128498
0.000833631
-0.000450946
-0.00138216
0.000916676
-0.000599752
-0.00145177
0.00101173
-0.000670678
-0.00143828
0.00104614
-0.000772382
-0.00135252
0.00109031
-0.000856569
-0.00120165
0.0011141
-0.000917231
-0.00100239
0.00112518
-0.000949475
-0.000765879
0.00110462
-0.000948294
-0.00052653
0.00105242
-0.000904741
-0.000288551
0.000972323
-0.000835175
-9.25e-05
0.0008495
-0.00070603
7.39066e-05
0.000705792
-0.000578981
0.00015349
0.000562213
-0.000411744
0.000185012
0.000431553
-0.000293386
0.000167858
0.000320927
-0.000185461
0.000130754
0.000237096
-0.000122768
9.0365e-05
0.000177648
-8.42281e-05
5.46325e-05
0.000141924
-6.556e-05
2.19621e-05
0.000111693
-4.87341e-05
7.708e-05
-3.41431e-05
1.42122e-06
0.000108995
-2.63535e-05
2.40843e-05
5.82608e-05
-5.4148e-05
4.8015e-05
6.7852e-05
-5.57324e-05
6.12325e-05
9.0122e-05
-5.76418e-05
6.27929e-05
0.000114194
-6.02873e-05
5.53097e-05
0.000135528
-6.67494e-05
3.63126e-05
0.000166155
-7.73632e-05
7.5426e-06
0.000204517
-9.8939e-05
-3.33089e-05
0.000252797
-0.000117387
-8.99896e-05
0.000307804
-0.000133513
-0.000169335
0.000380102
-0.000148772
-0.000287378
0.000462084
-0.000166551
-0.000443562
0.000554406
-0.000191694
-0.000610831
0.000644
-0.000232676
-0.000782031
0.000739154
-0.000272914
-0.00093375
0.000833773
-0.000325815
-0.00106392
0.000941157
-0.000384856
-0.00117636
0.0010518
-0.000441965
-0.00128881
0.00120515
-0.000487653
-0.0014233
0.0013592
-0.000511511
-0.00155452
0.00148047
-0.000515624
-0.00161686
0.00158619
-0.000607168
-0.0016455
0.00166699
-0.000626629
-0.00160771
0.00167729
-0.000668932
-0.00150866
0.00170005
-0.000708796
-0.00135958
0.00168653
-0.000721505
-0.00117573
0.0016515
-0.000710167
-0.000967005
0.00157199
-0.000676093
-0.00075051
0.00145872
-0.000622792
-0.000525659
0.00130775
-0.000560277
-0.00034072
0.00113979
-0.000475223
-0.000180379
0.000952436
-0.000406983
-5.66161e-05
0.000757587
-0.000319135
2.89871e-05
0.000597043
-0.000251093
6.37787e-05
0.000463071
-0.000176935
7.62145e-05
0.000363856
-0.000139197
6.79344e-05
0.00029195
-0.000106023
4.83873e-05
0.000247532
-8.60597e-05
2.24437e-05
0.000195881
-5.82459e-05
0.000134006
-3.44834e-05
2.84614e-06
0.000135934
-2.97847e-05
2.25785e-05
9.92721e-05
-6.07442e-05
4.08488e-05
0.000122595
-7.30128e-05
4.46637e-05
0.000164122
-7.78139e-05
3.35764e-05
0.00020888
-8.3599e-05
6.28825e-06
0.000262412
-9.95955e-05
-2.8669e-05
0.000323224
-0.00012211
-7.53048e-05
0.000398654
-0.000147499
-0.00014115
0.000491009
-0.000172365
-0.000245413
0.000602223
-0.000190156
-0.00037046
0.000715505
-0.000210356
-0.000508346
0.000830377
-0.000230406
-0.000647298
0.000942853
-0.000249495
-0.000786254
0.001052
-0.000269045
-0.000916976
0.0011636
-0.00029372
-0.00103137
0.00127374
-0.000325565
-0.00113031
0.00139741
-0.000357313
-0.00121448
0.00150759
-0.000371618
-0.00130451
0.00166643
-0.000371238
-0.00141508
0.0017964
-0.000326628
-0.00154275
0.00186743
-0.000259291
-0.00159203
0.00193088
-0.000295411
-0.00161776
0.00195976
-0.000267043
-0.0015808
0.00191196
-0.000271626
-0.00149873
0.0018951
-0.00027711
-0.0013839
0.00183767
-0.000265975
-0.00124771
0.00176269
-0.000247375
-0.001098
0.00164444
-0.000222152
-0.000938215
0.00149829
-0.000199347
-0.000769425
0.00133069
-0.000191723
-0.000585387
0.00114605
-0.000190299
-0.00040898
0.000967399
-0.000191369
-0.000256287
0.000791066
-0.000186172
-0.000130876
0.000649208
-0.000177577
-4.7341e-05
0.000539094
-0.00015956
7.24249e-06
0.000446986
-0.000137715
3.8398e-05
0.000378964
-0.00011817
4.53034e-05
0.000337409
-9.67792e-05
2.64445e-05
0.000278264
-6.35226e-05
0.000190278
-2.98267e-05
2.81222e-06
0.000177966
-4.48457e-05
2.26976e-05
0.000166505
-8.71178e-05
3.87826e-05
0.000209443
-0.000102932
3.19013e-05
0.000278115
-0.000107112
5.33265e-06
0.000353088
-0.00011764
-4.16747e-05
0.000445412
-0.000135993
-9.58059e-05
0.000542535
-0.000165179
-0.000159797
0.000654026
-0.000191379
-0.0002358
0.000783592
-0.000216578
-0.000316549
0.000912377
-0.000229405
-0.000411526
0.00104505
-0.000234564
-0.000518031
0.00117157
-0.000234692
-0.000631781
0.00128949
-0.000232883
-0.000744902
0.00139852
-0.000233388
-0.000853164
0.00150343
-0.000231572
-0.000944576
0.00159461
-0.000229457
-0.00101079
0.00168103
-0.000217413
-0.00105747
0.00173648
-0.000182204
-0.00113373
0.00184222
-9.95347e-05
-0.00123918
0.00189893
2.92454e-06
-0.00137787
0.00189306
0.000113052
-0.00143124
0.00187422
0.00011003
-0.00147184
0.00186723
0.000133123
-0.00146287
0.00178613
0.000116871
-0.00142536
0.00175724
0.000100349
-0.00136671
0.00168844
9.05759e-05
-0.00129292
0.0016121
7.68053e-05
-0.00121305
0.00150172
6.28403e-05
-0.00110975
0.00137454
2.04429e-05
-0.000982103
0.00122704
-2.40007e-05
-0.000830953
0.00107013
-7.52307e-05
-0.000660619
0.00092169
-0.000124623
-0.000486861
0.000774744
-0.000157436
-0.000324581
0.000658187
-0.00017126
-0.000186116
0.000573741
-0.000173114
-8.10888e-05
0.000501162
-0.000159206
-1.36906e-05
0.000445773
-0.000134211
2.19102e-05
0.00041005
-0.000108244
2.26718e-05
0.000342787
-6.52831e-05
0.00023702
-2.40682e-05
-5.32738e-06
0.000256211
-7.29174e-05
1.84793e-05
0.000272118
-0.00012942
3.64243e-05
0.0003369
-0.000145401
2.32526e-05
0.000433015
-0.000141729
-1.49208e-05
0.00053771
-0.000146449
-6.59416e-05
0.0006615
-0.000165067
-0.000116287
0.00079112
-0.000198237
-0.000157119
0.000926827
-0.000231967
-0.000196137
0.00107089
-0.000248284
-0.000256272
0.00121194
-0.000239426
-0.000329044
0.00133889
-0.000221069
-0.000404302
0.00144588
-0.000199051
-0.000480983
0.00153996
-0.000173792
-0.000552615
0.00161639
-0.000146244
-0.00061814
0.00168121
-0.000112249
-0.00066953
0.00172061
-7.46205e-05
-0.000739988
0.00174775
3.73719e-06
-0.000816241
0.00173397
7.87557e-05
-0.000887244
0.00174547
0.000167749
-0.000990444
0.00171786
0.000284267
-0.00113588
0.00168682
0.000351682
-0.00120958
0.0015996
0.000348318
-0.00128663
0.0015846
0.000359686
-0.00132349
0.00148589
0.000337093
-0.00133691
0.00145917
0.000311501
-0.00133343
0.00139829
0.000286664
-0.00131894
0.00134565
0.000251966
-0.00129122
0.00126587
0.000208136
-0.00124527
0.00117508
0.000153505
-0.00115179
0.00107484
5.87237e-05
-0.00103058
0.000965648
-1.67239e-05
-0.000865111
0.000858077
-0.000101851
-0.000680049
0.000751162
-0.000161481
-0.000491326
0.000666601
-0.000197137
-0.000310451
0.000600738
-0.000207873
-0.000169456
0.00054675
-0.000186582
-6.3719e-05
0.000497005
-0.000156967
4.13107e-06
0.000464626
-0.000122423
1.94324e-05
0.000399273
-7.17849e-05
0.000278012
-2.1553e-05
-5.43467e-06
0.000364342
-0.000102695
2.67235e-05
0.00041625
-0.000176291
4.85051e-05
0.000509169
-0.00019405
3.27564e-05
0.000632668
-0.000183905
-3.88325e-06
0.000757799
-0.000183449
-5.57996e-05
0.000915789
-0.000202371
-8.12621e-05
0.00105328
-0.000236692
-0.000103349
0.00119811
-0.000249196
-0.000140466
0.00134413
-0.000236113
-0.000182965
0.00145877
-0.000204337
-0.000232855
0.00155678
-0.000167999
-0.000291385
0.00163221
-0.000127797
-0.00035342
0.00168727
-8.52707e-05
-0.000410537
0.00171184
-3.8331e-05
-0.000461644
0.00171449
1.78216e-05
-0.000503365
0.00168022
8.21123e-05
-0.000542989
0.00164056
0.00014682
-0.000593875
0.00156111
0.000223747
-0.000665172
0.00150293
0.000313835
-0.000756197
0.00140984
0.000399052
-0.000910065
0.00137038
0.000470304
-0.000999712
0.00122202
0.000467227
-0.00110305
0.00122946
0.000458482
-0.00118614
0.00114555
0.00042343
-0.00125014
0.00114078
0.000382393
-0.00130017
0.00110524
0.000343078
-0.00134089
0.00108844
0.000297935
-0.00136065
0.00104905
0.000236581
-0.00135659
0.00100697
0.000164054
-0.00129612
0.000951443
6.29295e-05
-0.00120369
0.000880217
-6.99614e-06
-0.00105855
0.000803152
-9.02104e-05
-0.00086912
0.000724111
-0.000162383
-0.000652714
0.000656583
-0.00020639
-0.000421513
0.000606686
-0.000237151
-0.000244517
0.000585381
-0.000215628
-0.000104736
0.000544401
-0.000187175
-1.28899e-05
0.000514656
-0.000141874
1.88082e-05
0.00045018
-8.26062e-05
0.00031867
-2.18443e-05
-4.8417e-06
0.000503162
-0.000133978
4.1999e-05
0.000589083
-0.000219674
7.48991e-05
0.000707001
-0.000230731
6.57424e-05
0.000845467
-0.000203641
2.81331e-05
0.000987455
-0.000192044
-4.85224e-06
0.00115916
-0.000210386
-6.05115e-06
0.00129003
-0.000235552
-1.7162e-05
0.00142773
-0.000218507
-3.66239e-05
0.00154715
-0.000183562
-7.79802e-05
0.00164151
-0.000141379
-0.000130487
0.00170813
-9.88503e-05
-0.000184609
0.00174119
-5.48511e-05
-0.000240959
0.00174298
6.34879e-07
-0.000289869
0.00170473
5.60177e-05
-0.000333185
0.0016424
0.000115402
-0.000374714
0.00154386
0.00017789
-0.000414801
0.00144409
0.000236555
-0.000454989
0.00131079
0.000290512
-0.000517834
0.00121337
0.000352404
-0.000587867
0.0010735
0.000406368
-0.000721161
0.00104648
0.000457199
-0.000842493
0.000890727
0.000452622
-0.000965952
0.000919804
0.000433119
-0.00108847
0.000863459
0.000404612
-0.00118906
0.000879743
0.000361627
-0.00127558
0.000870765
0.000321
-0.00135093
0.000881464
0.000282337
-0.00140575
0.000875294
0.000228577
-0.0014328
0.000864925
0.000169085
-0.00140864
0.000834981
9.23067e-05
-0.00133478
0.000787745
1.86098e-05
-0.00120636
0.000729849
-5.51076e-05
-0.00101648
0.0006724
-0.000138171
-0.000793764
0.00063318
-0.00019931
-0.00055328
0.000595394
-0.00022919
-0.000328105
0.000604703
-0.000244495
-0.000155865
0.000579562
-0.0002074
-3.95313e-05
0.000558745
-0.00016042
1.35734e-05
0.000492204
-9.51314e-05
0.000355937
-2.36927e-05
5.47305e-06
0.000658487
-0.000160799
7.10494e-05
0.000785577
-0.00026207
0.000120391
0.000925326
-0.000267663
0.000130316
0.00106248
-0.000226936
9.37025e-05
0.00121789
-0.000193819
0.000100895
0.00136246
-0.000210484
0.000101184
0.00149782
-0.000208082
8.63845e-05
0.00161183
-0.000169294
5.32076e-05
0.00170806
-0.000127733
1.00589e-05
0.00176704
-8.23803e-05
-4.22663e-05
0.00179078
-3.03238e-05
-9.94875e-05
0.00177549
2.29222e-05
-0.00016051
0.0017226
8.14088e-05
-0.000212396
0.00162904
0.000127579
-0.000259377
0.00151152
0.000177862
-0.000301879
0.00136392
0.000222439
-0.000340653
0.00122454
0.000258319
-0.000381944
0.0010665
0.000285581
-0.000433586
0.000949981
0.000315033
-0.000512407
0.000808698
0.000343625
-0.00061798
0.000781211
0.000370838
-0.000763474
0.000656061
0.000380162
-0.000885831
0.000680703
0.000361459
-0.0010275
0.000656255
0.000348874
-0.00114328
0.000681263
0.000314259
-0.00125067
0.000692487
0.000285664
-0.00134947
0.000719407
0.000260863
-0.00143106
0.000731799
0.000225077
-0.0014839
0.00073356
0.000184213
-0.00149178
0.000711934
0.000130923
-0.00143997
0.000678939
5.70006e-05
-0.00132589
0.000643898
-2.81288e-05
-0.00114381
0.000600084
-0.000109769
-0.000908667
0.000570291
-0.000172253
-0.0006491
0.000550232
-0.000214406
-0.000400204
0.000584344
-0.000228534
-0.000197197
0.000602424
-0.000225869
-5.48657e-05
0.000590303
-0.000173885
9.95708e-06
0.000534171
-0.000106786
0.00039298
-2.70872e-05
2.44494e-05
0.000813224
-0.000179185
0.000122103
0.000980726
-0.000292799
0.00020584
0.00113569
-0.000294094
0.000230773
0.00127096
-0.000233409
0.000208825
0.00142396
-0.000184112
0.000202408
0.0015452
-0.00017632
0.000192367
0.00166904
-0.000161179
0.000167925
0.00175399
-0.000117718
0.000132178
0.00181178
-6.79682e-05
7.92923e-05
0.00183308
-1.31563e-05
1.92996e-05
0.00181708
3.36937e-05
-5.18195e-05
0.00175519
9.14178e-05
-0.000120707
0.00165614
0.000135344
-0.00018182
0.00151489
0.000175266
-0.000233454
0.00135507
0.000208084
-0.000280375
0.00117724
0.000233598
-0.000318937
0.00101621
0.000246889
-0.000358637
0.000853767
0.000252427
-0.000401544
0.00073484
0.000258048
-0.000484383
0.000620102
0.000271434
-0.000565809
0.00057763
0.000285007
-0.000715787
0.00050115
0.00030489
-0.000833979
0.000500058
0.000298837
-0.000971411
0.00049377
0.000299917
-0.00108579
0.000518302
0.000277343
-0.0012019
0.000538333
0.000270257
-0.00131335
0.000570914
0.000259943
-0.00141578
0.000585708
0.000248523
-0.00148845
0.000590348
0.000215878
-0.00151913
0.000580806
0.000161809
-0.00149208
0.00056519
8.67035e-05
-0.00140206
0.000544342
9.53388e-06
-0.00123797
0.000521876
-8.58776e-05
-0.00100625
0.000503584
-0.000165012
-0.000744558
0.000489617
-0.000201078
-0.00046765
0.000523125
-0.00021569
-0.00024483
0.000586282
-0.000206677
-8.10848e-05
0.000605877
-0.000179316
1.84624e-06
0.000560546
-0.0001093
0.000424208
-2.93836e-05
4.64196e-05
0.000950427
-0.00018362
0.000167775
0.00116677
-0.000307399
0.00027933
0.00133027
-0.00030613
0.000315832
0.0014629
-0.000228434
0.000311535
0.00159239
-0.000164137
0.00028981
0.00169651
-0.000129584
0.000270109
0.00179574
-0.000106999
0.000239273
0.00185203
-6.72034e-05
0.000191845
0.00187709
-1.78797e-05
0.000128444
0.0018596
3.6891e-05
4.73412e-05
0.00180148
9.67099e-05
-3.52056e-05
0.00169811
0.000139626
-0.000114702
0.00155951
0.000176131
-0.000186428
0.00138272
0.000203899
-0.00024585
0.00119486
0.000219628
-0.000294916
0.00100132
0.000224989
-0.000333469
0.000832626
0.000222136
-0.000372374
0.000677133
0.000215537
-0.000419771
0.000569848
0.000212388
-0.000490364
0.000475317
0.000215378
-0.000555094
0.00041706
0.000225301
-0.00067893
0.000374194
0.000250792
-0.000784068
0.000347674
0.000257521
-0.00090347
0.000345227
0.000267944
-0.00100803
0.000361222
0.000261634
-0.00112436
0.000383292
0.000271375
-0.00124447
0.000412017
0.000279009
-0.00135736
0.000432237
0.000266358
-0.00145203
0.000450475
0.000234545
-0.00151352
0.000457877
0.000184419
-0.00151821
0.000451144
0.000118738
-0.0014549
0.000442867
3.81597e-05
-0.00131428
0.000430939
-4.96811e-05
-0.00108309
0.000424968
-0.000152572
-0.00080252
0.000420395
-0.000211348
-0.000516297
0.000455452
-0.000218551
-0.000271369
0.000534797
-0.000193444
-8.86076e-05
0.000605186
-0.000182071
-1.07573e-06
0.000582969
-0.000109952
0.000455679
-3.25481e-05
6.06931e-05
0.00106405
-0.000174314
0.000207972
0.0013289
-0.000309403
0.0003422
0.001502
-0.000305955
0.00039728
0.00162656
-0.000218742
0.00040278
0.00172922
-0.000142326
0.000370345
0.00181418
-8.52377e-05
0.000333685
0.00188298
-5.05795e-05
0.00028449
0.00191501
-1.37812e-05
0.000223689
0.00191045
2.74414e-05
0.000145522
0.00185631
8.14622e-05
4.61164e-05
0.00176464
0.000136246
-5.34543e-05
0.00162242
0.000175257
-0.000147401
0.00144955
0.000203904
-0.000227648
0.00124415
0.000218816
-0.000287309
0.00103633
0.000218199
-0.000334545
0.000840815
0.000207739
-0.000370822
0.000675568
0.000193333
-0.000416686
0.000536424
0.000186571
-0.000455597
0.000428351
0.000180407
-0.000504205
0.000342113
0.000181812
-0.000551379
0.000271083
0.000193152
-0.000639469
0.000243347
0.000218937
-0.000715083
0.000192372
0.000230916
-0.000805406
0.000190398
0.000245151
-0.000899336
0.000196489
0.000258663
-0.00101097
0.000219429
0.000275495
-0.00113091
0.000251667
0.000280296
-0.00125291
0.000282344
0.00027189
-0.00135775
0.000310353
0.000244966
-0.00143838
0.000334606
0.000203906
-0.00146776
0.000351853
0.000128668
-0.00145007
0.000352818
7.23653e-05
-0.00135598
0.000341822
-4.97214e-06
-0.00117122
0.000335335
-9.51261e-05
-0.000897237
0.000343471
-0.000197058
-0.000582162
0.000377993
-0.000237615
-0.000304436
0.000457434
-0.000200364
-0.000113323
0.000567715
-0.000153645
-8.26205e-06
0.000588729
-0.000110821
0.00048074
-3.33251e-05
7.16559e-05
0.00114407
-0.000151677
0.000244186
0.00145417
-0.000297794
0.000401968
0.00164012
-0.000295904
0.000475094
0.00175335
-0.000199906
0.000483256
0.0018332
-0.000112138
0.000446706
0.001896
-4.52716e-05
0.000387259
0.00193765
4.78105e-06
0.000315536
0.00194661
4.01251e-05
0.000234967
0.00191387
7.71613e-05
0.000133378
0.00183141
0.000126486
1.753e-05
0.00170742
0.00017307
-0.000100959
0.00153561
0.000205308
-0.000205836
0.0013297
0.000224731
-0.000303046
0.00111527
0.000226088
-0.000385393
0.000906719
0.000211956
-0.000437703
0.000706219
0.000186905
-0.000463898
0.000534898
0.000166863
-0.000478096
0.00039339
0.000157231
-0.000489403
0.000283802
0.000155856
-0.000508609
0.000199631
0.000161689
-0.000535451
0.00011984
0.000178087
-0.000580617
8.96083e-05
0.000198906
-0.000631281
3.00549e-05
0.000212983
-0.000697718
2.45646e-05
0.000232271
-0.00077143
2.06233e-05
0.000249578
-0.000863851
4.89831e-05
0.000262867
-0.000972094
8.69692e-05
0.000272942
-0.0010884
0.000133305
0.000265346
-0.00121366
0.000178225
0.000257395
-0.00132781
0.00021447
0.00023428
-0.00141433
0.000232114
0.000206266
-0.00144417
0.000228514
0.000154148
-0.00138869
0.000214453
7.189e-05
-0.00123102
0.000202191
-2.45301e-05
-0.000976179
0.000214848
-0.000126214
-0.000649279
0.000268053
-0.000216961
-0.00033324
0.000369282
-0.000227883
-0.000113955
0.000501873
-0.000153442
-1.06427e-05
0.000581079
-9.56641e-05
0.000506169
-3.60734e-05
7.7928e-05
0.00119284
-0.000126694
0.000268871
0.00154302
-0.00027979
0.000449492
0.00174221
-0.000282707
0.000536581
0.00184546
-0.000179198
0.000547416
0.0019056
-8.3236e-05
0.0005094
0.00194331
-9.29491e-06
0.000430097
0.00195627
6.0689e-05
0.000328298
0.00193888
0.000109531
0.00021414
0.00188409
0.00014394
9.4052e-05
0.00178097
0.000170532
-3.68906e-05
0.00163312
0.00020525
-0.000176667
0.00144209
0.000233297
-0.000322627
0.00123612
0.000239545
-0.000436254
0.00100346
0.000225439
-0.000501673
0.000773597
0.000198541
-0.00052777
0.00056669
0.000165626
-0.000529012
0.000393627
0.000142513
-0.000519877
0.000249591
0.000134662
-0.000502503
0.00012865
0.000137777
-0.000487544
3.95132e-05
0.00014516
-0.000493352
-3.63849e-05
0.000162035
-0.000502291
-7.42903e-05
0.000172839
-0.000531995
-0.000126585
0.000186345
-0.000570293
-0.000142193
0.000205056
-0.00061712
-0.000150047
0.000217497
-0.000685262
-0.000117384
0.00023451
-0.000780669
-6.08934e-05
0.000243272
-0.000903014
-6.0117e-06
0.000261664
-0.00103723
4.35976e-05
0.000268841
-0.00117451
8.04442e-05
0.000271316
-0.00129687
0.000103428
0.000251048
-0.00137493
0.000102014
0.000204558
-0.00137677
8.25854e-05
0.000133706
-0.00127722
5.76985e-05
4.49443e-05
-0.00105406
5.69776e-05
-6.52877e-05
-0.000742464
0.000110994
-0.000154535
-0.000395763
0.000245134
-0.000222555
-0.00013997
0.00042407
-0.000177988
-1.15473e-05
0.000551544
-9.88866e-05
0.000530317
-3.56929e-05
8.43433e-05
0.00119692
-8.84243e-05
0.000292546
0.00158196
-0.000247142
0.000493116
0.0017953
-0.000253659
0.000594397
0.00189388
-0.000149702
0.000603645
0.0019405
-4.41488e-05
0.000554884
0.0019565
3.55737e-05
0.000456522
0.00194174
0.00011289
0.000330419
0.00189814
0.00016685
0.000190131
0.00182379
0.000200591
4.20483e-05
0.00170579
0.000223267
-0.000114596
0.00154451
0.00024525
-0.000283979
0.00135454
0.000256928
-0.000428641
0.00112707
0.000253715
-0.000533763
0.000883058
0.000225523
-0.00059273
0.000644702
0.000187862
-0.00060481
0.000429655
0.000149116
-0.000587447
0.000253623
0.000122641
-0.000549357
9.47833e-05
0.000116716
-0.0005023
-3.6157e-05
0.000117748
-0.000461453
-0.000120496
0.000119163
-0.000445747
-0.000189193
0.000137103
-0.000423087
-0.000238484
0.000141535
-0.000426843
-0.000282127
0.000159297
-0.00043768
-0.000304178
0.00017282
-0.000467119
-0.000309335
0.000188727
-0.000511348
-0.000278297
0.000205142
-0.000581128
-0.000225189
0.000234077
-0.000685609
-0.000158218
0.000256687
-0.000823164
-9.66471e-05
0.0002778
-0.000978218
-5.3648e-05
0.000289148
-0.00113431
-2.40072e-05
0.000283523
-0.00126186
-2.54026e-05
0.000254968
-0.00132388
-5.12143e-05
0.000195827
-0.00128036
-9.3805e-05
0.000107984
-0.00110664
-0.000119618
2.88361e-06
-0.000814292
-8.41134e-05
-9.72466e-05
-0.000448109
5.46402e-05
-0.00017569
-0.000143775
0.000319558
-0.000199825
-1.46515e-05
0.00050845
-8.60304e-05
0.000542663
-2.69905e-05
8.53109e-05
0.00116863
-5.70231e-05
0.000305812
0.00157865
-0.000217195
0.000521396
0.00180767
-0.000227949
0.00063454
0.00190614
-0.000125402
0.000647663
0.00193789
-1.05085e-05
0.000586759
0.00192745
8.9956e-05
0.000475337
0.0018939
0.000159271
0.000328102
0.00182793
0.000217444
0.000161704
0.00173991
0.000250281
-1.7516e-05
0.00161525
0.000269758
-0.000202972
0.00144942
0.000280548
-0.000376224
0.00124388
0.000283914
-0.000524918
0.00100914
0.00026662
-0.000629668
0.000762968
0.00022484
-0.000684022
0.000522584
0.000176474
-0.000687874
0.000300412
0.000133096
-0.000645019
0.000104995
0.000105773
-0.000571077
-6.63153e-05
8.71546e-05
-0.000505353
-0.000182615
8.07339e-05
-0.000431281
-0.000278987
8.4421e-05
-0.000386399
-0.000337608
0.000103535
-0.000347141
-0.000394721
0.000116979
-0.000324391
-0.000434911
0.000130033
-0.000310153
-0.000455038
0.00013662
-0.000317427
-0.000453953
0.000151891
-0.00034406
-0.000429394
0.000177729
-0.000392634
-0.000383112
0.000206497
-0.000469263
-0.000322798
0.000241211
-0.000597749
-0.000236552
0.00026839
-0.000752826
-0.000190817
0.000292249
-0.000929775
-0.000151265
0.000304212
-0.00109491
-0.000153156
0.000292887
-0.00121364
-0.000182056
0.000249572
-0.00123882
-0.000241874
0.000173248
-0.00113657
-0.000291373
6.95078e-05
-0.000886418
-0.000296632
-3.76301e-05
-0.000544175
-0.000158768
-0.000128836
-0.000191429
0.000129047
-0.000162242
-1.49779e-05
0.000434476
-0.000102488
0.000543734
-1.60489e-05
9.87399e-05
0.00106905
8.38125e-07
0.000332026
0.00150818
-0.000162809
0.000561918
0.00175776
-0.00017998
0.000684819
0.00186459
-8.13492e-05
0.000690787
0.00188645
4.54757e-05
0.000615707
0.0018626
0.000139931
0.000483969
0.00180944
0.000216198
0.000315194
0.0017274
0.000269316
0.000119336
0.00162671
0.000309054
-8.24019e-05
0.00148704
0.000329952
-0.000278513
0.00131475
0.000330781
-0.000466759
0.00111532
0.000316804
-0.000627851
0.0008877
0.000282527
-0.000735257
0.000643887
0.000226487
-0.000779308
0.00040107
0.000165565
-0.000768478
0.000174155
0.000115426
-0.000692492
-4.45138e-05
7.35212e-05
-0.000601028
-0.000205339
4.75597e-05
-0.000496353
-0.00032701
3.97226e-05
-0.000398954
-0.000427927
5.15429e-05
-0.00033074
-0.000486112
8.02908e-05
-0.000267301
-0.000543185
8.50241e-05
-0.000219555
-0.000573462
9.08013e-05
-0.000189966
-0.000585755
0.000101126
-0.000180978
-0.000578893
0.00011595
-0.000193869
-0.000556322
0.00013982
-0.000234608
-0.000516916
0.000174543
-0.000303079
-0.000469418
0.000215092
-0.000388345
-0.000407322
0.000256037
-0.000527692
-0.00034717
0.0002957
-0.000706783
-0.000289225
0.000317051
-0.000894392
-0.000287676
0.000322127
-0.00105995
-0.000313167
0.00029667
-0.00114949
-0.000388314
0.000235987
-0.00111452
-0.000469788
0.000143439
-0.000910277
-0.000541048
4.01726e-05
-0.00058347
-0.000419332
-6.62412e-05
-0.000226099
-0.000108254
-0.00012007
-5.77677e-06
0.000336516
-0.000122373
0.000534894
3.05705e-06
0.000102621
0.000926916
3.95185e-05
0.000336265
0.00140673
-0.000132192
0.000581799
0.00167499
-0.000162768
0.000717929
0.00177895
-5.04924e-05
0.000731867
0.00179238
8.0127e-05
0.000654433
0.00175161
0.000188428
0.000508753
0.00168803
0.000267087
0.00032294
0.00159777
0.000315436
0.00010677
0.00149111
0.000351777
-0.000117
0.00135065
0.000360161
-0.00035061
0.00119007
0.000358283
-0.000569135
0.000999995
0.000333847
-0.000751982
0.000782435
0.000288112
-0.000868213
0.000540974
0.000219145
-0.000909746
0.000294025
0.000148576
-0.000858586
3.83655e-05
8.46294e-05
-0.000766322
-0.000168149
3.13717e-05
-0.00063004
-0.000326429
-1.51914e-05
-0.000491338
-0.000458833
-6.87702e-06
-0.000374333
-0.000568035
2.31034e-05
-0.000282106
-0.000624736
4.63977e-05
-0.000196216
-0.000673853
4.4778e-05
-0.000117998
-0.00070057
4.88895e-05
-6.43923e-05
-0.000703968
6.46057e-05
-2.82764e-05
-0.000694571
7.95615e-05
-1.42328e-05
-0.000674603
0.00010424
-3.54669e-05
-0.00063621
0.00014053
-0.000101073
-0.000587603
0.000183792
-0.000203994
-0.000535493
0.000231093
-0.0003335
-0.00049538
0.000277717
-0.00049282
-0.000453647
0.000323742
-0.000684644
-0.000448853
0.000353
-0.000875217
-0.000474475
0.000351878
-0.00101273
-0.000561897
0.000311092
-0.00104528
-0.000666741
0.000229511
-0.000937589
-0.000768769
0.000120023
-0.000641531
-0.000725807
1.04166e-05
-0.00028708
-0.000398264
-6.44374e-05
-1.60691e-06
0.000124497
-7.34508e-05
0.000504434
2.88469e-05
0.00012223
0.000713005
9.16817e-05
0.000339548
0.00124557
-5.61536e-05
0.0005846
0.00153262
-0.000102682
0.000729136
0.0016432
-8.78385e-06
0.000740846
0.00165829
0.000122381
0.000655312
0.00160763
0.000229518
0.000494434
0.00153312
0.000315798
0.000285324
0.00143595
0.00037094
5.21745e-05
0.00132931
0.000394952
-0.000188141
0.00119712
0.000393842
-0.000433681
0.00105376
0.000381855
-0.000667358
0.000879347
0.000354325
-0.000862035
0.000678219
0.000298895
-0.000989314
0.000452056
0.000216197
-0.00100666
0.000181143
0.000130224
-0.000949727
-6.04424e-05
4.18777e-05
-0.00083272
-0.00025215
-3.30045e-05
-0.000663747
-0.000428751
-6.66501e-05
-0.000493173
-0.000568305
-6.11038e-05
-0.000349739
-0.000682799
-2.86718e-05
-0.000233946
-0.000739978
-5.49105e-07
-0.000131104
-0.000782037
5.34397e-06
-2.13435e-05
-0.000816948
6.6187e-06
6.63782e-05
-0.000811601
1.99138e-05
0.000126328
-0.000792018
3.74988e-05
0.000153419
-0.000768494
6.68034e-05
0.000139055
-0.000728923
0.000107079
9.37869e-05
-0.000694903
0.00015257
9.59696e-06
-0.000655069
0.000203767
-0.000112624
-0.000629991
0.000256832
-0.000274226
-0.000600573
0.000308525
-0.00046158
-0.000611292
0.000349793
-0.000673927
-0.000638682
0.000376552
-0.000864474
-0.000734797
0.000363445
-0.00096773
-0.000867518
0.000304034
-0.000919183
-0.00101902
0.000201703
-0.000705505
-0.00102942
8.99386e-05
-0.00031905
-0.000786658
1.94014e-06
-2.86236e-05
-0.000146457
-1.94651e-05
0.000412992
6.28173e-05
0.000129435
0.000473746
0.000109825
0.00033095
0.00107413
-3.00747e-05
0.000569879
0.0013677
-7.40055e-05
0.000726971
0.00147335
1.27586e-05
0.000763935
0.00148077
0.00014056
0.000693726
0.00142317
0.000254671
0.000537738
0.00134656
0.000342551
0.000315648
0.00125991
0.000398127
6.14041e-05
0.0011726
0.00041095
-0.000204387
0.00106627
0.000396636
-0.000470887
0.000950601
0.000369655
-0.000739989
0.000800499
0.000347953
-0.000972414
0.000625857
0.000284788
-0.00111536
0.000408621
0.000186381
-0.00115257
0.000138884
7.94685e-05
-0.0010771
-0.000103127
-3.27864e-05
-0.000922333
-0.000295532
-0.000111382
-0.000721353
-0.000484834
-0.000144899
-0.000514471
-0.000632458
-0.00014273
-0.000326338
-0.000754494
-0.000116437
-0.000185337
-0.000823742
-5.72349e-05
-5.89085e-05
-0.000869302
-3.91612e-05
6.40588e-05
-0.000896736
-4.31789e-05
0.000166816
-0.000884854
-2.95035e-05
0.000249563
-0.000865833
-8.93115e-06
0.000304819
-0.000845956
2.22078e-05
0.000322882
-0.00081534
6.83541e-05
0.000297674
-0.0007898
0.000120105
0.000225464
-0.000759692
0.000176833
0.000104864
-0.000743894
0.000234506
-4.91483e-05
-0.00073184
0.000285281
-0.000239898
-0.000764327
0.000343783
-0.000461775
-0.000812194
0.000395387
-0.000693624
-0.000926276
0.00042333
-0.000868606
-0.00109212
0.000399586
-0.000903042
-0.00129808
0.000313498
-0.000765727
-0.00136748
0.00020074
-0.000420041
-0.0012195
8.71512e-05
-4.50861e-05
-0.000569963
4.8551e-05
0.00026318
0.000104727
9.5009e-05
0.00028337
9.5369e-05
0.000290847
0.00091077
-3.2476e-05
0.000538947
0.00119947
-7.98658e-05
0.000715293
0.00131374
-1.67409e-05
0.000769965
0.00132057
0.000105533