/*--------------------------------*- C++ -*----------------------------------*\
| =========                 |                                                 |
| \\      /  F ield         | OpenFOAM: The Open Source CFD Toolbox           |
|  \\    /   O peration     | Version:  v1806                                 |
|   \\  /    A nd           | Web:      www.OpenFOAM.com                      |
|    \\/     M anipulation  |                                                 |
\*---------------------------------------------------------------------------*/
FoamFile
{
    version     2.0;
    format      ascii;
    class       surfaceScalarField;
    location    "0.1055";
    object      phi;
}
// * * * * * * * * * * * * * * * * * * * * * * * * * * * * * * * * * * * * * //

dimensions      [0 3 -1 0 0 0 0];
oriented        oriented;


internalField   nonuniform List<scalar> 
187200
(
9.64139e-06
1.7181e-06
-1.13549e-05
6.08552e-05
-2.59741e-05
-2.52397e-05
8.55119e-05
-1.21127e-05
-1.25437e-05
0.000105991
-1.04134e-05
-1.00655e-05
0.000122727
-6.88146e-06
-9.85429e-06
0.000141208
-6.31683e-06
-1.21644e-05
0.000157951
-2.17753e-06
-1.45657e-05
0.000175817
-4.69082e-08
-1.78183e-05
0.000191756
3.48776e-06
-1.94277e-05
0.000203133
8.9526e-06
-2.03288e-05
0.000216228
7.17215e-06
-2.02671e-05
0.000227324
1.1435e-05
-2.25307e-05
0.000226709
1.79329e-05
-1.73188e-05
0.000201738
3.52521e-05
-1.02808e-05
0.000159326
4.45738e-05
-2.16258e-06
0.000123096
3.04757e-05
5.75443e-06
7.31145e-05
3.14338e-05
1.85482e-05
2.29366e-05
4.33129e-05
6.86476e-06
-7.48755e-05
0.000100487
-2.675e-06
-0.000218652
0.000143554
2.2219e-07
-0.000491914
0.000236167
3.70946e-05
-0.000683698
0.000240056
-4.82716e-05
-0.000829125
0.000289059
-0.000143633
-0.00087833
0.000310004
-0.000260799
-0.000867563
0.000340847
-0.000351614
-0.000800357
0.000369337
-0.000436542
-0.000691547
0.000395397
-0.000504207
-0.000550669
0.000410946
-0.000551824
-0.000385077
0.000406408
-0.000572
-0.00021682
0.000388941
-0.000557198
-8.25981e-05
0.00034943
-0.000483652
7.02677e-06
0.000301085
-0.00039071
4.31625e-05
0.000240741
-0.000276878
3.9895e-05
0.000176208
-0.000172941
1.87503e-05
0.000122409
-0.000101264
-7.22679e-07
8.24408e-05
-6.29681e-05
-1.03375e-05
5.66684e-05
-4.70533e-05
-1.35838e-05
4.3841e-05
-4.0595e-05
-1.14636e-05
3.43694e-05
-3.64903e-05
2.49478e-05
-3.64115e-05
3.96585e-06
1.87975e-05
-2.10452e-05
4.89703e-05
-3.49966e-05
-3.59817e-05
9.3899e-05
-2.74044e-05
-2.96369e-05
0.000127057
-1.63818e-05
-2.71889e-05
0.000151448
-5.95002e-06
-2.53234e-05
0.000170219
4.24756e-06
-2.93352e-05
0.000180448
2.30523e-05
-3.54594e-05
0.000185842
3.58542e-05
-4.12946e-05
0.0001792
6.13357e-05
-5.12057e-05
0.000166169
7.99532e-05
-5.79701e-05
0.00012846
0.00012002
-7.51395e-05
6.72094e-05
0.000164586
-9.19011e-05
-1.78203e-05
0.000201258
-9.82963e-05
-0.000117907
0.000243369
-0.000108031
-0.0002367
0.000297782
-0.000134415
-0.000410507
0.000370995
-0.000166711
-0.000579421
0.000448311
-0.000247963
-0.00076052
0.000529961
-0.00030555
-0.000923602
0.000637496
-0.000373927
-0.00108935
0.000743889
-0.000434585
-0.00125774
0.000873175
-0.000468615
-0.00136453
0.000950849
-0.000604004
-0.00143884
0.00105639
-0.000693026
-0.00143865
0.00109467
-0.000784852
-0.00136432
0.00113872
-0.000872204
-0.00122585
0.00116177
-0.000930902
-0.00103636
0.00116941
-0.00096351
-0.000810365
0.00114651
-0.000961553
-0.000572806
0.00108966
-0.000920815
-0.000344904
0.00100764
-0.000846596
-0.000150059
0.000883387
-0.000728802
9.11567e-06
0.00073709
-0.00059518
0.000100325
0.000582178
-0.000432647
0.000128674
0.000452373
-0.000304514
0.000118804
0.000334224
-0.000201946
9.18777e-05
0.000248208
-0.000138841
6.08807e-05
0.000187665
-0.000100001
3.64195e-05
0.000147702
-7.94011e-05
1.3261e-05
0.000118065
-6.05387e-05
8.28826e-05
-4.46746e-05
2.10751e-05
1.13646e-05
-1.3642e-05
6.2499e-05
-3.94425e-05
-3.69783e-05
0.000105647
-2.87653e-05
-4.17869e-05
0.00013775
-6.03663e-06
-4.24489e-05
0.0001557
2.45709e-05
-4.84711e-05
0.000163247
5.41063e-05
-5.7405e-05
0.00015602
9.5941e-05
-6.56625e-05
0.000141592
0.000133086
-8.28029e-05
0.000117168
0.000192708
-0.000106947
6.47251e-05
0.00026136
-0.000128964
-2.01476e-05
0.000346405
-0.000141512
-0.000121354
0.000427643
-0.000161851
-0.000272002
0.000532135
-0.000180228
-0.000445563
0.000640892
-0.000223962
-0.000639759
0.000752175
-0.000260197
-0.000820035
0.000863574
-0.000312302
-0.000974656
0.000974329
-0.000371398
-0.00111114
0.00109598
-0.000429536
-0.00124238
0.00124882
-0.000480087
-0.00138216
0.00140365
-0.000519969
-0.00152142
0.00154003
-0.000527592
-0.00159863
0.00163281
-0.000604759
-0.00163403
0.00173399
-0.000642197
-0.00161062
0.00174759
-0.000676333
-0.00152479
0.00176968
-0.000716787
-0.00138946
0.00175564
-0.000729205
-0.00121646
0.00171598
-0.000719564
-0.00101773
0.00163381
-0.000686037
-0.000805676
0.00151496
-0.000637353
-0.000586822
0.00136327
-0.00057449
-0.000394813
0.00118397
-0.000492598
-0.000233983
0.00100086
-0.000424596
-0.000112402
0.000798763
-0.000338165
-2.83183e-05
0.000636554
-0.000268265
1.74855e-05
0.000489141
-0.000200721
3.44321e-05
0.000384276
-0.000153014
3.77414e-05
0.000306904
-0.000122549
3.02656e-05
0.000256665
-0.000101487
1.37124e-05
0.000208328
-7.37101e-05
0.000141805
-4.52103e-05
2.37027e-05
6.11292e-06
-1.84513e-05
6.38207e-05
-3.10414e-05
-4.85196e-05
0.000105003
-9.91647e-06
-6.00311e-05
0.00012936
3.68893e-05
-6.72829e-05
0.000135643
9.07121e-05
-7.24244e-05
0.000127015
0.000148132
-8.53982e-05
0.000109361
0.000223173
-0.000109578
7.57144e-05
0.000301984
-0.000135252
2.2627e-05
0.000413645
-0.00016785
-5.54975e-05
0.000526913
-0.000187429
-0.000163108
0.000659447
-0.000205431
-0.000310195
0.000795968
-0.000221238
-0.000470644
0.000930781
-0.000238197
-0.000622421
0.0010479
-0.000255235
-0.000769142
0.00117719
-0.00027829
-0.000905049
0.00130674
-0.000307257
-0.00102972
0.00143806
-0.00033906
-0.00113831
0.00156056
-0.000355989
-0.00124601
0.0017177
-0.000361184
-0.00136114
0.00185553
-0.000336752
-0.00149518
0.00194777
-0.00027371
-0.00156608
0.0019975
-0.000293782
-0.00159977
0.00205245
-0.000284778
-0.00158322
0.00200875
-0.000277712
-0.00151653
0.00198765
-0.000284662
-0.00141715
0.00192946
-0.000273202
-0.00129358
0.0018475
-0.000255091
-0.00115276
0.00172829
-0.000235297
-0.000999883
0.00157455
-0.000212464
-0.000832784
0.00140427
-0.000208097
-0.000653643
0.0012112
-0.000206371
-0.000475483
0.00102856
-0.000205861
-0.000316233
0.000839059
-0.000199546
-0.00018816
0.00070183
-0.000193349
-9.76403e-05
0.000572699
-0.000174078
-3.62223e-05
0.000474851
-0.000151992
2.78739e-06
0.000405247
-0.000137353
1.7423e-05
0.000353791
-0.000111761
1.53142e-05
0.000291092
-8.06553e-05
0.000199922
-4.28026e-05
2.3839e-05
1.82855e-05
-3.60119e-05
6.45887e-05
4.25046e-06
-7.60415e-05
0.000109198
3.84795e-05
-9.30047e-05
0.000129974
0.000115195
-9.90817e-05
0.000127318
0.000200859
-0.000107491
0.000100869
0.000297005
-0.000122423
6.24056e-05
0.000414938
-0.000153302
2.09122e-05
0.000525967
-0.000182489
-2.34493e-05
0.000669081
-0.000211075
-9.29105e-05
0.000818989
-0.000222615
-0.000184312
0.000977075
-0.000226227
-0.000284576
0.00112001
-0.000223781
-0.000398674
0.00126303
-0.000218151
-0.000534597
0.00139894
-0.00021511
-0.000670573
0.00152437
-0.000211208
-0.000791213
0.00163681
-0.000209431
-0.000891665
0.00173793
-0.000199422
-0.000967903
0.00180662
-0.000169831
-0.00105917
0.00190523
-9.62618e-05
-0.00116674
0.00198048
-1.73781e-05
-0.00132029
0.00200978
9.15408e-05
-0.00139817
0.00197076
0.000104622
-0.00145043
0.00198426
0.000120454
-0.00146469
0.00190794
0.000115083
-0.00144353
0.00187085
9.56389e-05
-0.00140094
0.00180337
8.34944e-05
-0.00133987
0.00171706
6.93744e-05
-0.00127116
0.00160498
5.46053e-05
-0.0011758
0.00146622
1.29693e-05
-0.00105486
0.00131582
-3.2493e-05
-0.000905598
0.00114735
-8.54083e-05
-0.000736399
0.000993348
-0.000133991
-0.000563783
0.000833303
-0.00016686
-0.000395237
0.00071671
-0.000183426
-0.000254686
0.000619899
-0.00018775
-0.00013929
0.000530516
-0.000171062
-5.60705e-05
0.000473051
-0.000151023
-5.87965e-06
0.000428056
-0.000124457
9.34348e-06
0.00036038
-8.45126e-05
0.000247664
-3.84007e-05
1.71805e-05
6.5515e-05
-6.44097e-05
6.68702e-05
7.26995e-05
-0.000118138
0.000112434
0.000133209
-0.000140293
0.000133346
0.000235049
-0.000140765
0.000125344
0.000349099
-0.000140238
9.68403e-05
0.000476987
-0.000151479
6.88673e-05
0.000628602
-0.000185692
4.08843e-05
0.000774125
-0.000220176
-1.62112e-06
0.000945918
-0.000234332
-6.13795e-05
0.00110281
-0.000224062
-0.000130621
0.00125207
-0.000205754
-0.000209623
0.00138244
-0.000183422
-0.000294744
0.00150574
-0.000157586
-0.000373954
0.00160619
-0.000128041
-0.000452779
0.00169693
-9.37348e-05
-0.000517718
0.00175912
-5.73705e-05
-0.000594848
0.00180649
8.57586e-06
-0.000691999
0.00182414
7.96398e-05
-0.000794748
0.00184502
0.000162952
-0.000904884
0.00182744
0.000263179
-0.0010677
0.00184226
0.000330329
-0.00117309
0.00173839
0.000337754
-0.00126194
0.00173602
0.000337086
-0.00132434
0.00164489
0.000325452
-0.00135547
0.00160274
0.000299248
-0.00137084
0.00154154
0.000277197
-0.0013709
0.00147367
0.000243444
-0.00135893
0.00138961
0.000203404
-0.0013199
0.0012863
0.000140893
-0.00123345
0.00117798
5.13881e-05
-0.00111608
0.00105454
-2.45545e-05
-0.000949425
0.00093855
-0.000111858
-0.000769639
0.000821308
-0.000167791
-0.00056981
0.000725157
-0.000208277
-0.000386908
0.000654646
-0.00021765
-0.000233376
0.000574905
-0.000197921
-0.000111388
0.000527829
-0.000176766
-3.11648e-05
0.000487245
-0.000139412
5.86677e-06
0.000415116
-9.17669e-05
0.000290735
-3.72048e-05
1.92999e-05
0.000143717
-9.75011e-05
8.54022e-05
0.000178001
-0.000171403
0.000138545
0.000267897
-0.00018783
0.000162593
0.000390358
-0.000179359
0.000157633
0.00053019
-0.000176131
0.000117726
0.000696087
-0.000179194
0.000106849
0.000855704
-0.000216227
8.82234e-05
0.00102018
-0.00022743
7.27075e-05
0.00117857
-0.000217138
3.77142e-05
0.00132178
-0.000183972
-8.89533e-06
0.0014479
-0.000149221
-7.05839e-05
0.00155502
-0.000110892
-0.000137426
0.00164276
-7.01804e-05
-0.000204222
0.00170038
-2.73943e-05
-0.000273242
0.00173546
3.04923e-05
-0.000331787
0.00173558
8.2087e-05
-0.000396267
0.00172723
0.000143742
-0.000460733
0.00167663
0.000211975
-0.000561701
0.00164734
0.000298646
-0.000667096
0.00155667
0.000376162
-0.000831047
0.0015619
0.000444318
-0.000973075
0.00142614
0.000454279
-0.00107943
0.00140737
0.000435001
-0.00119115
0.001346
0.000410612
-0.00127307
0.00131749
0.000367156
-0.00134472
0.00128267
0.000330523
-0.00139907
0.00124666
0.000281352
-0.00143456
0.00119819
0.000226906
-0.00144365
0.00113881
0.000156585
-0.0013917
0.00107158
5.44535e-05
-0.00130232
0.000988082
-2.29218e-05
-0.0011557
0.000897685
-0.000105753
-0.000966011
0.000808624
-0.000177007
-0.00073886
0.000715913
-0.000217907
-0.000503023
0.000672301
-0.000253491
-0.000319504
0.000621427
-0.000230042
-0.000159138
0.000576117
-0.000208653
-5.37509e-05
0.000542786
-0.000160928
1.01763e-06
0.000466391
-0.000106043
0.000331789
-4.00359e-05
2.94143e-05
0.00024525
-0.000130947
0.000112616
0.000314263
-0.000219462
0.000179639
0.000430969
-0.000230095
0.000207349
0.00056769
-0.000205041
0.000203947
0.000719382
-0.000185791
0.000188279
0.000897375
-0.00018562
0.000200882
0.00105054
-0.000207436
0.000203896
0.00121818
-0.000201017
0.000196217
0.00135716
-0.000170913
0.000160843
0.00148197
-0.000124815
0.000118435
0.00157603
-8.57156e-05
6.57704e-05
0.00164841
-4.07317e-05
8.81725e-06
0.00168753
1.21838e-05
-5.31629e-05
0.00169026
7.21009e-05
-0.000112485
0.00166973
0.000125043
-0.000174722
0.00161465
0.000183164
-0.000238904
0.00155241
0.000239002
-0.000305444
0.00145982
0.00028334
-0.00039015
0.00139573
0.000336314
-0.000502479
0.00128101
0.000387986
-0.000642588
0.0012677
0.000434308
-0.000820115
0.00116402
0.000439645
-0.000945661
0.00111996
0.000412952
-0.00109801
0.00111113
0.000387216
-0.00122122
0.00109409
0.000346619
-0.00132949
0.00108409
0.000306848
-0.00142051
0.00107314
0.000264544
-0.00149276
0.00104996
0.000220485
-0.00153045
0.00102499
0.000151507
-0.00150972
0.000978756
7.20931e-05
-0.00144537
0.000916038
7.68729e-06
-0.00131944
0.000842197
-7.04445e-05
-0.00112774
0.000772907
-0.000155981
-0.000903067
0.000704619
-0.000213375
-0.000642771
0.000663269
-0.000251264
-0.000412931
0.000653323
-0.000261736
-0.000215709
0.000610444
-0.000231549
-7.96492e-05
0.000590701
-0.000183975
-6.20784e-06
0.000511675
-0.000118725
0.000370316
-4.47337e-05
4.75184e-05
0.000358414
-0.000160683
0.0001547
0.000468606
-0.000261525
0.000249533
0.000606461
-0.000270325
0.000295627
0.00074909
-0.000227494
0.000295611
0.000913843
-0.000194446
0.000295869
0.00107843
-0.000181312
0.00029869
0.00122301
-0.000175291
0.000303975
0.00136765
-0.00015475
0.000306466
0.00147788
-0.000123208
0.000286016
0.00157835
-7.59335e-05
0.000243034
0.00163955
-2.05375e-05
0.000194583
0.00166449
3.23793e-05
0.000133925
0.00165664
9.15509e-05
6.8014e-05
0.0016178
0.000138367
2.77737e-06
0.00155002
0.000184953
-6.61203e-05
0.00145654
0.000227008
-0.000137568
0.00136285
0.000261005
-0.000213891
0.0012529
0.000283246
-0.000292367
0.00117009
0.000304116
-0.000412057
0.00106918
0.000331525
-0.00052922
0.00102958
0.000355282
-0.000715364
0.000984799
0.000365368
-0.000872464
0.000927947
0.000349116
-0.00104059
0.000951914
0.000327341
-0.00118822
0.000939708
0.000302017
-0.00131659
0.000945998
0.000266461
-0.00143331
0.000943915
0.000245949
-0.00152815
0.000941892
0.000202903
-0.0015961
0.000922949
0.000169992
-0.0016146
0.000884445
0.000112811
-0.00156818
0.000830324
3.92887e-05
-0.00145731
0.000769339
-3.80023e-05
-0.00126918
0.000707701
-0.000122928
-0.00103167
0.000657176
-0.000190063
-0.00075346
0.000623946
-0.00023889
-0.000493425
0.000649649
-0.000256361
-0.00026923
0.00063537
-0.000249121
-0.000102369
0.000625413
-0.000201574
-1.48993e-05
0.000556828
-0.000132623
0.000407068
-5.16516e-05
6.59797e-05
0.000469166
-0.000176731
0.000199167
0.000628477
-0.000293057
0.000320202
0.000782183
-0.000296758
0.000381168
0.000926325
-0.000238201
0.000400364
0.00107857
-0.000183927
0.000404284
0.00122345
-0.000148944
0.000397725
0.0013578
-0.000128229
0.000399126
0.0014728
-0.000106551
0.000389464
0.00155746
-6.99148e-05
0.000379839
0.00160808
-2.01099e-05
0.000354626
0.00163736
2.73967e-05
0.000297502
0.00163288
8.8733e-05
0.000225444
0.00159072
0.000137978
0.000154077
0.00150721
0.000181958
7.99035e-05
0.00140957
0.000214617
2.15617e-06
0.00129618
0.000238101
-7.59806e-05
0.00119062
0.000250365
-0.000158722
0.00108445
0.000251187
-0.000243384
0.00100358
0.000251176
-0.000365582
0.000933371
0.000258004
-0.000490016
0.000884464
0.00026955
-0.000658156
0.000867478
0.000285461
-0.000836023
0.000816865
0.000288949
-0.000993945
0.000835301
0.000274536
-0.00115157
0.000826996
0.000270334
-0.00128358
0.000837692
0.000240317
-0.00141476
0.000837669
0.000237426
-0.00153167
0.000837064
0.000221742
-0.0016203
0.000812074
0.000199507
-0.00166468
0.000777312
0.000151509
-0.0016455
0.000734561
7.65818e-05
-0.00155374
0.000687104
-9.52386e-06
-0.00138564
0.000637765
-9.81652e-05
-0.00114778
0.000598006
-0.000178685
-0.000868276
0.000561051
-0.000216613
-0.000571357
0.000595621
-0.000242891
-0.000321246
0.000630614
-0.000245355
-0.000128885
0.000642006
-0.000208955
-2.39046e-05
0.000591149
-0.000139302
0.000439573
-5.64098e-05
8.25383e-05
0.000569398
-0.000182769
0.000245687
0.000777556
-0.000312227
0.000394157
0.000944856
-0.000311144
0.000473995
0.00108488
-0.00023839
0.000510078
0.00121613
-0.000173643
0.000513631
0.00133701
-0.00011711
0.000507728
0.0014474
-8.37015e-05
0.000497485
0.00153313
-5.00838e-05
0.000475002
0.00159299
-1.30458e-05
0.000444884
0.00162068
1.75229e-05
0.00040643
0.0016093
6.65129e-05
0.000361463
0.00155923
0.000118613
0.00029714
0.00149022
0.000164817
0.000213676
0.00139122
0.000199455
0.000127261
0.00127391
0.000222076
4.02241e-05
0.00115475
0.000228469
-4.70627e-05
0.0010523
0.000225604
-0.000137034
0.000958744
0.000215682
-0.000230507
0.000889234
0.000207819
-0.000345554
0.000840877
0.000207541
-0.000470861
0.000796886
0.000212885
-0.00061067
0.000776307
0.000230979
-0.000789226
0.000748985
0.000246437
-0.000936782
0.000736686
0.000246171
-0.00108992
0.000729278
0.00025086
-0.00122795
0.000729898
0.000245825
-0.0013669
0.000733959
0.000242652
-0.00149993
0.000719332
0.000250766
-0.00161217
0.000697594
0.000226718
-0.00168159
0.000667375
0.000179358
-0.00169984
0.000626626
0.000126185
-0.00163729
0.000593563
3.09936e-05
-0.00148782
0.000556485
-6.81934e-05
-0.00124163
0.000527797
-0.000175982
-0.000948317
0.000496083
-0.000228342
-0.000636211
0.000523786
-0.00024027
-0.000369261
0.000589665
-0.000226002
-0.000151873
0.00064464
-0.000220022
-3.11474e-05
0.000615149
-0.000144725
0.000472012
-6.3586e-05
9.57859e-05
0.000652577
-0.000178965
0.000285806
0.000909147
-0.00032161
0.000459256
0.00108989
-0.000318488
0.000557793
0.00121823
-0.000231889
0.000606214
0.0013254
-0.000157686
0.000615231
0.00141789
-8.98926e-05
0.000608453
0.00150009
-4.59066e-05
0.000588365
0.00155902
-5.80281e-06
0.000553977
0.00159485
3.25286e-05
0.000506562
0.00158998
7.8114e-05
0.000451375
0.00155795
0.000106538
0.000387934
0.00148694
0.000135734
0.000320354
0.00138688
0.000170918
0.000244366
0.00126759
0.000199609
0.000156781
0.00115372
0.000207779
6.57522e-05
0.00103819
0.000207588
-2.48137e-05
0.000946329
0.000196539
-0.00011835
0.000867703
0.000184578
-0.000221259
0.000812647
0.000179497
-0.00033151
0.000773589
0.00017754
-0.000450772
0.00073288
0.000183269
-0.000573812
0.000699868
0.00019948
-0.00072774
0.000681853
0.00022106
-0.000860654
0.000642334
0.000227267
-0.00100213
0.000628352
0.000242405
-0.00113538
0.000620304
0.00024284
-0.00128369
0.000612081
0.000270192
-0.00142835
0.000598582
0.000265402
-0.00155559
0.000581294
0.000243546
-0.00165595
0.000557107
0.000210631
-0.00169788
0.000539045
0.000129502
-0.0016701
0.000518192
4.75995e-05
-0.00155877
0.000487529
-4.23729e-05
-0.00134446
0.000456179
-0.000142696
-0.00104516
0.000439033
-0.000242252
-0.000704227
0.00044611
-0.000263255
-0.000402728
0.000517401
-0.000229236
-0.000174992
0.000616109
-0.000199204
-3.88262e-05
0.00062653
-0.000147547
0.00050002
-6.68349e-05
0.000106619
0.000710698
-0.000164739
0.000320763
0.00101296
-0.000317955
0.000521127
0.001204
-0.00031447
0.000640241
0.00131787
-0.000218757
0.000695275
0.00140519
-0.000134822
0.000708125
0.00147213
-6.70929e-05
0.000700758
0.00152491
-1.74579e-05
0.000674339
0.00155407
3.1369e-05
0.000630031
0.00156198
7.71727e-05
0.000568419
0.00153863
0.000112966
0.000496582
0.00148397
0.000145824
0.000418081
0.00139705
0.000168392
0.000336543
0.00128907
0.000179355
0.000254098
0.00116506
0.000184981
0.000172879
0.00104775
0.00018719
8.4498e-05
0.000947119
0.000179452
-7.2782e-06
0.000867493
0.000170612
-0.000100049
0.000798109
0.000162364
-0.000205227
0.000753187
0.000164637
-0.00030736
0.000709747
0.000165974
-0.000413383
0.000665389
0.000173515
-0.000525916
0.000626855
0.000185545
-0.000651133
0.000602553
0.000204518
-0.000766313
0.000547185
0.00021033
-0.000891284
0.000526913
0.000226411
-0.00102136
0.00050818
0.000242198
-0.00116956
0.000495651
0.000264627
-0.0013193
0.000483009
0.000265314
-0.00146444
0.00047038
0.000256062
-0.00158521
0.000465511
0.000212359
-0.00166585
0.000464222
0.000155461
-0.00167816
0.000438928
9.15829e-05
-0.00161164
0.000397408
2.35994e-05
-0.0014399
0.000357133
-7.2695e-05
-0.00115745
0.000340731
-0.000184146
-0.00080174
0.000356801
-0.000266406
-0.000454775
0.000436573
-0.000266138
-0.000199109
0.000552581
-0.000192137
-4.70505e-05
0.000622467
-0.000147996
0.000526687
-7.37187e-05
0.00011054
0.000749435
-0.000149277
0.000343885
0.00109047
-0.000310856
0.000569248
0.00129061
-0.000311971
0.000705976
0.00139178
-0.000210633
0.000768054
0.00145751
-0.000114404
0.00078117
0.00150052
-4.15072e-05
0.000771448
0.00152867
5.96289e-06
0.000735383
0.00152995
6.01853e-05
0.000682456
0.0015126
0.000102309
0.000616437
0.00146594
0.000138705
0.000536014
0.00139651
0.000167884
0.000443556
0.00129966
0.000189848
0.000347575
0.00119022
0.000194823
0.000258937
0.00106947
0.000184227
0.000177482
0.000962341
0.00016686
9.77674e-05
0.000869581
0.000157252
1.68063e-05
0.000798544
0.00014991
-7.30901e-05
0.000739293
0.000148713
-0.000172724
0.000696506
0.000156316
-0.000267967
0.000643188
0.000161801
-0.000364622
0.000593773
0.000168271
-0.00046634
0.000553159
0.000175414
-0.000559749
0.000512349
0.000183613
-0.000659579
0.00045602
0.000190995
-0.000767034
0.000428894
0.000205474
-0.00088907
0.000397201
0.000233015
-0.00102771
0.000384927
0.000249363
-0.00117564
0.000373167
0.000257771
-0.00132594
0.000375728
0.000244951
-0.00147523
0.000384224
0.000230583
-0.00158782
0.000375068
0.000201739
-0.00165151
0.000335936
0.000166681
-0.00163225
0.000281011
9.71389e-05
-0.00150309
0.000227
9.75804e-07
-0.0012515
0.00019719
-0.000108049
-0.000897418
0.000220558
-0.000217841
-0.000512936
0.000327703
-0.000275612
-0.000220739
0.000484829
-0.000224444
-5.23988e-05
0.000601889
-0.000147762
0.000553287
-7.90001e-05
0.000116675
0.000753894
-0.000121134
0.000368551
0.00112728
-0.000288689
0.000614021
0.00133995
-0.000294813
0.000767485
0.00143622
-0.000197904
0.000834818
0.00148283
-9.26448e-05
0.000845096
0.00150231
-1.20707e-05
0.00082797
0.00150329
4.25033e-05
0.000788752
0.00148129
8.78713e-05
0.000733013
0.00144243
0.000125908
0.000658828
0.00137962
0.000160509
0.000573053
0.00129725
0.000185035
0.000476372
0.00119482
0.000201516
0.000373867
0.00108605
0.000206675
0.000275761
0.000977674
0.000189899
0.000194581
0.000881128
0.000162393
0.000116768
0.000801102
0.000146292
4.24703e-05
0.000736612
0.000136229
-4.18584e-05
0.000681403
0.000142218
-0.000130903
0.00063297
0.00015258
-0.000221232
0.000575717
0.0001578
-0.000309535
0.000521058
0.000161017
-0.000395377
0.0004772
0.000161801
-0.000469207
0.000427669
0.000158509
-0.000554558
0.000375161
0.00016621
-0.000645893
0.000340107
0.000180121
-0.000752933
0.00030412
0.000200121
-0.000877543
0.000288189
0.000221348
-0.00101374
0.000279462
0.000229903
-0.00117143
0.000294994
0.000238424
-0.00132388
0.000299227
0.000237444
-0.00146648
0.00027911
0.000238557
-0.00157442
0.000234242
0.000209641
-0.00161268
0.00016812
0.000151147
-0.00154364
9.18207e-05
6.61392e-05
-0.0013351
3.84308e-05
-4.97773e-05
-0.00101145
4.72325e-05
-0.000150322
-0.000599425
0.000161089
-0.000245415
-0.00025106
0.000394214
-0.000257749
-6.16265e-05
0.000560161
-0.000147705
0.00057363
-8.19699e-05
0.000116548
0.000737627
-0.000100281
0.000378289
0.00113347
-0.000267925
0.000638605
0.00135925
-0.000279611
0.000805873
0.001453
-0.000184051
0.000880812
0.00148595
-7.80638e-05
0.000889763
0.00148014
1.32241e-05
0.000867711
0.00145752
6.78216e-05
0.000821381
0.00141342
0.000114199
0.000760089
0.00135801
0.000145716
0.000685431
0.00128291
0.000171366
0.000598819
0.00119193
0.00019193
0.000498251
0.00108732
0.00020807
0.000396285
0.000984739
0.000203279
0.000299515
0.000886229
0.000188214
0.000213501
0.000802847
0.000164295
0.000140437
0.000731989
0.000142177
7.32629e-05
0.00066874
0.000135045
-6.80967e-06
0.000623009
0.000138467
-9.07938e-05
0.000570649
0.000146305
-0.000170549
0.000506904
0.000148568
-0.00025206
0.000454698
0.00014787
-0.000322535
0.000409048
0.000138627
-0.000388961
0.000359128
0.000134967
-0.000460253
0.000306563
0.00013989
-0.000537542
0.000267481
0.000149915
-0.000628635
0.000226505
0.000168707
-0.000728672
0.000205105
0.000183123
-0.000855192
0.00020467
0.000201312
-0.000995344
0.000214937
0.000220209
-0.00114736
0.000204204
0.000247041
-0.00130772
0.000183591
0.000255881
-0.00144889
0.000133888
0.000241518
-0.00153609
6.08172e-05
0.000194508
-0.00152511
-3.66734e-05
0.000117511
-0.00138119
-0.000119915
1.44331e-05
-0.00108682
-0.000148863
-9.82843e-05
-0.000688406
-4.13767e-05
-0.000195945
-0.000287331
0.00023009
-0.000236951
-7.08293e-05
0.000508138
-0.000164479
0.000581882
-7.90813e-05
0.000131321
0.000645127
-3.88201e-05
0.0004046
0.00107948
-0.000219287
0.000677132
0.00132856
-0.000241846
0.000862597
0.00142185
-0.000154318
0.000939589
0.00144612
-3.71619e-05
0.000942033
0.00142527
5.24273e-05
0.000907167
0.00138233
0.00011006
0.000854888
0.0013176
0.0001481
0.000791662
0.00124919
0.000172047
0.000717414
0.00116782
0.000189339
0.000634613
0.00107929
0.000195439
0.000541447
0.000984004
0.00019648
0.000441963
0.0008913
0.000192924
0.000344861
0.00080495
0.000178381
0.000255262
0.000731604
0.000160842
0.000174687
0.000669343
0.00014322
9.41941e-05
0.000615179
0.000134055
2.29762e-05
0.000558454
0.000135773
-4.36301e-05
0.000499258
0.000137997
-0.000121776
0.00045105
0.000133999
-0.000199814
0.000404933
0.000127803
-0.000260296
0.000351305
0.000118225
-0.000318692
0.000302716
0.000114809
-0.000380912
0.000251121
0.000117661
-0.000447469
0.000207566
0.000126472
-0.000522694
0.000164718
0.000137013
-0.000607582
0.000137919
0.000152074
-0.000716697
0.000136208
0.000177577
-0.000838539
0.000125605
0.000211174
-0.000985977
0.000107619
0.000244023
-0.00114835
8.12745e-05
0.000264688
-0.00130571
2.74274e-05
0.000263827
-0.00142866
-5.04283e-05
0.000234191
-0.00147041
-0.000164634
0.00016971
-0.00138847
-0.000275475
7.36231e-05
-0.00115217
-0.000348958
-3.62051e-05
-0.000781114
-0.000274719
-0.000137717
-0.000346921
-8.44883e-06
-0.000195656
-6.91927e-05
0.000416152
-0.000185743
0.000583956
-7.12661e-05
0.000123876
0.000538131
-1.68786e-05
0.000387957
0.00102346
-0.000208059
0.000673757
0.00128741
-0.000244654
0.000876134
0.00137996
-0.000160482
0.000967735
0.00139289
-3.83666e-05
0.000974372
0.0013506
6.80358e-05
0.000946394
0.00128659
0.00012372
0.000889436
0.00121351
0.00016105
0.000812849
0.00114483
0.000180946
0.000729296
0.00105739
0.000193981
0.000644129
0.000964837
0.000199622
0.000556075
0.000875133
0.000196925
0.00046832
0.000790668
0.000188387
0.000383426
0.000717195
0.000172649
0.000302861
0.000656385
0.000155783
0.000229509
0.000600177
0.000142517
0.000159076
0.000550587
0.000135026
8.17645e-05
0.000502303
0.000133462
-1.16148e-05
0.000459016
0.000133621
-8.67931e-05
0.00040648
0.000119749
-0.000153043
0.000357564
0.000113619
-0.000206853
0.000301737
0.000103379
-0.00026193
0.000255397
0.000102397
-0.000315914
0.000203774
0.000101331
-0.000373813
0.000158196
0.00010727
-0.000435295
0.000110716
0.000115485
-0.000505499
7.69787e-05
0.000131144
-0.000587028
5.59359e-05
0.000161802
-0.000691087
3.15272e-05
0.000198137
-0.000818891
3.14888e-06
0.000232275
-0.000971163
-2.594e-05
0.000259486
-0.00113446
-8.19504e-05
0.000272676
-0.00128419
-0.000160468
0.000259768
-0.00137519
-0.000286242
0.000212604
-0.00135568
-0.000423643
0.000128661
-0.00118072
-0.000553882
2.99628e-05
-0.000835441
-0.000536971
-8.30242e-05
-0.000417196
-0.000273251
-0.000153442
-7.41614e-05
0.000231084
-0.000157966
0.000565061
-5.5267e-05
0.000156251
0.000333027
4.88524e-05
0.000399259
0.000902452
-0.000122004
0.000690362
0.0011824
-0.000186092
0.000900088
0.00128194
-0.000111708
0.00100203
0.00128815
2.79973e-06
0.00100063
0.00124764
0.000104352
0.000954481
0.00117614
0.000156598
0.000889833
0.00108693
0.000191224
0.000828741
0.00100318
0.000202741
0.00077099
0.000911654
0.000203484
0.000706186
0.000830955
0.000198686
0.000631415
0.000759843
0.000190062
0.000549208
0.000694865
0.000178008
0.000463752
0.000639805
0.000162845
0.000378459
0.000592786
0.000148892
0.000295217
0.000555061
0.000128358
0.000210161
0.0005159
0.000119743
0.000123298
0.00046684
0.000122327
3.10673e-05
0.000423734
0.000127513
-4.18859e-05
0.000366589
0.000112844
-0.000108912
0.000320175
0.000104416
-0.000163894
0.000262168
9.45532e-05
-0.000217329
0.000215477
9.33558e-05
-0.000266676
0.000163027
9.00945e-05
-0.000318598
0.000116338
9.37793e-05
-0.000374745
6.21154e-05
0.000104748
-0.000436805
1.86912e-05
0.000120347
-0.000504846
-2.65479e-05
0.000150525
-0.000595958
-6.50897e-05
0.00018773
-0.000704607
-0.000114224
0.000226021
-0.000836275
-0.000159129
0.000264857
-0.000986821
-0.00022899
0.000297586
-0.00114608
-0.000311711
0.000310505
-0.00127026
-0.00045015
0.000288087
-0.00131116
-0.000605312
0.000222563
-0.00119129
-0.000817994
0.000144245
-0.00088322
-0.000872991
2.79492e-05
-0.000451551
-0.000619775
-8.51452e-05
-8.57056e-05
-2.40672e-05
-0.000110694
0.000501923
-2.2567e-05
0.000129164
0.00019104
1.28229e-05
0.000347426
0.000820687
-0.000136497
0.000641248
0.00109498
-0.000206404
0.00086317
0.00119435
-0.000134333
0.000985677
0.0011824
-1.67583e-05
0.00101899
0.00112309
9.12366e-05
0.00100351
0.00103316
0.00015846
0.000959604
0.000949922
0.000180916
0.000898886
0.000883259
0.000180639
0.000823295
0.000812036
0.000175208
0.000744698
0.000742252
0.0001673
0.000663199
0.000680911
0.00016043
0.000581921
0.00062448
0.000151663
0.000500187
0.000579538
0.000142002
0.000417172
0.000543083
0.000132719
0.000332086
0.00051048
0.000129666
0.000251766
0.000477408
0.000118812
0.000171105
0.000433186
0.000114315
8.89632e-05
0.000387434
0.000118442
3.63184e-06
0.000332602
0.000119319
-6.58353e-05
0.000283603
0.000106039
-0.000125201
0.000225828
9.57077e-05
-0.000176587
0.000176615
9.02484e-05
-0.000221876
0.000121528
8.67887e-05
-0.000267115
7.09047e-05
9.06719e-05
-0.000317813
1.50036e-05
9.78096e-05
-0.000367442
-3.58834e-05
0.000104203
-0.000416194
-0.00010183
0.000124035
-0.000483158
-0.000157561
0.000159436
-0.000568605
-0.000226505
0.000197728
-0.000679615
-0.000288281
0.000240161
-0.000815542
-0.000380358
0.000287294
-0.000981047
-0.000475849
0.000329643
-0.0011387
-0.000646294
0.000353793
-0.00123325
-0.000844489
0.00033373
-0.0012101
-0.00109651
0.000255368
-0.00101995
-0.00120898
0.000145837
-0.000581743
-0.00107992
2.19339e-05
-0.000157146
-0.000420797
-2.78686e-05
0.000320156
2.46215e-05
9.38829e-05
8.21552e-05
1.50015e-05
0.000340191
0.000701477
-0.000127098
0.000627436
0.00100125
-0.000193511
0.000869682
0.00110968
-0.00015757
0.00100478
0.00110147
-5.41738e-05
0.00104199
0.00103975
4.61337e-05
0.00100589
0.00094782
0.000121441
0.000940766
0.000859847
0.000155196
0.000887305