/*--------------------------------*- C++ -*----------------------------------*\
| =========                 |                                                 |
| \\      /  F ield         | OpenFOAM: The Open Source CFD Toolbox           |
|  \\    /   O peration     | Version:  v1806                                 |
|   \\  /    A nd           | Web:      www.OpenFOAM.com                      |
|    \\/     M anipulation  |                                                 |
\*---------------------------------------------------------------------------*/
FoamFile
{
    version     2.0;
    format      ascii;
    class       volVectorField;
    location    "0.0585";
    object      U_0;
}
// * * * * * * * * * * * * * * * * * * * * * * * * * * * * * * * * * * * * * //

dimensions      [0 1 -1 0 0 0 0];


internalField   nonuniform List<vector> 
64000
(
(-0.007745 -0.00906719 -0.00517276)
(0.0143577 -0.00977864 -0.0026905)
(0.0212901 -0.00394574 0.00144987)
(0.0233527 -0.00377368 0.00175529)
(0.0231608 -0.00289193 0.00243242)
(0.0229086 -0.00300908 0.0032359)
(0.0219604 -0.0034939 0.00338901)
(0.0186397 -0.00403599 0.00345835)
(0.0168527 -0.00515356 0.00476772)
(0.0101965 -0.00441735 0.00416181)
(0.00394517 -0.00606386 0.00625374)
(-0.0103521 -0.00906055 0.00653274)
(-0.0307738 -0.0131088 0.00670617)
(-0.0548857 -0.0179312 0.00422404)
(-0.0872713 -0.0179474 0.0052483)
(-0.121808 -0.0142507 0.00306838)
(-0.156255 0.00165127 0.00238914)
(-0.19758 -0.00393917 -0.00131224)
(-0.206217 -0.0101274 0.00614695)
(-0.259872 -0.0291814 -0.0159237)
(-0.226899 -0.0259272 -0.027584)
(-0.108963 -0.0260047 -0.0398963)
(-0.0982984 -0.0123295 -0.0283454)
(-0.0946656 -0.00514131 -0.0373129)
(-0.104028 0.00177775 -0.0481605)
(-0.101523 0.0104843 -0.0568246)
(-0.0869589 0.0201289 -0.0619161)
(-0.0550896 0.0320154 -0.0566119)
(-0.0234259 0.0375622 -0.0524087)
(0.019268 0.0541866 -0.0324892)
(0.0696742 0.0438701 -0.0317591)
(0.101145 0.0367237 -0.0223324)
(0.116686 0.0256263 -0.0109231)
(0.111861 0.0118081 -0.0036993)
(0.09725 0.00393897 0.00229623)
(0.0768652 -0.00444888 0.00477608)
(0.054996 -0.00744735 0.00685011)
(0.0330357 -0.00638715 0.00766715)
(0.0174324 -0.00466727 0.00789664)
(0.0027033 -0.00311404 0.00587377)
(-0.00584703 -0.0020335 -0.00208434)
(0.0108959 -0.0175264 -0.0017264)
(0.0275991 -0.0134639 -0.000250974)
(0.0350265 -0.00903045 -0.000578585)
(0.0388664 -0.00462578 -6.46216e-06)
(0.0385767 -0.00146424 -0.00100561)
(0.0363851 0.00270554 -0.00264053)
(0.0287593 0.00471309 -0.00242034)
(0.0217949 0.0103274 -0.00701257)
(0.00420707 0.0165038 -0.00432405)
(-0.0205539 0.0244076 -0.00801901)
(-0.0578514 0.0316912 0.000186442)
(-0.106368 0.0432206 -0.00399138)
(-0.158012 0.065262 -0.00677674)
(-0.218094 0.077466 -0.0106245)
(-0.276394 0.0861896 -0.0183746)
(-0.363699 0.093006 -0.0429616)
(-0.466082 0.0957146 -0.0578169)
(-0.523557 0.101205 -0.0754092)
(-0.600525 0.0979963 -0.0997385)
(-0.558466 0.123124 -0.104605)
(-0.416793 0.138737 -0.127777)
(-0.387064 0.182446 -0.140301)
(-0.370912 0.210191 -0.14801)
(-0.352508 0.235609 -0.158996)
(-0.317535 0.258148 -0.164757)
(-0.263393 0.278174 -0.166106)
(-0.1959 0.294898 -0.154415)
(-0.117355 0.300117 -0.134097)
(-0.0497045 0.309404 -0.109761)
(0.0179515 0.289373 -0.0746739)
(0.0833101 0.259478 -0.0475399)
(0.117687 0.2076 -0.0386632)
(0.129982 0.158972 -0.0269932)
(0.123764 0.107868 -0.0129184)
(0.103539 0.0678836 -0.00525985)
(0.0826804 0.0395758 -0.000799867)
(0.056491 0.0249962 0.000365706)
(0.0335755 0.0152635 0.0020341)
(0.00862932 0.00667923 0.00312405)
(-0.000322585 -0.0102547 0.00180697)
(0.0160639 -0.0243992 -0.000777609)
(0.0355565 -0.0200779 -0.00133996)
(0.0442053 -0.0079451 -0.00185915)
(0.0446694 0.00462399 -0.00377696)
(0.0421711 0.0156785 -0.005722)
(0.0338117 0.0317746 -0.00713635)
(0.0198015 0.0456359 -0.00916191)
(0.00376212 0.0693911 -0.00195699)
(-0.0265237 0.0900579 -0.00457349)
(-0.0654031 0.118172 -0.0082451)
(-0.11835 0.151586 -0.0131605)
(-0.173176 0.184527 -0.0169483)
(-0.252918 0.209972 -0.0317055)
(-0.35579 0.2282 -0.0342283)
(-0.45125 0.241519 -0.0424717)
(-0.541972 0.246839 -0.0583864)
(-0.626388 0.268719 -0.075482)
(-0.677712 0.297225 -0.0932667)
(-0.738978 0.329697 -0.115591)
(-0.683412 0.368144 -0.112749)
(-0.516271 0.395938 -0.123683)
(-0.462336 0.451557 -0.12814)
(-0.435927 0.486227 -0.123724)
(-0.408462 0.517636 -0.125427)
(-0.369678 0.540802 -0.123198)
(-0.315154 0.554125 -0.118805)
(-0.25259 0.558447 -0.104562)
(-0.183194 0.54836 -0.0832444)
(-0.120276 0.52936 -0.0596197)
(-0.0634542 0.501486 -0.0397459)
(-0.0227839 0.452909 -0.0276706)
(0.0123722 0.380128 -0.0144209)
(0.0361116 0.307346 -0.00793767)
(0.0452048 0.228373 -0.010878)
(0.0505083 0.16265 -0.0106938)
(0.0493301 0.113715 -0.00689411)
(0.0396466 0.0759156 -0.00457446)
(0.0278349 0.0498929 -0.000724765)
(0.00848876 0.0226653 0.00237143)
(0.000354923 -0.0157675 0.00230802)
(0.0182448 -0.0278828 -0.0016661)
(0.0410003 -0.0153069 -0.00178588)
(0.0497764 0.00334103 -0.00572999)
(0.0459324 0.0283363 -0.00598953)
(0.0397243 0.0543362 -0.00805041)
(0.026055 0.0895197 -0.00821386)
(0.00591235 0.122817 -0.00484518)
(-0.0205639 0.168418 -0.0101121)
(-0.0649547 0.209076 -0.0123696)
(-0.111157 0.251107 -0.0165744)
(-0.178562 0.282005 -0.0234582)
(-0.268119 0.308541 -0.0261558)
(-0.359508 0.324117 -0.0284201)
(-0.446109 0.34656 -0.0302259)
(-0.524366 0.373233 -0.0372904)
(-0.599889 0.403221 -0.0505162)
(-0.670918 0.433592 -0.0588257)
(-0.707272 0.471895 -0.0677321)
(-0.753019 0.513702 -0.0761265)
(-0.685281 0.548094 -0.0552872)
(-0.498268 0.566835 -0.0471838)
(-0.430252 0.608602 -0.0438175)
(-0.404688 0.620737 -0.0299047)
(-0.379406 0.632576 -0.0260358)
(-0.350111 0.634917 -0.0202025)
(-0.307752 0.626447 -0.016813)
(-0.262212 0.60884 -0.00982307)
(-0.210625 0.583662 0.00167295)
(-0.166523 0.551915 0.00891383)
(-0.133482 0.513473 0.0145238)
(-0.110323 0.46987 0.0130639)
(-0.0891948 0.417673 0.00808034)
(-0.066274 0.352037 -0.000176386)
(-0.0450363 0.273615 -0.00425649)
(-0.0185613 0.202615 -0.00967376)
(0.00105017 0.146245 -0.00999212)
(0.010072 0.109344 -0.00734394)
(0.0178675 0.0754466 -0.00296933)
(0.00689411 0.0339673 0.00198569)
(0.00105696 -0.0170923 0.00085269)
(0.0242458 -0.0195994 -0.00494996)
(0.0504662 -0.000723591 -0.00529662)
(0.0587209 0.0337021 -0.00710024)
(0.0544398 0.0755086 -0.0060624)
(0.0473612 0.122804 -0.0142159)
(0.0272335 0.181746 -0.0110372)
(0.00064617 0.237573 -0.00492625)
(-0.0327218 0.288699 -0.0072106)
(-0.0898026 0.327209 -0.00930196)
(-0.157889 0.357493 -0.0122688)
(-0.236798 0.376427 -0.0147294)
(-0.307251 0.401043 -0.0161903)
(-0.380873 0.430332 -0.0210095)
(-0.45605 0.463322 -0.0186029)
(-0.522303 0.495864 -0.020823)
(-0.58334 0.526593 -0.0227253)
(-0.634002 0.562679 -0.018912)
(-0.651478 0.603313 -0.0165863)
(-0.684932 0.64629 -0.0251602)
(-0.617877 0.674704 -0.00306499)
(-0.424748 0.682708 0.0130767)
(-0.353063 0.694842 0.0226314)
(-0.336353 0.676891 0.0363319)
(-0.322741 0.657311 0.0380975)
(-0.312641 0.633583 0.0447475)
(-0.291327 0.600502 0.0457333)
(-0.263773 0.565267 0.0496485)
(-0.233064 0.524781 0.0432142)
(-0.209359 0.486102 0.0359347)
(-0.188239 0.442542 0.0263076)
(-0.177599 0.408476 0.018948)
(-0.170792 0.373961 0.0109812)
(-0.167918 0.342853 -0.000656149)
(-0.149812 0.279552 -0.0118172)
(-0.104128 0.207146 -0.0129157)
(-0.0518944 0.159593 -0.0127869)
(-0.0164364 0.128423 -0.0110036)
(0.00319763 0.09357 -0.00530034)
(0.00398796 0.0424989 0.00195257)
(0.00498459 -0.0143196 0.000519486)
(0.030652 -0.00524203 -0.0038504)
(0.0643466 0.0200434 -0.00463125)
(0.0803119 0.069591 -0.00833611)
(0.0744495 0.125459 -0.0127175)
(0.0685845 0.191732 -0.0185983)
(0.0456731 0.263047 -0.0136336)
(0.000284899 0.308314 -0.00140477)
(-0.0569974 0.349034 -0.00493724)
(-0.127844 0.382142 -0.00648034)
(-0.189886 0.41398 -0.00854454)
(-0.250228 0.448156 -0.00876969)
(-0.309624 0.484679 -0.00684485)
(-0.366591 0.513596 -0.0037784)
(-0.420363 0.545217 0.00291787)
(-0.468888 0.574732 0.00794058)
(-0.508106 0.606602 0.0075018)
(-0.542202 0.639362 0.00983415)
(-0.552702 0.682674 0.0106019)
(-0.576504 0.714976 0.00847967)
(-0.509063 0.740029 0.0302627)
(-0.331449 0.693788 0.0475324)
(-0.276831 0.675127 0.056174)
(-0.28032 0.627153 0.0718653)
(-0.283411 0.58344 0.0757758)
(-0.290781 0.543193 0.0770107)
(-0.286404 0.499298 0.0742612)
(-0.279024 0.459161 0.069043)
(-0.263197 0.412241 0.0664995)
(-0.253499 0.374852 0.0469326)
(-0.244242 0.332638 0.0365392)
(-0.233923 0.301706 0.0230478)
(-0.221514 0.277234 0.0108012)
(-0.227882 0.262181 0.00028365)
(-0.236243 0.23894 -0.0135929)
(-0.174569 0.191587 -0.0129784)
(-0.0915047 0.160279 -0.0145169)
(-0.0398695 0.13351 -0.0114982)
(-0.00393976 0.101582 -0.00637531)
(0.00298963 0.0453898 0.0023517)
(0.008629 -0.0113031 0.000350132)
(0.039118 0.00613587 -0.00986071)
(0.0814984 0.0440632 -0.00919425)
(0.10505 0.098142 -0.00970535)
(0.103298 0.155289 -0.0114217)
(0.0973049 0.231677 -0.0145031)
(0.0453209 0.277961 -0.00415452)
(-0.017785 0.317383 0.00350241)
(-0.0616966 0.362245 -0.000996673)
(-0.117314 0.409134 -0.0020965)
(-0.166746 0.45745 -0.00247277)
(-0.216793 0.500507 -0.000787361)
(-0.263431 0.538624 0.00198669)
(-0.309551 0.573137 0.00789599)
(-0.350767 0.605348 0.0141306)
(-0.384517 0.632414 0.0201918)
(-0.412447 0.657375 0.0257181)
(-0.427395 0.675083 0.0295296)
(-0.428665 0.700291 0.024866)
(-0.44942 0.715922 0.01703)
(-0.439601 0.733735 0.0280545)
(-0.297136 0.635699 0.0499377)
(-0.227775 0.579647 0.0535534)
(-0.247856 0.524835 0.0677703)
(-0.260663 0.478923 0.069633)
(-0.283613 0.442512 0.0701101)
(-0.295309 0.405828 0.0663126)
(-0.303946 0.372102 0.0603691)
(-0.301633 0.335504 0.0484066)
(-0.303131 0.301448 0.0342275)
(-0.301049 0.269287 0.0216173)
(-0.292098 0.241648 0.0105042)
(-0.281561 0.223055 -9.68559e-06)
(-0.279609 0.207523 -0.00599134)
(-0.283411 0.215246 -0.0158903)
(-0.225527 0.193289 -0.0199152)
(-0.127046 0.165342 -0.0212501)
(-0.055912 0.14481 -0.0164758)
(-0.00958947 0.110051 -0.0100354)
(0.00293819 0.0496373 0.000720334)
(0.00868051 -0.00213268 -0.000822661)
(0.0467222 0.025416 -0.0128409)
(0.0997588 0.0746316 -0.0135081)
(0.124391 0.128909 -0.0101773)
(0.130541 0.187536 -0.0114573)
(0.106245 0.253819 -0.0102833)
(0.0450343 0.282358 0.00122911)
(0.00331946 0.339693 0.00583151)
(-0.0342052 0.386596 0.00232972)
(-0.0824598 0.44014 0.00363233)
(-0.12407 0.483395 0.00511488)
(-0.165854 0.520376 0.0107092)
(-0.201173 0.552666 0.0171697)
(-0.230936 0.580147 0.0235629)
(-0.260741 0.604136 0.0281989)
(-0.287541 0.620395 0.0325121)
(-0.310191 0.631213 0.0347023)
(-0.32631 0.635993 0.0348668)
(-0.331969 0.630422 0.0297636)
(-0.35108 0.6186 0.0160522)
(-0.389528 0.616287 0.0140042)
(-0.302795 0.550394 0.0322143)
(-0.220871 0.45498 0.0345494)
(-0.236979 0.420862 0.0454194)
(-0.258047 0.381041 0.0501849)
(-0.289046 0.357761 0.0521066)
(-0.311721 0.33033 0.0528723)
(-0.330678 0.304474 0.047123)
(-0.339378 0.275479 0.0389655)
(-0.347866 0.245032 0.0180569)
(-0.350167 0.213475 0.0111824)
(-0.341313 0.188963 0.0021151)
(-0.328156 0.174766 -0.00562898)
(-0.313298 0.1685 -0.00957872)
(-0.321522 0.188398 -0.0188502)
(-0.274914 0.195892 -0.0203914)
(-0.160787 0.171018 -0.0221666)
(-0.0740065 0.153771 -0.0176907)
(-0.0146221 0.117441 -0.010015)
(0.00422586 0.0529088 0.00133127)
(0.00658598 0.00829112 -0.00518678)
(0.0533018 0.0559523 -0.0188737)
(0.118296 0.111849 -0.0190335)
(0.148968 0.166111 -0.0129697)
(0.154996 0.226699 -0.014301)
(0.119524 0.269401 -0.00847864)
(0.0651725 0.314418 -0.000885742)
(0.0311034 0.369667 0.00614207)
(0.00268907 0.408425 0.0122779)
(-0.0319679 0.449369 0.0120524)
(-0.071509 0.487246 0.0163453)
(-0.10202 0.514066 0.0218019)
(-0.127387 0.536192 0.0285639)
(-0.152113 0.548208 0.0338084)
(-0.17671 0.552134 0.0356336)
(-0.200967 0.549674 0.0365262)
(-0.224555 0.541984 0.0354812)
(-0.250195 0.531317 0.0317986)
(-0.273324 0.517899 0.0255266)
(-0.298347 0.496479 0.010815)
(-0.349704 0.48138 0.000847696)
(-0.325501 0.460374 0.00881474)
(-0.245543 0.359448 0.0162743)
(-0.235013 0.340475 0.0220262)
(-0.263403 0.314329 0.0297271)
(-0.297036 0.29893 0.0347446)
(-0.329867 0.280698 0.0393598)
(-0.35598 0.256656 0.0373099)
(-0.374586 0.232133 0.0236578)
(-0.392022 0.19814 0.0103045)
(-0.395909 0.173481 0.00048441)
(-0.383844 0.150499 -0.00466205)
(-0.369068 0.136531 -0.0109493)
(-0.343458 0.138856 -0.0177037)
(-0.332901 0.150191 -0.0214895)
(-0.302634 0.189479 -0.0271696)
(-0.196824 0.172852 -0.0262874)
(-0.0897974 0.162656 -0.0242952)
(-0.0198591 0.127044 -0.0133198)
(0.00496268 0.0584581 -0.000717787)
(0.00821609 0.0244978 -0.00822145)
(0.0620859 0.0958008 -0.0264196)
(0.135895 0.156038 -0.0258684)
(0.173288 0.209256 -0.0162083)
(0.17144 0.257412 -0.0139349)
(0.138226 0.291035 -0.011332)
(0.100805 0.341836 -0.00213114)
(0.0691502 0.387864 0.0116327)
(0.0379531 0.424557 0.0173506)
(0.0142854 0.451367 0.0271265)
(-0.0123777 0.472292 0.0245801)
(-0.0422788 0.485816 0.0340714)
(-0.0650972 0.492831 0.03891)
(-0.0873089 0.484236 0.0434537)
(-0.111706 0.469048 0.0417414)
(-0.137877 0.447708 0.0385685)
(-0.16567 0.423577 0.0335325)
(-0.193981 0.400972 0.0274607)
(-0.225198 0.388813 0.0191285)
(-0.265212 0.37159 0.00513243)
(-0.320802 0.361448 -0.00588711)
(-0.343226 0.364901 -0.00672588)
(-0.277192 0.307974 0.00595937)
(-0.235406 0.287419 0.00711771)
(-0.265375 0.27179 0.017227)
(-0.299445 0.2608 0.0250708)
(-0.338639 0.241117 0.0331129)
(-0.371965 0.22177 0.0306458)
(-0.398529 0.190497 0.0236437)
(-0.414928 0.163169 0.00933518)
(-0.420102 0.134454 0.0112951)
(-0.417186 0.113366 0.0178117)
(-0.39782 0.0937065 0.0154686)
(-0.375399 0.0954614 0.00907518)
(-0.354522 0.109392 -0.0119093)
(-0.32461 0.156707 -0.0235682)
(-0.226612 0.171088 -0.0241847)
(-0.106456 0.162115 -0.0216071)
(-0.025453 0.13502 -0.0124178)
(0.00618533 0.0623153 0.000384072)
(0.00869793 0.0441923 -0.0110834)
(0.0691888 0.13646 -0.032637)
(0.152621 0.2013 -0.031389)
(0.190995 0.246471 -0.0171408)
(0.188256 0.281933 -0.0125508)
(0.166629 0.318263 -0.0117888)
(0.138824 0.360213 -0.001684)
(0.108735 0.396112 0.00626609)
(0.0837144 0.424692 0.0142915)
(0.0562071 0.444851 0.0291388)
(0.0284446 0.450079 0.0378092)
(0.0118469 0.450693 0.0470549)
(-0.0110152 0.437526 0.0472694)
(-0.0396756 0.416203 0.0496628)
(-0.0666113 0.388698 0.0449029)
(-0.097809 0.358716 0.037044)
(-0.130507 0.327845 0.0287723)
(-0.159934 0.304144 0.0211873)
(-0.197744 0.290911 0.0109688)
(-0.241697 0.27637 0.00334689)
(-0.290353 0.275252 -0.00525658)
(-0.327861 0.286987 -0.0100026)
(-0.281996 0.285725 -0.000229924)
(-0.234107 0.260908 -0.00127929)
(-0.25503 0.244158 0.00919946)
(-0.294259 0.229087 0.0185153)
(-0.337375 0.210531 0.0263462)
(-0.376389 0.18663 0.027244)
(-0.406576 0.158487 0.0172284)
(-0.429582 0.127777 0.0303537)
(-0.443554 0.0929549 0.031325)
(-0.445645 0.0642602 0.0194359)
(-0.433469 0.0509395 0.0139128)
(-0.400466 0.0469475 0.0076235)
(-0.362788 0.0629662 0.000562124)
(-0.331267 0.105987 -0.0205353)
(-0.249646 0.15041 -0.0282129)
(-0.124844 0.158175 -0.023297)
(-0.0282366 0.138598 -0.0150328)
(0.00495122 0.0661188 -0.0010674)
(0.00929062 0.0654165 -0.0115886)
(0.0753167 0.180016 -0.0363994)
(0.16269 0.245929 -0.0344607)
(0.203352 0.280207 -0.0177394)
(0.20946 0.310345 -0.0100564)
(0.196244 0.341744 -0.00588214)
(0.174332 0.373018 -0.00468752)
(0.147714 0.396916 0.00938808)
(0.121556 0.415773 0.0133008)
(0.0979843 0.423975 0.0260314)
(0.0756472 0.425969 0.0359325)
(0.0483951 0.414607 0.0523733)
(0.0226869 0.387991 0.054974)
(-0.000801876 0.354608 0.0549578)
(-0.0317293 0.322572 0.0448501)
(-0.0678502 0.29192 0.0326695)
(-0.104149 0.263719 0.0219224)
(-0.133655 0.245475 0.0132504)
(-0.174559 0.233343 0.00283246)
(-0.219227 0.227482 -0.00131001)
(-0.259702 0.228702 -0.00576248)
(-0.287014 0.246904 -0.00712737)
(-0.258256 0.2738 -0.00154108)
(-0.227214 0.251776 -0.0026106)
(-0.243402 0.221496 0.00436149)
(-0.276261 0.199604 0.0132855)
(-0.32158 0.176262 0.0192791)
(-0.363096 0.151759 0.017058)
(-0.398476 0.122857 0.0356073)
(-0.430668 0.0872208 0.0439448)
(-0.451817 0.0533964 0.0411984)
(-0.453341 0.0274406 0.0520909)
(-0.44594 0.0034737 0.0409185)
(-0.431407 -0.000593196 0.0334818)
(-0.395464 0.00978327 0.0249935)
(-0.349034 0.055271 0.00330821)
(-0.261245 0.109332 -0.0245459)
(-0.13837 0.14707 -0.0246897)
(-0.0341506 0.136716 -0.0140771)
(0.00616446 0.0697244 -0.00108748)
(0.00932283 0.0816066 -0.0117608)
(0.076611 0.2156 -0.0397578)
(0.165551 0.282986 -0.0382217)
(0.213562 0.312067 -0.0196306)
(0.230263 0.334601 -0.00654798)
(0.224396 0.356682 0.000460158)
(0.204514 0.378731 0.00482397)
(0.179891 0.391753 0.00631869)
(0.159153 0.401363 0.0159376)
(0.136326 0.402861 0.0263939)
(0.110304 0.393718 0.0351505)
(0.0841978 0.375368 0.0422053)
(0.0525304 0.347287 0.0539804)
(0.0225499 0.311934 0.0543348)
(-0.00517809 0.271735 0.0440165)
(-0.0431039 0.24577 0.0266069)
(-0.0807782 0.219716 0.0154134)
(-0.111077 0.208026 0.00600345)
(-0.150322 0.195691 -0.00253525)
(-0.189726 0.194708 -0.00461684)
(-0.216438 0.202108 -0.00420154)
(-0.225645 0.229663 -0.0015256)
(-0.214474 0.254598 -7.99458e-05)
(-0.215262 0.233779 -0.00150317)
(-0.229018 0.197251 0.00137259)
(-0.255367 0.164439 0.00816608)
(-0.295363 0.135712 0.0128997)
(-0.336969 0.111392 0.0250047)
(-0.379488 0.0785187 0.0386542)
(-0.416382 0.047085 0.0445627)
(-0.438112 0.013875 0.0650242)
(-0.463236 -0.0244895 0.0470897)
(-0.471229 -0.0666821 0.0359442)
(-0.452773 -0.0881563 0.0163583)
(-0.413271 -0.0755476 0.00368694)
(-0.368317 -0.026163 0.01093)
(-0.282683 0.0585124 -0.00293141)
(-0.151823 0.114836 -0.0311216)
(-0.0391216 0.128691 -0.0144154)
(0.00679534 0.0696001 -0.00275842)
(0.00812733 0.0926544 -0.0106034)
(0.0757603 0.244401 -0.0418742)
(0.167067 0.316318 -0.0428127)
(0.220987 0.342042 -0.0229107)
(0.247403 0.355639 -0.00437135)
(0.248917 0.364204 0.00663516)
(0.23171 0.37538 0.0120212)
(0.20897 0.383299 0.0159736)
(0.189967 0.388325 0.0182695)
(0.167686 0.382308 0.0225104)
(0.144957 0.367239 0.0266818)
(0.114068 0.342458 0.0378821)
(0.0800013 0.31014 0.0395538)
(0.0436958 0.275938 0.0454839)
(0.0138293 0.240421 0.0390381)
(-0.020556 0.208927 0.0188069)
(-0.0578913 0.192743 0.00960886)
(-0.0864009 0.182934 7.90846e-05)
(-0.12344 0.170764 -0.0055966)
(-0.149204 0.17478 -0.00465718)
(-0.157334 0.190952 0.000172141)
(-0.160811 0.211834 0.00414614)
(-0.172601 0.217509 0.00482974)
(-0.193907 0.199836 0.00319664)
(-0.213816 0.16997 0.00215031)
(-0.230459 0.12688 0.00506087)
(-0.259941 0.0992668 0.00812686)
(-0.299717 0.0683839 0.0258224)
(-0.341427 0.0393222 0.0352859)
(-0.378748 0.00880195 0.0570719)
(-0.425566 -0.0341459 0.043555)
(-0.46713 -0.0885678 0.0374866)
(-0.485035 -0.132692 0.0247865)
(-0.473853 -0.165426 0.0143158)
(-0.433255 -0.169033 -0.00358112)
(-0.370701 -0.126727 -0.00687368)
(-0.289017 -0.0239051 0.000457826)
(-0.171311 0.0754038 -0.0167769)
(-0.0434389 0.116509 -0.0192327)
(0.00697809 0.0715746 -0.00180499)
(0.00607586 0.0959328 -0.0105818)
(0.0720806 0.263361 -0.0426522)
(0.164585 0.340004 -0.0448044)
(0.225011 0.363949 -0.0244609)
(0.257528 0.370004 -0.00402529)
(0.264603 0.367445 0.0107683)
(0.256255 0.370025 0.0187845)
(0.239184 0.372258 0.0213871)
(0.220541 0.369879 0.0237343)
(0.196264 0.358121 0.025032)
(0.169203 0.339696 0.0261312)
(0.138427 0.31177 0.0232964)
(0.101994 0.281362 0.0235865)
(0.0656919 0.246389 0.0233164)
(0.0303576 0.220477 0.026385)
(-0.000823276 0.187613 0.0124774)
(-0.0280308 0.173636 0.00295175)
(-0.0616666 0.161069 -0.00569423)
(-0.0881814 0.159697 -0.00544437)
(-0.0953367 0.172149 -0.0016893)
(-0.0988658 0.183836 0.00410861)
(-0.112131 0.184546 0.00940808)
(-0.132186 0.175747 0.0121835)
(-0.161133 0.161289 0.00863412)
(-0.19144 0.140972 0.00508862)
(-0.206493 0.105067 0.00434758)
(-0.224832 0.066604 0.0136432)
(-0.259282 0.03539 0.0237482)
(-0.294364 0.00441809 0.0425416)
(-0.345261 -0.03624 0.0375985)
(-0.399817 -0.0910001 0.0365529)
(-0.446356 -0.144377 0.0275775)
(-0.476189 -0.19873 0.017613)
(-0.480236 -0.240348 0.00341373)
(-0.447026 -0.260068 -0.0108055)
(-0.381788 -0.227975 -0.019023)
(-0.290055 -0.139106 -0.0192415)
(-0.175566 0.00898274 0.000313226)
(-0.053022 0.0894245 -0.0272147)
(0.00663966 0.069509 -0.00352918)
(0.00499356 0.0864458 -0.00642937)
(0.0685855 0.267571 -0.0397628)
(0.161125 0.349603 -0.0421578)
(0.226487 0.371583 -0.0225532)
(0.26559 0.370496 0.000309591)
(0.281728 0.362591 0.0137751)
(0.279819 0.361038 0.0187184)
(0.262428 0.356253 0.0209701)
(0.242898 0.350941 0.0218742)
(0.22054 0.33781 0.0215106)
(0.196494 0.317386 0.0195304)
(0.163958 0.289391 0.0154923)
(0.125807 0.25476 0.0117187)
(0.0892788 0.221673 0.00541512)
(0.0521112 0.19592 0.0100232)
(0.0187669 0.177333 0.00159676)
(-0.00641458 0.170012 -0.00329238)
(-0.0250994 0.16532 -0.00475529)
(-0.0352298 0.175922 -0.00235893)
(-0.0429041 0.17811 0.00182236)
(-0.0570696 0.173211 0.00772471)
(-0.0761951 0.158038 0.0129715)
(-0.0977638 0.143207 0.0147861)
(-0.125285 0.125236 0.0135137)
(-0.159239 0.111892 0.00881948)
(-0.185235 0.0859581 0.00968961)
(-0.199608 0.0421641 0.0132683)
(-0.220379 0.00740048 0.0251077)
(-0.25961 -0.0302961 0.0251404)
(-0.311457 -0.0786193 0.0289993)
(-0.365776 -0.127006 0.0270021)
(-0.417243 -0.184272 0.0236893)
(-0.454391 -0.243678 0.0152985)
(-0.469928 -0.298641 0.00269233)
(-0.447589 -0.331248 -0.0131838)
(-0.389258 -0.320544 -0.0278384)
(-0.286985 -0.239249 -0.0321552)
(-0.174957 -0.0864249 -0.0208087)
(-0.0557878 0.0491906 -0.0188586)
(0.00855042 0.0613401 -0.00910756)
(0.00157514 0.0974146 -0.00966831)
(0.0607667 0.283109 -0.0406968)
(0.152761 0.369814 -0.0451752)
(0.224041 0.391023 -0.024511)
(0.272843 0.386592 0.000280163)
(0.300134 0.372141 0.0117849)
(0.304865 0.359147 0.0166901)
(0.291662 0.346009 0.0171244)
(0.273581 0.332143 0.0143672)
(0.246386 0.310304 0.0106759)
(0.217117 0.286995 0.00790706)
(0.180996 0.262836 0.0038903)
(0.141321 0.240834 0.00155438)
(0.108619 0.220739 -0.000635758)
(0.0787555 0.21042 0.00229437)
(0.0575777 0.206589 -0.0051326)
(0.0390387 0.20212 -0.0059065)
(0.022885 0.199732 -0.00436936)
(0.005893 0.193282 -0.00239477)
(-0.0127962 0.177903 0.0034815)
(-0.0299308 0.155824 0.00800551)
(-0.0502758 0.134978 0.0128445)
(-0.0704201 0.115261 0.0140729)
(-0.0941297 0.096013 0.015258)
(-0.12749 0.0809343 0.0116045)
(-0.165088 0.0655031 0.00312894)
(-0.181916 0.0342771 0.00476996)
(-0.196965 -0.00782471 0.00582232)
(-0.230883 -0.0528409 0.0121895)
(-0.274353 -0.101522 0.0160169)
(-0.32407 -0.15633 0.0175599)
(-0.375464 -0.219117 0.0153561)
(-0.416566 -0.288099 0.0095166)
(-0.441 -0.357561 -0.00151073)
(-0.432315 -0.408655 -0.0174005)
(-0.383582 -0.419083 -0.0340918)
(-0.292843 -0.352977 -0.0521821)
(-0.180165 -0.196111 -0.0372425)
(-0.056521 0.000855914 -0.00953745)
(0.00656093 0.0603525 -0.0104161)
(-0.00707861 0.0826374 -0.0146122)
(0.0437758 0.280216 -0.0391067)
(0.137779 0.376015 -0.0460345)
(0.216406 0.397779 -0.0273535)
(0.27401 0.391764 -0.00933542)
(0.307108 0.369207 0.002731)
(0.317319 0.348515 0.00852762)
(0.303742 0.333557 0.00970627)
(0.282424 0.335152 0.0095404)
(0.260509 0.338059 0.00744531)
(0.243599 0.33799 0.00534579)
(0.218451 0.326425 0.00149381)
(0.184943 0.31146 -3.46116e-05)
(0.155304 0.290438 -0.00183975)
(0.12733 0.270119 0.00176127)
(0.0939839 0.253206 -0.00684009)
(0.0670383 0.233755 -0.0100521)
(0.0465999 0.209214 -0.00790561)
(0.0256809 0.185781 -0.00493934)
(0.00448436 0.163032 6.8293e-05)
(-0.0139133 0.137002 0.00668575)
(-0.0296625 0.11303 0.010924)
(-0.0488135 0.0918318 0.0117648)
(-0.0697604 0.0714745 0.0141333)
(-0.0964968 0.0540445 0.00773523)
(-0.132058 0.0390792 0.000645803)
(-0.163283 0.022684 0.00129235)
(-0.184568 -0.0126545 -0.00126718)
(-0.213457 -0.0574564 -0.0034087)
(-0.254979 -0.104147 0.00157002)
(-0.30058 -0.153835 0.00640498)
(-0.349141 -0.216881 0.00912046)
(-0.389614 -0.290016 0.00766788)
(-0.414412 -0.369418 -0.000504673)
(-0.409278 -0.437991 -0.0138022)
(-0.366716 -0.47101 -0.0329415)
(-0.273686 -0.438834 -0.0561884)
(-0.15966 -0.303493 -0.05974)
(-0.0411547 -0.0921234 -0.0238272)
(0.0107138 0.0298429 -0.00856792)
(-0.00941344 0.19678 -0.0130526)
(0.0366424 0.414578 -0.0291225)
(0.123408 0.515399 -0.0386694)
(0.202372 0.54126 -0.0196856)
(0.266884 0.530508 -0.00859231)
(0.309829 0.502276 0.00702202)
(0.335835 0.467973 0.0120285)
(0.351381 0.453928 0.0126372)
(0.355558 0.458981 0.00626275)
(0.331856 0.458113 -0.000294649)
(0.294754 0.44492 -0.00632037)
(0.249693 0.41507 -0.00958567)
(0.202672 0.377491 -0.0110492)
(0.161539 0.336376 -0.00892717)
(0.12975 0.294758 -0.00612679)
(0.104942 0.255697 -0.00170074)
(0.0765616 0.225965 -0.00729785)
(0.0557027 0.196967 -0.00725167)
(0.0413851 0.167676 -0.00531965)
(0.0201946 0.141564 -0.00249094)
(0.00134371 0.12027 0.00329185)
(-0.014634 0.094679 0.00877902)
(-0.0312909 0.0729795 0.0096984)
(-0.0504172 0.0521959 0.0136548)
(-0.075775 0.0307686 0.00540818)
(-0.106897 0.0142592 0.00632982)
(-0.13543 0.0010298 0.00563602)
(-0.166399 -0.0153183 0.00342008)
(-0.194143 -0.0471329 0.00147403)
(-0.220546 -0.0911884 -0.00470131)
(-0.259264 -0.152326 -0.0110904)
(-0.307467 -0.227952 -0.0142286)
(-0.350874 -0.312147 -0.0165799)
(-0.383327 -0.401956 -0.0216895)
(-0.38852 -0.483244 -0.0357905)
(-0.366447 -0.545415 -0.0651464)
(-0.29884 -0.53369 -0.0850793)
(-0.197124 -0.407952 -0.0822665)
(-0.0620864 -0.151283 -0.0469988)
(0.0116326 0.0372547 -0.0079125)
(-0.0171213 0.2678 -0.0187017)
(0.0190433 0.509674 -0.0436433)
(0.107309 0.621458 -0.0528912)
(0.190895 0.665419 -0.0417569)
(0.259813 0.660636 -0.0311096)
(0.304845 0.635998 -0.0178683)
(0.341518 0.59607 -0.00828781)
(0.369231 0.566246 -0.00555655)
(0.365015 0.537681 -0.00840144)
(0.330034 0.501479 -0.00932351)
(0.288965 0.460526 -0.0090761)
(0.243221 0.415415 -0.00923744)
(0.199889 0.367632 -0.00786204)
(0.164537 0.322842 -0.0069464)
(0.134607 0.27958 -0.00489669)
(0.108703 0.241268 -0.00275804)
(0.0896837 0.206045 0.00169852)
(0.0686551 0.179226 -0.00328018)
(0.0493456 0.151399 -0.00487509)
(0.0350616 0.12509 -0.00226167)
(0.015644 0.100804 -0.00022537)
(-0.00184997 0.0802808 0.00630288)
(-0.0167484 0.0537331 0.00776232)
(-0.0370326 0.034787 0.0101419)
(-0.057183 0.0144711 0.00777845)
(-0.0801347 -0.000910976 0.00998615)
(-0.103757 -0.0133833 0.0107202)
(-0.132224 -0.0260296 0.0070825)
(-0.172402 -0.0411902 0.00452737)
(-0.220499 -0.0741439 0.00417774)
(-0.269523 -0.124168 0.00620161)
(-0.305606 -0.195045 0.00400802)
(-0.327214 -0.287626 -0.00398463)
(-0.338771 -0.419737 -0.0182269)
(-0.345813 -0.550242 -0.0309914)
(-0.329408 -0.663893 -0.0530414)
(-0.2615 -0.704027 -0.080026)
(-0.156553 -0.60375 -0.0876962)
(-0.0424508 -0.323666 -0.0725351)
(0.0114524 -0.0263442 -0.00608761)
(-2.60983e-05 0.23596 0.00114546)
(0.036474 0.474764 -0.0342613)
(0.107401 0.598188 -0.0448037)
(0.187604 0.651417 -0.0401438)
(0.254597 0.652736 -0.0282939)
(0.303091 0.630305 -0.0193843)
(0.34201 0.593719 -0.0108062)
(0.370973 0.555185 -0.00494228)
(0.369488 0.515195 -0.00541105)
(0.335099 0.478761 -0.00481814)
(0.291926 0.440542 -0.00434935)
(0.243738 0.399102 -0.00354952)
(0.19927 0.353979 -0.00328918)
(0.162575 0.310529 -0.00194524)
(0.135299 0.266467 -0.00248852)
(0.115724 0.227628 -0.000497117)
(0.0959575 0.190075 -0.000400253)
(0.0804417 0.158665 0.00189521)
(0.0645921 0.133596 0.00219403)
(0.0445153 0.108828 -0.00238609)
(0.0292729 0.0869794 0.000530837)
(0.00939906 0.06533 0.00295575)
(-0.00652267 0.0447202 0.00955715)
(-0.0190937 0.0232935 0.0092451)
(-0.038843 0.00560042 0.00779997)
(-0.0585326 -0.0100886 0.0107619)
(-0.0778494 -0.0243078 0.0116672)
(-0.101672 -0.0401164 0.0116738)
(-0.135062 -0.0537448 0.00899051)
(-0.175005 -0.0687067 0.00750441)
(-0.222678 -0.0876777 0.00589076)
(-0.279824 -0.125969 0.00492391)
(-0.347074 -0.189294 0.00510285)
(-0.384909 -0.297266 0.00524077)
(-0.376915 -0.421673 -0.00184114)
(-0.3533 -0.56034 -0.0144037)
(-0.284138 -0.652334 -0.0290559)
(-0.172521 -0.638425 -0.0551957)
(-0.0282565 -0.395508 -0.0535559)
(0.0335589 -0.0333045 -0.0151897)
(0.000395201 0.248769 0.00190506)
(0.0371186 0.463605 -0.0267592)
(0.104392 0.586428 -0.0368442)
(0.179153 0.642516 -0.0346091)
(0.244935 0.648146 -0.019875)
(0.294047 0.625716 -0.0139749)
(0.335705 0.587605 -0.00434878)
(0.364807 0.546773 -9.72011e-05)
(0.364121 0.499646 -2.9659e-06)
(0.332872 0.459766 0.000456036)
(0.28936 0.418629 0.000635322)
(0.240338 0.376078 0.000690363)
(0.197815 0.333475 0.00056217)
(0.164439 0.293309 8.23083e-05)
(0.138219 0.25333 -8.94796e-05)
(0.116975 0.214568 0.00111316)
(0.102858 0.17519 0.00315576)
(0.0913986 0.142774 0.00505101)
(0.0756637 0.11466 0.00532297)
(0.0616552 0.092561 0.00818115)
(0.0428018 0.0727085 0.00332426)
(0.0246974 0.0537926 0.00338032)
(0.00915057 0.0354258 0.00780035)
(-0.00796309 0.0183124 0.00786458)
(-0.0208121 -0.00398908 0.00836425)
(-0.0371214 -0.0179728 0.00925172)
(-0.0555057 -0.0361634 0.0106548)
(-0.0750527 -0.0536 0.0116543)
(-0.101433 -0.072012 0.0124951)
(-0.135263 -0.0907502 0.0120121)
(-0.17879 -0.111985 0.0123719)
(-0.220481 -0.144998 0.0128527)
(-0.270179 -0.183274 0.0132163)
(-0.307566 -0.240053 0.0116788)
(-0.334741 -0.325506 0.00630298)
(-0.350367 -0.458515 -0.000554393)
(-0.322328 -0.561241 -0.0145228)
(-0.224934 -0.592536 -0.0381176)
(-0.0567574 -0.383247 -0.0515177)
(0.0274034 0.00342753 -0.0202325)
(0.00661403 0.222897 0.000749519)
(0.0436238 0.418106 -0.0227561)
(0.103317 0.547259 -0.0314315)
(0.175649 0.607319 -0.0303886)
(0.239674 0.621723 -0.0178823)
(0.288923 0.602185 -0.0106043)
(0.332834 0.566139 -0.00151445)
(0.35938 0.523059 0.00254223)
(0.359202 0.473065 0.00325874)
(0.331352 0.430592 0.00359498)
(0.286857 0.38845 0.0041659)
(0.239903 0.348664 0.00456339)
(0.200697 0.310872 0.00389793)
(0.168288 0.27402 0.00345887)
(0.142605 0.23604 0.00292193)
(0.122533 0.199677 0.004049)
(0.107045 0.164216 0.00580714)
(0.0998732 0.13055 0.00788684)
(0.0908667 0.101225 0.00804176)
(0.0755316 0.0763867 0.00705966)
(0.0605569 0.0608877 0.00734235)
(0.0402623 0.0433047 0.00691184)
(0.02519 0.0270363 0.0043569)
(0.00881047 0.0109089 0.00518804)
(-0.00659091 -0.00582516 0.00824968)