/*--------------------------------*- C++ -*----------------------------------*\
| =========                 |                                                 |
| \\      /  F ield         | OpenFOAM: The Open Source CFD Toolbox           |
|  \\    /   O peration     | Version:  v1806                                 |
|   \\  /    A nd           | Web:      www.OpenFOAM.com                      |
|    \\/     M anipulation  |                                                 |
\*---------------------------------------------------------------------------*/
FoamFile
{
    version     2.0;
    format      ascii;
    class       volScalarField;
    location    "0.097";
    object      p;
}
// * * * * * * * * * * * * * * * * * * * * * * * * * * * * * * * * * * * * * //

dimensions      [0 2 -2 0 0 0 0];


internalField   nonuniform List<scalar> 
64000
(
-0.000143213
-0.121805
-0.29786
-0.414275
-0.499316
-0.571114
-0.637501
-0.701434
-0.768884
-0.8413
-0.924861
-0.990959
-1.11992
-1.25221
-1.34126
-1.48603
-1.53442
-1.72019
-1.69627
-2.01997
-1.84915
-2.2799
-2.25211
-2.39458
-2.33636
-2.35807
-2.28432
-2.27997
-2.2514
-2.27174
-2.3004
-2.37444
-2.46028
-2.53039
-2.60118
-2.637
-2.68453
-2.70349
-2.72764
-2.73183
-0.115338
-0.235568
-0.34705
-0.433642
-0.509434
-0.571182
-0.630678
-0.686747
-0.75055
-0.806183
-0.898598
-0.988245
-1.07734
-1.19239
-1.27352
-1.39296
-1.50714
-1.67375
-1.65349
-1.91689
-1.80579
-2.1942
-2.22508
-2.34158
-2.28179
-2.30714
-2.25
-2.25743
-2.24155
-2.2728
-2.30929
-2.35053
-2.44558
-2.50539
-2.58183
-2.62126
-2.67143
-2.69604
-2.72727
-2.73556
-0.270215
-0.322051
-0.389902
-0.458373
-0.522677
-0.575317
-0.63065
-0.68391
-0.723844
-0.813669
-0.892713
-1.00139
-1.09061
-1.26669
-1.36443
-1.52193
-1.5768
-1.76019
-1.75808
-2.06277
-2.01834
-2.4546
-2.56012
-2.72283
-2.70482
-2.76045
-2.72306
-2.73267
-2.6902
-2.673
-2.65504
-2.649
-2.66206
-2.66274
-2.6962
-2.70811
-2.74026
-2.7555
-2.77905
-2.78786
-0.350892
-0.373977
-0.41416
-0.471693
-0.516555
-0.561809
-0.614083
-0.655142
-0.737602
-0.823955
-0.922818
-1.05504
-1.19295
-1.34414
-1.4568
-1.62079
-1.72727
-1.93272
-1.98203
-2.3121
-2.30403
-2.7759
-2.93822
-3.12406
-3.13335
-3.19616
-3.16119
-3.15354
-3.08939
-3.03436
-2.96698
-2.89398
-2.85052
-2.81311
-2.81197
-2.80462
-2.83567
-2.8322
-2.84852
-2.8574
-0.391363
-0.391712
-0.438168
-0.471872
-0.530158
-0.569647
-0.639013
-0.691193
-0.786677
-0.898534
-1.02658
-1.18636
-1.32154
-1.5016
-1.65908
-1.86162
-1.98894
-2.21397
-2.27309
-2.62243
-2.64297
-3.13443
-3.31094
-3.50985
-3.53117
-3.59542
-3.55653
-3.53797
-3.46412
-3.39184
-3.29368
-3.1936
-3.08853
-3.01538
-2.97276
-2.93702
-2.93042
-2.92818
-2.93683
-2.94259
-0.409338
-0.413394
-0.439649
-0.490488
-0.535777
-0.591848
-0.674016
-0.759582
-0.888506
-1.02497
-1.16988
-1.32761
-1.49693
-1.68901
-1.8556
-2.0702
-2.20766
-2.42047
-2.55263
-2.8531
-2.90002
-3.40422
-3.58919
-3.76865
-3.79513
-3.85518
-3.81661
-3.80358
-3.72015
-3.65446
-3.54256
-3.43234
-3.31257
-3.2274
-3.15975
-3.05782
-3.04169
-3.0255
-3.03222
-3.03945
-0.433005
-0.417343
-0.461306
-0.508971
-0.594384
-0.662578
-0.787611
-0.872516
-1.00082
-1.14438
-1.30628
-1.5038
-1.69103
-1.91149
-2.09227
-2.30329
-2.45603
-2.68312
-2.77386
-3.08832
-3.15399
-3.60043
-3.80406
-3.96737
-4.00276
-4.062
-4.03427
-4.02352
-3.95493
-3.88879
-3.77134
-3.65533
-3.50015
-3.38702
-3.29777
-3.17937
-3.13361
-3.11984
-3.12353
-3.13277
-0.444305
-0.432937
-0.479537
-0.5471
-0.635848
-0.734496
-0.862991
-0.930311
-1.11419
-1.2835
-1.4735
-1.68673
-1.89446
-2.10109
-2.29591
-2.50995
-2.67287
-2.88963
-3.01928
-3.26782
-3.40514
-3.68821
-3.97638
-4.13903
-4.18963
-4.24882
-4.22915
-4.22797
-4.16513
-4.10801
-4.00249
-3.87498
-3.72599
-3.57321
-3.4878
-3.32637
-3.26081
-3.23454
-3.2349
-3.24759
-0.462116
-0.440601
-0.507567
-0.585817
-0.705088
-0.83498
-0.945168
-1.10691
-1.23901
-1.46588
-1.65071
-1.87744
-2.06904
-2.29546
-2.48826
-2.6982
-2.87254
-3.08558
-3.24807
-3.44317
-3.61809
-3.77958
-4.12777
-4.31429
-4.3773
-4.43986
-4.42893
-4.42425
-4.38003
-4.32469
-4.20991
-4.07526
-3.91382
-3.74096
-3.62189
-3.48505
-3.36922
-3.34247
-3.33294
-3.35014
-0.50509
-0.495217
-0.563841
-0.667049
-0.802192
-0.926183
-1.07842
-1.25034
-1.42898
-1.62454
-1.78572
-2.03881
-2.23585
-2.44747
-2.64519
-2.84697
-3.01882
-3.21401
-3.3808
-3.58634
-3.76906
-3.90777
-4.24703
-4.50172
-4.57982
-4.64424
-4.64296
-4.64355
-4.6026
-4.53306
-4.43625
-4.30292
-4.13547
-3.95497
-3.80546
-3.66676
-3.52921
-3.48563
-3.47054
-3.49063
-0.54506
-0.531183
-0.617692
-0.730223
-0.885101
-1.01268
-1.18888
-1.38284
-1.57174
-1.78663
-1.97344
-2.19702
-2.33746
-2.59846
-2.78418
-2.99154
-3.16552
-3.34799
-3.49581
-3.69874
-3.86473
-4.02643
-4.38762
-4.70785
-4.78516
-4.86827
-4.85627
-4.87264
-4.81747
-4.76564
-4.6487
-4.51567
-4.34116
-4.13557
-3.95506
-3.81926
-3.67382
-3.60125
-3.58565
-3.60366
-0.637833
-0.627808
-0.715044
-0.845813
-0.988087
-1.14739
-1.3251
-1.53134
-1.73206
-1.94086
-2.1344
-2.35784
-2.55081
-2.69863
-2.94223
-3.12805
-3.31644
-3.50406
-3.63677
-3.86827
-4.01774
-4.18911
-4.59251
-4.93352
-5.02305
-5.09666
-5.11088
-5.11166
-5.07586
-4.99872
-4.89335
-4.7403
-4.52518
-4.33429
-4.12765
-4.01069
-3.85395
-3.78638
-3.7521
-3.77573
-0.706135
-0.692767
-0.790412
-0.917037
-1.08303
-1.24705
-1.45281
-1.64861
-1.85146
-2.06205
-2.26487
-2.4817
-2.67136
-2.89792
-3.03072
-3.27622
-3.47339
-3.66432
-3.78841
-4.04639
-4.19064
-4.36637
-4.85605
-5.17151
-5.25613
-5.33568
-5.34522
-5.35095
-5.30033
-5.24169
-5.09505
-4.9239
-4.78741
-4.59288
-4.36788
-4.16001
-4.01367
-3.91441
-3.87531
-3.8954
-0.831763
-0.819457
-0.911872
-1.04652
-1.2134
-1.38856
-1.59266
-1.79663
-1.99632
-2.20663
-2.40807
-2.6329
-2.84122
-3.04337
-3.26776
-3.38955
-3.65137
-3.83727
-3.97447
-4.23339
-4.36459
-4.57319
-5.09197
-5.36326
-5.48103
-5.57722
-5.59939
-5.60339
-5.57428
-5.44762
-5.32772
-5.21788
-5.05357
-4.85565
-4.63141
-4.42745
-4.21783
-4.13382
-4.07333
-4.09921
-0.919949
-0.907545
-1.00815
-1.14619
-1.32717
-1.49922
-1.70774
-1.89328
-2.09385
-2.30207
-2.51154
-2.72971
-2.95471
-3.18342
-3.41098
-3.57982
-3.85812
-4.04524
-4.19788
-4.43223
-4.59122
-4.87469
-5.28005
-5.51622
-5.72129
-5.82262
-5.85145
-5.86056
-5.76272
-5.66913
-5.57431
-5.44965
-5.27983
-5.07811
-4.85233
-4.6208
-4.4287
-4.24318
-4.2032
-4.22098
-1.04836
-1.03546
-1.12939
-1.26812
-1.44623
-1.61902
-1.8154
-2.00299
-2.20839
-2.42385
-2.65332
-2.89378
-3.149
-3.39892
-3.62275
-3.87853
-4.04797
-4.28575
-4.4763
-4.6794
-4.8901
-5.19643
-5.45487
-5.69547
-5.89702
-6.05031
-6.10135
-6.08807
-6.00409
-5.95682
-5.87284
-5.73722
-5.5731
-5.3765
-5.14849
-4.91656
-4.6868
-4.56659
-4.42129
-4.44485
-1.11689
-1.12666
-1.23117
-1.37969
-1.56438
-1.75438
-1.94156
-2.11893
-2.3117
-2.5276
-2.76357
-3.01928
-3.30979
-3.58815
-3.84025
-4.08969
-4.33655
-4.55053
-4.78696
-5.0363
-5.26339
-5.47773
-5.67446
-5.8645
-6.04844
-6.25759
-6.31739
-6.26225
-6.24914
-6.16076
-6.04435
-5.896
-5.72991
-5.53664
-5.31657
-5.08065
-4.85591
-4.70481
-4.56257
-4.59725
-1.21147
-1.20434
-1.28996
-1.41846
-1.58831
-1.75816
-1.95364
-2.14156
-2.37143
-2.61777
-2.90452
-3.19266
-3.51385
-3.81058
-4.09597
-4.38593
-4.64422
-5.0136
-5.25698
-5.54209
-5.66163
-5.82418
-5.95792
-6.08463
-6.2494
-6.41661
-6.56036
-6.56956
-6.54723
-6.46353
-6.34019
-6.17243
-6.00765
-5.8207
-5.61529
-5.36986
-5.13098
-4.92977
-4.77503
-4.75257
-1.23024
-1.23832
-1.33787
-1.47261
-1.67771
-1.86397
-2.06073
-2.22457
-2.39975
-2.66495
-3.01334
-3.41795
-3.8056
-4.1554
-4.47937
-4.7707
-5.14633
-5.52614
-5.79396
-6.01065
-6.14863
-6.22857
-6.31955
-6.39153
-6.47288
-6.56589
-6.66551
-6.66579
-6.55456
-6.45493
-6.35037
-6.1864
-6.0476
-5.89128
-5.71591
-5.41626
-5.26405
-5.13512
-5.03829
-5.02119
-1.35532
-1.30054
-1.35055
-1.42382
-1.56398
-1.68876
-1.83512
-2.00721
-2.37879
-2.7871
-3.25965
-3.75161
-4.21177
-4.57881
-4.90464
-5.27044
-5.61416
-5.98516
-6.32583
-6.4789
-6.61358
-6.65475
-6.71404
-6.73647
-6.78748
-6.88279
-6.94711
-6.98122
-6.99239
-6.83488
-6.60385
-6.37099
-6.17413
-5.97487
-5.76903
-5.6164
-5.3472
-5.13589
-4.90808
-4.90807
-1.48393
-1.49626
-1.54339
-1.65033
-1.80843
-1.96585
-2.11086
-2.22753
-2.53843
-2.91311
-3.38426
-3.91194
-4.40838
-4.82722
-5.23897
-5.62402
-6.01604
-6.44094
-6.74378
-6.97481
-7.0749
-7.05132
-7.08721
-7.06533
-7.10429
-7.06099
-6.99365
-6.92406
-6.77165
-6.47876
-6.31009
-6.19702
-6.20481
-6.22814
-6.16614
-5.96895
-5.81276
-5.59844
-5.46765
-5.35134
-1.57093
-1.57162
-1.60608
-1.68438
-1.81509
-1.9582
-2.1172
-2.23558
-2.57632
-3.00597
-3.54196
-4.14338
-4.67244
-5.13163
-5.58862
-6.01842
-6.43061
-6.80998
-7.16823
-7.37596
-7.46227
-7.4115
-7.40973
-7.3571
-7.26848
-7.14323
-7.08306
-6.95882
-6.85189
-6.58892
-6.35031
-6.03753
-5.75022
-5.41191
-5.19188
-5.07392
-4.98433
-4.91901
-4.86729
-4.87242
-1.70196
-1.71266
-1.74376
-1.82193
-1.96299
-2.09556
-2.24389
-2.35986
-2.66884
-3.10548
-3.67575
-4.30087
-4.82899
-5.31995
-5.81844
-6.2825
-6.73955
-7.11336
-7.46976
-7.70123
-7.78662
-7.69288
-7.68689
-7.52347
-7.41028
-7.22612
-7.1168
-6.93706
-6.80389
-6.58335
-6.37713
-6.11959
-5.94908
-5.66359
-5.39313
-5.10567
-4.8997
-4.66932
-4.58603
-4.64666
-1.80505
-1.80239
-1.84834
-1.90495
-2.03463
-2.17054
-2.31263
-2.45143
-2.71686
-3.1862
-3.79034
-4.38694
-4.92557
-5.43377
-5.95998
-6.45249
-6.92725
-7.30707
-7.60679
-7.89202
-7.95719
-7.84078
-7.71322
-7.58808
-7.44224
-7.23324
-7.0863
-6.88041
-6.72795
-6.48448
-6.29684
-6.00091
-5.77341
-5.4569
-5.25167
-5.00766
-4.82726
-4.60376
-4.45621
-4.54053
-1.93826
-1.92881
-1.97421
-2.01853
-2.13415
-2.25936
-2.4028
-2.52487
-2.78722
-3.22398
-3.8306
-4.41955
-4.94828
-5.45236
-5.97443
-6.46603
-6.95713
-7.338
-7.61064
-7.98281
-8.12535
-7.85811
-7.79673
-7.55186
-7.37081
-7.18922
-7.04985
-6.80976
-6.6838
-6.44583
-6.31046
-6.06815
-5.93144
-5.66812
-5.51977
-5.26664
-5.11212
-4.85871
-4.69707
-4.71823
-2.04188
-2.00796
-2.06937
-2.09595
-2.1944
-2.31912
-2.45218
-2.59722
-2.86011
-3.28588
-3.82957
-4.33211
-4.83515
-5.30058
-5.81452
-6.29944
-6.8396
-7.20628
-7.55041
-7.90583
-8.08861
-7.80248
-7.72908
-7.5039
-7.33888
-7.01091
-6.90209
-6.66664
-6.51101
-6.24944
-6.07055
-5.76078
-5.57927
-5.27428
-5.13832
-4.89569
-4.78447
-4.60237
-4.46716
-4.52748
-2.1738
-2.14031
-2.19185
-2.2138
-2.29345
-2.398
-2.52908
-2.6764
-2.95107
-3.34817
-3.83296
-4.29309
-4.75738
-5.19716
-5.65787
-6.06967
-6.46602
-6.90401
-7.33911
-7.73387
-7.847
-7.72968
-7.60128
-7.38675
-7.23117
-6.9625
-6.76483
-6.5647
-6.47751
-6.22077
-6.17646
-5.9942
-5.97949
-5.76825
-5.70131
-5.43405
-5.28283
-4.98111
-4.7446
-4.54418
-2.24994
-2.21863
-2.27797
-2.28641
-2.33952
-2.43406
-2.53875
-2.69464
-2.97296
-3.32135
-3.75335
-4.16576
-4.60921
-5.01653
-5.4751
-5.86854
-6.24185
-6.59511
-6.99415
-7.34083
-7.51608
-7.50961
-7.41946
-7.21423
-7.05356
-6.82451
-6.65335
-6.39586
-6.35791
-6.1841
-6.12476
-5.86856
-5.80715
-5.56921
-5.59252
-5.42541
-5.48114
-5.35066
-5.38454
-5.43618
-2.38477
-2.36048
-2.38263
-2.40833
-2.45564
-2.50809
-2.62107
-2.75991
-3.02472
-3.3336
-3.71547
-4.0807
-4.47926
-4.85846
-5.24906
-5.59637
-6.02231
-6.34621
-6.57996
-6.90671
-7.15598
-7.19912
-7.15452
-7.02577
-6.89176
-6.70433
-6.53567
-6.31002
-6.25713
-6.06186
-5.97569
-5.69928
-5.64671
-5.37219
-5.38452
-5.16541
-5.19493
-4.97415
-4.97853
-4.81083
-2.4245
-2.40467
-2.41735
-2.43661
-2.4813
-2.50659
-2.61656
-2.74738
-3.00191
-3.26308
-3.61042
-3.9296
-4.3078
-4.63312
-5.00101
-5.39298
-5.76344
-6.03849
-6.30217
-6.49311
-6.76289
-6.79065
-6.79782
-6.68357
-6.59167
-6.4606
-6.31183
-6.09997
-6.04656
-5.85152
-5.70528
-5.41448
-5.38162
-5.06568
-5.11335
-4.82752
-4.89219
-4.60122
-4.58875
-4.45397
-2.57357
-2.56679
-2.56399
-2.59438
-2.61297
-2.6124
-2.70961
-2.82281
-3.04146
-3.27533
-3.57231
-3.85273
-4.17517
-4.4681
-4.83285
-5.18559
-5.4475
-5.76862
-5.96051
-6.12566
-6.34952
-6.42808
-6.43521
-6.3957
-6.24714
-6.26943
-5.97995
-5.92144
-5.79481
-5.6822
-5.53616
-5.2504
-5.26876
-4.88408
-4.97876
-4.62839
-4.66939
-4.28118
-4.19193
-3.95559
-2.57166
-2.56033
-2.56663
-2.55015
-2.61288
-2.58962
-2.68073
-2.75931
-2.9721
-3.16375
-3.45201
-3.69797
-4.01117
-4.29494
-4.65385
-4.88802
-5.16088
-5.42906
-5.58422
-5.71545
-5.90884
-6.05391
-6.04611
-6.02299
-5.94191
-5.94873
-5.64265
-5.72665
-5.51793
-5.39561
-5.30485
-5.07863
-5.05497
-4.65205
-4.73172
-4.2787
-4.39438
-3.86147
-3.76347
-3.33945
-2.73966
-2.7406
-2.73268
-2.71036
-2.726
-2.7109
-2.79044
-2.8375
-3.0132
-3.16712
-3.41843
-3.61597
-3.92666
-4.20778
-4.4557
-4.70082
-4.9142
-5.13917
-5.26622
-5.39514
-5.5803
-5.76542
-5.72816
-5.71312
-5.63147
-5.69472
-5.35805
-5.54536
-5.27853
-5.18889
-5.16807
-4.85036
-4.99256
-4.50985
-4.65824
-4.09722
-4.18434
-3.56547
-3.36568
-2.69941
-2.69322
-2.67219
-2.69423
-2.63337
-2.66816
-2.60629
-2.72906
-2.73751
-2.90582
-3.04375
-3.25904
-3.47783
-3.77179
-4.00419
-4.27105
-4.47835
-4.65795
-4.86951
-4.96976
-5.08919
-5.21379
-5.46236
-5.37411
-5.38523
-5.34142
-5.37038
-5.09555
-5.34717
-5.03647
-5.03988
-4.95408
-4.66587
-4.76849
-4.32865
-4.48708
-3.83034
-3.94101
-3.00805
-2.89911
-1.78543
-2.88691
-2.90141
-2.87745
-2.83992
-2.83739
-2.74926
-2.82424
-2.82476
-2.95397
-3.0399
-3.25295
-3.42879
-3.67816
-3.89784
-4.12537
-4.33118
-4.48826
-4.67964
-4.7786
-4.86178
-4.99802
-5.24802
-5.13761
-5.12682
-5.09796
-5.08639
-4.87081
-5.14936
-4.9148
-4.81902
-4.89492
-4.52055
-4.74297
-4.17072
-4.48587
-3.75513
-3.95154
-2.71746
-2.54383
-0.849921
-2.82039
-2.74079
-2.78656
-2.66611
-2.71409
-2.58631
-2.68343
-2.67768
-2.78984
-2.89205
-3.09052
-3.25174
-3.48681
-3.6908
-3.91065
-4.11719
-4.27149
-4.47758
-4.55527
-4.61366
-4.76892
-4.99373
-4.88064
-4.84205
-4.80807
-4.77825
-4.68146
-4.94711
-4.79836
-4.68364
-4.76087
-4.31868
-4.62016
-3.98293
-4.28345
-3.46366
-3.74429
-2.07742
-1.94928
0.861756
-3.02069
-3.09944
-2.99127
-2.96303
-2.85285
-2.78441
-2.7369
-2.72847
-2.81055
-2.88762
-3.05925
-3.19909
-3.40458
-3.58001
-3.78415
-3.97842
-4.16451
-4.35745
-4.47043
-4.52066
-4.65067
-4.84908
-4.73871
-4.65119
-4.60882
-4.51664
-4.54267
-4.76101
-4.68394
-4.56466
-4.72349
-4.27789
-4.5857
-3.90233
-4.38448
-3.33649
-3.91166
-1.84423
-1.52094
2.61232
-3.32115
-2.87582
-2.97639
-2.64527
-2.68403
-2.50108
-2.51089
-2.52014
-2.61042
-2.69829
-2.87839
-3.0116
-3.22337
-3.39408
-3.60661
-3.80971
-4.00968
-4.22086
-4.32199
-4.37612
-4.47035
-4.63169
-4.50815
-4.40946
-4.38501
-4.26877
-4.44845
-4.58865
-4.69434
-4.4777
-4.66914
-4.1534
-4.44821
-3.64952
-4.12072
-2.75778
-3.23395
-0.614179
-0.0262205
7.16886
-3.17673
-3.43882
-3.23539
-3.20346
-2.76866
-2.69596
-2.54304
-2.51589
-2.58238
-2.64963
-2.80418
-2.92857
-3.12261
-3.2846
-3.48798
-3.69242
-3.9121
-4.12625
-4.32971
-4.30416
-4.43253
-4.53358
-4.40249
-4.25077
-4.25485
-4.07787
-4.36523
-4.43545
-4.51538
-4.38997
-4.62321
-4.12614
-4.50691
-3.66236
-4.21526
-2.80428
-3.41223
0.181672
1.79681
11.3549
-5.71269
-2.9511
-3.24199
-2.79967
-2.67904
-2.4255
-2.40728
-2.37819
-2.47262
-2.55785
-2.73863
-2.85884
-3.05499
-3.21033
-3.4134
-3.61626
-3.87817
-4.09569
-4.29756
-4.22359
-4.28591
-4.36506
-4.14279
-4.0048
-4.12164
-4.03998
-4.48993
-4.56039
-4.64599
-4.42759
-4.60455
-3.99919
-4.32392
-3.44635
-3.7993
-1.96134
-1.67389
4.32175
9.32037
24.4194
-0.121103
-0.241122
-0.349128
-0.437574
-0.511741
-0.575118
-0.637142
-0.700382
-0.770418
-0.853295
-0.901568
-1.03186
-1.12377
-1.25775
-1.34409
-1.49725
-1.54468
-1.73262
-1.75237
-2.04165
-1.93403
-2.2968
-2.36038
-2.47087
-2.4218
-2.44891
-2.38881
-2.39519
-2.36859
-2.38416
-2.39926
-2.4322
-2.51802
-2.56076
-2.62082
-2.64523
-2.68161
-2.69955
-2.72074
-2.72551
-0.23638
-0.303817
-0.381204
-0.454518
-0.517964
-0.57814
-0.628177
-0.693141
-0.724139
-0.819604
-0.877495
-1.00927
-1.08202
-1.20587
-1.28132
-1.42727
-1.4932
-1.67732
-1.66293
-1.95389
-1.95164
-2.28554
-2.36565
-2.48996
-2.45117
-2.50041
-2.45453
-2.47259
-2.45097
-2.45634
-2.4694
-2.50236
-2.51626
-2.55678
-2.61407
-2.64444
-2.68694
-2.70421
-2.7288
-2.7287
-0.327706
-0.359681
-0.413139
-0.4695
-0.528235
-0.577082
-0.630818
-0.669918
-0.751863
-0.830351
-0.905099
-1.00992
-1.10651
-1.24922
-1.35806
-1.53505
-1.59726
-1.7829
-1.8015
-2.12966
-2.19743
-2.58322
-2.75332
-2.92446
-2.91481
-2.98139
-2.9464
-2.95721
-2.91134
-2.87188
-2.81152
-2.75717
-2.74208
-2.7327
-2.73361
-2.72797
-2.75608
-2.76462
-2.78308
-2.78564
-0.380701
-0.39986
-0.436107
-0.483833
-0.526246
-0.573098
-0.618627
-0.676591
-0.740914
-0.831388
-0.923435
-1.05337
-1.18166
-1.35395
-1.47113
-1.65861
-1.75537
-1.97255
-2.03126
-2.38612
-2.52282
-2.95624
-3.16104
-3.34301
-3.34205
-3.40278
-3.35618
-3.33463
-3.25561
-3.17808
-3.0855
-2.9822
-2.9038
-2.84413
-2.84344
-2.82464
-2.84979
-2.84213
-2.85482
-2.85781
-0.406962
-0.417354
-0.451982
-0.489028
-0.549225
-0.57031
-0.635991
-0.706554
-0.796763
-0.904497
-1.02751
-1.18964
-1.33761
-1.51999
-1.67662
-1.89177
-2.01958
-2.25156
-2.3592
-2.68814
-2.82199
-3.27014
-3.49204
-3.66206
-3.65612
-3.72096
-3.66838
-3.64503
-3.54485
-3.44724
-3.3235
-3.22143
-3.11603
-3.02999
-2.97934
-2.94734
-2.94195
-2.93642
-2.93966
-2.94466
-0.429038
-0.436048
-0.468761
-0.516527
-0.54812
-0.585373
-0.667057
-0.759425
-0.885526
-1.01852
-1.16412
-1.32818
-1.50174
-1.70801
-1.88249
-2.11209
-2.26732
-2.47968
-2.58029
-2.89495
-3.05328
-3.50848
-3.7284
-3.89753
-3.90348
-3.93892
-3.89217
-3.84533
-3.78233
-3.6784
-3.56019
-3.421
-3.31149
-3.22956
-3.15287
-3.07551
-3.05841
-3.0408
-3.03842
-3.04516
-0.444785
-0.447472
-0.488908
-0.52965
-0.593944
-0.636541
-0.754166
-0.878405
-0.988711
-1.13528
-1.29985
-1.50221
-1.69805
-1.91025
-2.10435
-2.31094
-2.4794
-2.70115
-2.80959
-3.07294
-3.23802
-3.6556
-3.88069
-4.04681
-4.05913
-4.10388
-4.06607
-4.0428
-3.95232
-3.87564
-3.74989
-3.61641
-3.47949
-3.36297
-3.29518
-3.18794
-3.14612
-3.13071
-3.12613
-3.13519
-0.460955
-0.466322
-0.512734
-0.568705
-0.640136
-0.704505
-0.851173
-0.929312
-1.10018
-1.27603
-1.46575
-1.68207
-1.88617
-2.10302
-2.28997
-2.50973
-2.67409
-2.88293
-3.01256
-3.22627
-3.40929
-3.73031
-3.99733
-4.18079
-4.22275
-4.27243
-4.25123
-4.23203
-4.17002
-4.07517
-3.95905
-3.83548
-3.6881
-3.55735
-3.46229
-3.34851
-3.28123
-3.25761
-3.24467
-3.25521
-0.476698
-0.479776
-0.54059
-0.607589
-0.700908
-0.804667
-0.922132
-1.08515
-1.23548
-1.43888
-1.63392
-1.84806
-2.05724
-2.2764
-2.46783
-2.67248
-2.84381
-3.04922
-3.20286
-3.38806
-3.56234
-3.80448
-4.11406
-4.33236
-4.39865
-4.46087
-4.44805
-4.43715
-4.35283
-4.27397
-4.16744
-4.00429
-3.87859
-3.67481
-3.5923
-3.46049
-3.38791
-3.34638
-3.34096
-3.35135
-0.520578
-0.525724
-0.596696
-0.69669
-0.791901
-0.887644
-1.05496
-1.22629
-1.39971
-1.60884
-1.78754
-2.02348
-2.22032
-2.43198
-2.62061
-2.81446
-2.97684
-3.16578
-3.33373
-3.53177
-3.7036
-3.91283
-4.24104
-4.50054
-4.60499
-4.66356
-4.67552
-4.64139
-4.58187
-4.45125
-4.35781
-4.29999
-4.13839
-4.00941
-3.78658
-3.65415
-3.5353
-3.5055
-3.47999
-3.49744
-0.558681
-0.562753
-0.652456
-0.750865
-0.893512
-0.978422
-1.16436
-1.33808
-1.51666
-1.7381
-1.95237
-2.17987
-2.36244
-2.57994
-2.77238
-2.96227
-3.12094
-3.28912
-3.43875
-3.62789
-3.80036
-4.02987
-4.39707
-4.71621
-4.82247
-4.89585
-4.88429
-4.87545
-4.73869
-4.72307
-4.63894
-4.47987
-4.33128
-4.11536
-3.96457
-3.7779
-3.65623
-3.61284
-3.59165
-3.60499
-0.652337
-0.660445
-0.754305
-0.877535
-0.992234
-1.13926
-1.29015
-1.4896
-1.68201
-1.8785
-2.02907
-2.35238
-2.52691
-2.72415
-2.92597
-3.11943
-3.27936
-3.44298
-3.5854
-3.77649
-3.94814
-4.18894
-4.59107
-4.94295
-5.05892
-5.12527
-5.13279
-5.08523
-5.04241
-4.98223
-4.83508
-4.72245
-4.56139
-4.43587
-4.22089
-4.03668
-3.82166
-3.7779
-3.7602
-3.77856
-0.72416
-0.726913
-0.833307
-0.94819
-1.10217
-1.2462
-1.43278
-1.59893
-1.77425
-2.00852
-2.20391
-2.41789
-2.59172
-2.87627
-3.07078
-3.28759
-3.45506
-3.6134
-3.75166
-3.94551
-4.12441
-4.37785
-4.8566
-5.18449
-5.30166
-5.36869
-5.36034
-5.29793
-5.29517
-5.19027
-5.13353
-5.00567
-4.81825
-4.58298
-4.3805
-4.20576
-4.02913
-3.86485
-3.88298
-3.89093
-0.84841
-0.848591
-0.950415
-1.0772
-1.23308
-1.39471
-1.58013
-1.7647
-1.94798
-2.15412
-2.31314
-2.58429
-2.76577
-2.95726
-3.26438
-3.47408
-3.64888
-3.80149
-3.94194
-4.13306
-4.30913
-4.58874
-5.0425
-5.36266
-5.5116
-5.61284
-5.55399
-5.60146
-5.54464
-5.50543
-5.40725
-5.26251
-5.07616
-4.87696
-4.6212
-4.43392
-4.27141
-4.11864
-4.05856
-4.1096
-0.942595
-0.939313
-1.04662
-1.18059
-1.35368
-1.52137
-1.71702
-1.88276
-2.06817
-2.27293
-2.47058
-2.68332
-2.87013
-3.12917
-3.38074
-3.67447
-3.86194
-4.01666
-4.16279
-4.34571
-4.54707
-4.84084
-5.24757
-5.53307
-5.7633
-5.86
-5.89451
-5.86513
-5.7891
-5.74946
-5.63333
-5.49181
-5.30937
-5.08851
-4.83257
-4.61208
-4.4097
-4.30413
-4.13975
-4.22831
-1.05923
-1.05805
-1.16505
-1.30361
-1.48147
-1.65151
-1.82896
-2.00572
-2.19907
-2.40634
-2.62021
-2.87231
-3.12248
-3.36052
-3.51341
-3.93976
-4.08839
-4.26281
-4.42777
-4.62473
-4.84488
-5.14967
-5.45345
-5.74235
-5.93462
-6.10392
-6.12291
-6.09062
-6.10117
-6.01896
-5.9158
-5.77741
-5.60219
-5.3966
-5.14076
-4.89921
-4.65988
-4.55869
-4.39818
-4.44688
-1.16453
-1.17191
-1.2829
-1.43369
-1.62588
-1.78048
-1.96746
-2.13129
-2.31816
-2.52348
-2.7544
-2.9952
-3.27892
-3.57428
-3.80682
-4.07829
-4.34715
-4.54906
-4.75537
-4.99341
-5.23303
-5.46218
-5.70333
-5.92492
-6.09717
-6.3168
-6.40476
-6.4169
-6.34167
-6.23171
-6.10646
-5.95154
-5.78058
-5.57473
-5.33512
-5.08561
-4.85476
-4.6907
-4.55998
-4.55228
-1.21385
-1.22988
-1.32347
-1.47416
-1.6481
-1.81596
-1.9887
-2.16592
-2.37403
-2.61174
-2.88993
-3.18314
-3.49332
-3.81226
-4.07817
-4.40635
-4.68745
-4.99337
-5.23643
-5.48993
-5.66914
-5.84101
-6.01829
-6.18105
-6.3981
-6.53157
-6.68238
-6.66896
-6.61607
-6.50914
-6.38289
-6.22379
-6.0573
-5.86982
-5.63752
-5.39759
-5.10152
-4.95267
-4.82823
-4.78041
-1.27766
-1.31632
-1.3958
-1.55384
-1.72534
-1.90658
-2.06152
-2.22212
-2.40659
-2.6657
-3.00561
-3.38764
-3.76195
-4.10027
-4.45044
-4.74259
-5.24831
-5.54783
-5.77343
-5.98918
-6.1475
-6.25561
-6.36482
-6.46343
-6.69102
-6.73195
-6.78428
-6.78297
-6.70643
-6.57995
-6.45083
-6.28121
-6.12923
-5.95841
-5.76463
-5.55544
-5.32003
-5.08674
-5.05981
-5.03798
-1.31961
-1.32597
-1.37992
-1.48571
-1.62257
-1.75369
-1.86184
-2.03235
-2.3674
-2.75392
-3.20806
-3.70758
-4.16671
-4.54668
-4.88189
-5.25924
-5.62617
-6.09681
-6.34057
-6.50185
-6.62617
-6.7041
-6.74904
-6.81309
-6.96462
-6.96057
-6.98279
-6.93762
-6.8703
-6.73007
-6.57398
-6.38186
-6.2336
-6.0797
-5.87564
-5.68434
-5.3768
-5.12756
-4.97234
-4.93616
-1.51626
-1.47941
-1.52944
-1.62857
-1.79348
-1.92311
-2.04267
-2.18427
-2.48501
-2.86067
-3.33238
-3.87094
-4.37939
-4.81372
-5.25866
-5.6524
-6.08084
-6.50732
-6.86255
-7.01622
-7.11363
-7.12241
-7.14908
-7.21173
-7.12572
-7.10842
-7.07634
-6.97414
-6.80464
-6.5304
-6.31034
-6.13998
-6.08904
-6.07141
-6.04298
-5.87693
-5.67288
-5.48278
-5.37627
-5.42901
-1.57698
-1.54704
-1.59136
-1.66615
-1.83035
-1.9346
-2.07727
-2.20672
-2.53178
-2.95839
-3.49556
-4.10399
-4.6589
-5.13817
-5.61468
-6.06192
-6.49986
-6.92211
-7.26666
-7.48614
-7.50681
-7.50779
-7.45131
-7.41241
-7.33583
-7.22935
-7.14947
-7.01124
-6.85382
-6.57196
-6.33099
-6.0388
-5.78376
-5.47728
-5.21916
-5.06915
-4.95358
-4.84412
-4.81104
-4.93685
-1.70217
-1.68969
-1.73144
-1.81266
-1.95058
-2.10118
-2.23002
-2.34919
-2.63107
-3.06307
-3.62634
-4.2679
-4.82694
-5.3404
-5.85752
-6.33911
-6.81895
-7.21011
-7.60892
-7.81635
-7.91663
-7.76854
-7.80958
-7.62279
-7.49244
-7.305
-7.17958
-6.98685
-6.83444
-6.58209
-6.35733
-6.08688
-5.89125
-5.60199
-5.31492
-5.048
-4.84423
-4.64511
-4.48769
-4.54393
-1.79704
-1.79213
-1.83277
-1.89757
-2.02711
-2.19917
-2.30116
-2.4238
-2.67438
-3.12293
-3.72806
-4.35614
-4.92739
-5.45466
-5.992
-6.50058
-6.99947
-7.40317
-7.77338
-8.05872
-8.10469
-7.99617
-7.81683
-7.68445
-7.54052
-7.3162
-7.14638
-6.91942
-6.75733
-6.49452
-6.29641
-5.98445
-5.73848
-5.40191
-5.18118
-4.93779
-4.75776
-4.53873
-4.32618
-4.42187
-1.93185
-1.92556
-1.96583
-2.02185
-2.13202
-2.2745
-2.39061
-2.51557
-2.75128
-3.18107
-3.77237
-4.37243
-4.93647
-5.45916
-5.99634
-6.51178
-7.02984
-7.45132
-7.79752
-8.12453
-8.24957
-8.07585
-7.95412
-7.65292
-7.46853
-7.26427
-7.11146
-6.84042
-6.69791
-6.44595
-6.29444
-6.03829
-5.87874
-5.60674
-5.45503
-5.21216
-5.05565
-4.80225
-4.57129
-4.61949
-2.03612
-2.01401
-2.05991
-2.0965
-2.19048
-2.30193
-2.43026
-2.55636
-2.7963
-3.20027
-3.74661
-4.30277
-4.84614
-5.34231
-5.87318
-6.3809
-6.90456
-7.31375
-7.69363
-7.94561
-8.11222
-8.04852
-7.84649
-7.61876
-7.39187
-7.1787
-6.87618
-6.714
-6.53515
-6.24651
-6.05156
-5.73169
-5.55164
-5.23478
-5.10294
-4.84647
-4.73747
-4.4953
-4.33767
-4.42619
-2.16609
-2.14681
-2.18421
-2.21544
-2.28959
-2.38733
-2.50837
-2.62051
-2.86668
-3.2438
-3.75036
-4.24918
-4.73364
-5.19481
-5.68854
-6.16009
-6.63046
-7.05701
-7.42991
-7.66189
-7.94958
-7.90664
-7.72889
-7.47704
-7.34078
-6.97349
-6.84716
-6.50994
-6.44423
-6.17868
-6.12013
-5.93005
-5.90624
-5.69799
-5.65343
-5.39709
-5.27169
-4.99895
-4.76491
-4.60151
-2.25338
-2.22184
-2.25684
-2.27899
-2.33314
-2.40512
-2.53306
-2.63902
-2.89935
-3.25224
-3.69034
-4.11229
-4.55874
-4.9847
-5.4581
-5.89474
-6.34453
-6.76567
-7.08909
-7.41428
-7.62605
-7.54648
-7.50108
-7.31355
-7.1299
-6.92961
-6.61951
-6.4362
-6.29093
-6.16021
-6.08418
-5.83446
-5.79258
-5.5484
-5.58609
-5.39127
-5.45293
-5.32092
-5.27595
-5.31133
-2.38616
-2.36338
-2.38747
-2.40487
-2.44917
-2.49184
-2.60421
-2.71932
-2.97942
-3.27748
-3.65619
-4.02
-4.42452
-4.81742
-5.25035
-5.67038
-6.10111
-6.48184
-6.65677
-7.00069
-7.27028
-7.20895
-7.18618
-7.06881
-6.95195
-6.74605
-6.56532
-6.39039
-6.13189
-6.04738
-5.94729
-5.71837
-5.6789
-5.41073
-5.45822
-5.22488
-5.26965
-5.01524
-4.95367
-4.85114
-2.43198
-2.40508
-2.4263
-2.43146
-2.47493
-2.49339
-2.5986
-2.71562
-2.93708
-3.20913
-3.54351
-3.86624
-4.24127
-4.5972
-5.01712
-5.42344
-5.8468
-6.12076
-6.43423
-6.5644
-6.83603
-6.78544
-6.80667
-6.71451
-6.62919
-6.48079
-6.28511
-6.09544
-6.03114
-5.88223
-5.66456
-5.40569
-5.41153
-5.10442
-5.17176
-4.87024
-4.98179
-4.61615
-4.6364
-4.42747
-2.58203
-2.56555
-2.57457
-2.58098
-2.60428
-2.60741
-2.69186
-2.7717
-2.99283
-3.21065
-3.51492
-3.79302
-4.12096
-4.43973
-4.80512
-5.16737
-5.51191
-5.79108
-6.04356
-6.27968
-6.32728
-6.40745
-6.43341
-6.37963
-6.29941
-6.21446
-5.97596
-5.93888
-5.76228
-5.59399
-5.56128
-5.29933
-5.28767
-4.89152
-5.06238
-4.68395
-4.81667
-4.35743
-4.32695
-3.97358
-2.58304
-2.56182
-2.57664
-2.55763
-2.59395
-2.58317
-2.66793
-2.73964
-2.92845
-3.12274
-3.39577
-3.64353
-3.94977
-4.24385
-4.58769
-4.85956
-5.15087
-5.49181
-5.63356
-5.79309
-5.89819
-6.03804
-6.03999
-6.01644
-5.9561
-5.91722
-5.69646
-5.70956
-5.49639
-5.35487
-5.28303
-5.07317
-5.13282
-4.66818
-4.78091
-4.36408
-4.59399
-4.01042
-4.0422
-3.49407
-2.75577
-2.75594
-2.74199
-2.72611
-2.72868
-2.7096
-2.78142
-2.82499
-2.97257
-3.14058
-3.37939
-3.62101
-3.85798
-4.11961
-4.34857
-4.63075
-4.89623
-5.13102
-5.2551
-5.42648
-5.56579
-5.73769
-5.72463
-5.71087
-5.64606
-5.65519
-5.4232
-5.50193
-5.302
-5.15978
-5.14916
-4.85218
-5.00048
-4.51909
-4.80614
-4.19256
-4.45607
-3.83809
-3.88274
-3.05822
-2.7091
-2.69395
-2.71684
-2.62864
-2.68514
-2.60545
-2.72595
-2.72994
-2.89618
-3.00107
-3.2448
-3.45159
-3.73221
-3.98331
-4.23347
-4.46542
-4.67401
-4.87839
-4.97004
-5.09962
-5.219
-5.42036
-5.38971
-5.38809
-5.33614
-5.38177
-5.17158
-5.27668
-5.09074
-4.97736
-4.94979
-4.64544
-4.76118
-4.35832
-4.55508
-4.05153
-4.28991
-3.39936
-3.72556
-2.40706
-2.90466
-2.92573
-2.90271
-2.87243
-2.82375
-2.77141
-2.82275
-2.83036
-2.94699
-3.03143
-3.22707
-3.40414
-3.63913
-3.86382
-4.07884
-4.29692
-4.49913
-4.67565
-4.77335
-4.86868
-4.99362
-5.20157
-5.14152
-5.13405
-5.07268
-5.07484
-4.92953
-5.0767
-4.95485
-4.82252
-4.89749
-4.49306
-4.75052
-4.18288
-4.56365
-3.89377
-4.40113
-3.39784
-3.5858
-1.79793
-2.82318
-2.77861
-2.82002
-2.68507
-2.7515
-2.58797
-2.69821
-2.68885
-2.81857
-2.91015
-3.11947
-3.25043
-3.48746
-3.66045
-3.8857
-4.11001
-4.28298
-4.48671
-4.55827
-4.62428
-4.7383
-4.95815
-4.88044
-4.85361
-4.80148
-4.74632
-4.71085
-4.83952
-4.80757
-4.65536
-4.78213
-4.3381
-4.62389
-3.97812
-4.42695
-3.55206
-4.20776
-2.84988
-3.51443
-0.321347
-3.02021
-3.12086
-3.02045
-3.00792
-2.89691
-2.82499
-2.77549
-2.78538
-2.85478
-2.93457
-3.0893
-3.23532
-3.43462
-3.61053
-3.81485
-4.01584
-4.20276
-4.38817
-4.51951
-4.58079
-4.70576
-4.83445
-4.74543
-4.68152
-4.58777
-4.46094
-4.54389
-4.62651
-4.66464
-4.52491
-4.72845
-4.285
-4.63635
-3.94148
-4.51232
-3.49241
-4.28257
-2.57913
-3.42948
1.52291
-3.25595
-2.85804
-2.98583
-2.68664
-2.71596
-2.56883
-2.5584
-2.57053
-2.66894
-2.75565
-2.94321
-3.06826
-3.28411
-3.45705
-3.68028
-3.90595
-4.08715
-4.32261
-4.46091
-4.4709
-4.57786
-4.72063
-4.52971
-4.41426
-4.39881
-4.22995
-4.43011
-4.49325
-4.64896
-4.43344
-4.68244
-4.14921
-4.52281
-3.72112
-4.27232
-2.95795
-3.58518
-1.1738
-1.01069
6.77782
-2.94957
-3.40353
-3.27322
-3.27357
-2.96895
-2.74854
-2.65622
-2.60873
-2.65977
-2.72433
-2.87533
-3.01656
-3.21788
-3.38224
-3.5925
-3.82133
-4.06618
-4.23618
-4.49916
-4.48775
-4.60069
-4.70979
-4.45334
-4.2789
-4.26567
-4.04587
-4.3264
-4.31078
-4.47731
-4.36658
-4.63999
-4.14679
-4.54565
-3.65665
-4.27507
-2.85238
-3.35172
0.196435
2.30242
13.9075
-5.56578
-2.83475
-3.11153
-2.72996
-2.65273
-2.45689
-2.43227
-2.40795
-2.51047
-2.59786
-2.77599
-2.89099
-3.09292
-3.27142
-3.50941
-3.75728
-4.04311
-4.31178
-4.48051
-4.35282
-4.42694
-4.47094
-4.16922
-3.99149
-4.09705
-3.97118
-4.4412
-4.45291
-4.59015
-4.40644
-4.64075
-3.9947
-4.33249
-3.40648
-3.78404
-1.87016
-1.28882
4.89184
12.3759
30.7585
-0.261003
-0.315399
-0.381054
-0.44741
-0.513031
-0.572929
-0.636097
-0.692833
-0.762886
-0.816288
-0.91942
-1.0231
-1.12268
-1.25369
-1.34605
-1.48475
-1.57258
-1.74014
-1.72015
-2.00574
-1.86811
-2.33448
-2.38504
-2.50445
-2.4464
-2.44426
-2.36887
-2.35212
-2.31585
-2.32855
-2.35918
-2.40756
-2.45444
-2.54677
-2.61232
-2.65031
-2.68614
-2.6951
-2.71508
-2.71246
-0.318254
-0.349037
-0.403397
-0.453177
-0.520515
-0.56612
-0.621205