/*--------------------------------*- C++ -*----------------------------------*\
| =========                 |                                                 |
| \\      /  F ield         | OpenFOAM: The Open Source CFD Toolbox           |
|  \\    /   O peration     | Version:  v1806                                 |
|   \\  /    A nd           | Web:      www.OpenFOAM.com                      |
|    \\/     M anipulation  |                                                 |
\*---------------------------------------------------------------------------*/
FoamFile
{
    version     2.0;
    format      ascii;
    class       volVectorField;
    location    "0.097";
    object      U_0;
}
// * * * * * * * * * * * * * * * * * * * * * * * * * * * * * * * * * * * * * //

dimensions      [0 1 -1 0 0 0 0];


internalField   nonuniform List<vector> 
64000
(
(-0.0104628 -0.0124529 -0.00872261)
(0.0160767 -0.0120567 -0.0062369)
(0.0227903 -0.00411503 0.000165386)
(0.0277695 -0.00337152 0.00102565)
(0.0291966 -0.00236519 0.00136069)
(0.0297744 -0.00281588 0.00187581)
(0.0295481 -0.00380733 0.00201474)
(0.0267116 -0.00426615 0.00250035)
(0.0256563 -0.00521073 0.00378614)
(0.019328 -0.00517452 0.00381987)
(0.0133874 -0.00545343 0.00459043)
(0.00233849 -0.0073178 0.00736629)
(-0.0135567 -0.0124156 0.00567825)
(-0.0384883 -0.0172761 0.00375018)
(-0.0653438 -0.0179383 0.00446962)
(-0.101666 -0.0174651 0.00235391)
(-0.127727 -7.01663e-05 0.00114179)
(-0.173051 -0.00447824 -0.00311668)
(-0.169501 -0.00936591 0.0043207)
(-0.231475 -0.0268946 -0.0142473)
(-0.20196 -0.0199337 -0.0200324)
(-0.0995379 -0.0222197 -0.0379496)
(-0.108252 -0.00660013 -0.0246296)
(-0.107319 -0.0021858 -0.0371217)
(-0.126541 0.00386838 -0.0481928)
(-0.120947 0.0119691 -0.0579987)
(-0.109712 0.0221454 -0.0625786)
(-0.0731712 0.0326771 -0.059149)
(-0.0388765 0.039962 -0.054444)
(0.0048408 0.0509448 -0.0407788)
(0.0491667 0.0491083 -0.0321794)
(0.0862729 0.0389136 -0.0253889)
(0.102426 0.0287489 -0.0128279)
(0.0997052 0.0149549 -0.00551895)
(0.0861017 0.0062832 0.000762454)
(0.0680641 -0.00168051 0.00335064)
(0.0494241 -0.0057858 0.00423335)
(0.029595 -0.0052931 0.00503907)
(0.0157962 -0.00389617 0.00540879)
(0.00213884 -0.00251833 0.0034473)
(-0.00749332 0.0026055 -0.00514269)
(0.00914074 -0.0166454 -0.00482106)
(0.024971 -0.0107024 -0.00217166)
(0.0359417 -0.00699722 -0.00107299)
(0.0418376 -0.00242167 -0.00155966)
(0.0422271 -0.000627605 -0.00186116)
(0.0412153 0.00324539 -0.00345361)
(0.0345305 0.00479474 -0.00297376)
(0.0274145 0.0097432 -0.00761383)
(0.0108123 0.0160185 -0.00375059)
(-0.0119023 0.0244195 -0.00848352)
(-0.0488135 0.0327856 0.000854725)
(-0.0945314 0.0421946 -0.00410926)
(-0.146939 0.0619242 -0.0068361)
(-0.204536 0.0753016 -0.0115547)
(-0.26198 0.0842882 -0.0181049)
(-0.337542 0.0928886 -0.0443864)
(-0.443382 0.0948627 -0.0592296)
(-0.487566 0.101315 -0.0768608)
(-0.574801 0.101244 -0.0974096)
(-0.526595 0.129692 -0.0931421)
(-0.395409 0.144787 -0.12542)
(-0.385764 0.190936 -0.134455)
(-0.371393 0.214131 -0.145152)
(-0.363972 0.238469 -0.157112)
(-0.325227 0.259717 -0.163485)
(-0.277832 0.280662 -0.164954)
(-0.205368 0.295783 -0.153333)
(-0.130827 0.302079 -0.133652)
(-0.0572639 0.305507 -0.110011)
(0.00599858 0.290849 -0.0771265)
(0.0692754 0.259958 -0.0466025)
(0.107216 0.212503 -0.0391447)
(0.119705 0.160404 -0.0262234)
(0.114886 0.110156 -0.0129904)
(0.0965152 0.0704397 -0.00548739)
(0.0774005 0.0419806 -0.00116643)
(0.0532259 0.0270612 -0.000198085)
(0.0318161 0.0171918 0.00118406)
(0.00769527 0.00878993 0.00118324)
(-0.000371664 -0.00445136 0.00146421)
(0.0157335 -0.0223376 -0.00214941)
(0.0330347 -0.017211 -0.00319046)
(0.0441326 -0.00516168 -0.00451683)
(0.0465267 0.00419049 -0.00611227)
(0.0447279 0.0152304 -0.00742427)
(0.0378978 0.0301123 -0.00845646)
(0.0236187 0.0441167 -0.0100609)
(0.00854722 0.0683009 -0.00169072)
(-0.0209527 0.0897793 -0.00497226)
(-0.058538 0.116175 -0.0082401)
(-0.110979 0.148507 -0.013194)
(-0.164576 0.182214 -0.0177616)
(-0.242476 0.211285 -0.0327055)
(-0.33707 0.231697 -0.0362138)
(-0.433272 0.24573 -0.0427193)
(-0.515597 0.250656 -0.0596762)
(-0.60386 0.270147 -0.0787072)
(-0.643085 0.301288 -0.0965732)
(-0.71545 0.336828 -0.115969)
(-0.652867 0.374918 -0.103746)
(-0.49493 0.40613 -0.124109)
(-0.462091 0.463066 -0.124627)
(-0.436488 0.493069 -0.123369)
(-0.420075 0.525104 -0.126692)
(-0.376959 0.546285 -0.125336)
(-0.329075 0.560743 -0.120677)
(-0.262643 0.563497 -0.105255)
(-0.197439 0.5534 -0.082914)
(-0.131077 0.532837 -0.059583)
(-0.0761735 0.500581 -0.0400368)
(-0.0311012 0.45289 -0.0280076)
(0.00196066 0.380403 -0.0176379)
(0.0243835 0.307555 -0.00893016)
(0.0383403 0.228347 -0.0106961)
(0.0448276 0.163777 -0.0110148)
(0.0456895 0.116643 -0.00742957)
(0.0370866 0.0798447 -0.00525386)
(0.026504 0.0536936 -0.00167126)
(0.00767258 0.0276136 0.00100356)
(0.00101453 -0.00856229 0.0018678)
(0.0180738 -0.0235005 -0.00139591)
(0.0391351 -0.0109067 -0.00400844)
(0.0469569 0.0058083 -0.00724057)
(0.0451511 0.0297021 -0.00796753)
(0.0414944 0.0538933 -0.00940552)
(0.0289526 0.0890469 -0.00927183)
(0.0110523 0.121828 -0.00590066)
(-0.0152429 0.166752 -0.0106891)
(-0.0607241 0.206527 -0.0130435)
(-0.106249 0.250539 -0.0175189)
(-0.170347 0.288341 -0.0250833)
(-0.252386 0.317615 -0.0279287)
(-0.342717 0.334493 -0.0295255)
(-0.427719 0.356144 -0.0324381)
(-0.506793 0.379454 -0.0369207)
(-0.573594 0.410392 -0.052427)
(-0.648762 0.439434 -0.0626962)
(-0.674202 0.482555 -0.0725011)
(-0.733436 0.52876 -0.0781921)
(-0.659674 0.561501 -0.0451686)
(-0.480559 0.584149 -0.0457227)
(-0.433927 0.625817 -0.0393452)
(-0.408313 0.631549 -0.029504)
(-0.39284 0.644736 -0.0277413)
(-0.358728 0.644689 -0.0229088)
(-0.322549 0.637349 -0.0194521)
(-0.272735 0.618125 -0.011647)
(-0.225156 0.592197 0.000341567)
(-0.179294 0.558879 0.00758735)
(-0.148634 0.517411 0.012394)
(-0.122777 0.472143 0.0111242)
(-0.0987738 0.412115 0.00518478)
(-0.0759801 0.35007 -0.00272092)
(-0.0521771 0.270778 -0.00619584)
(-0.0218984 0.203493 -0.0108576)
(-0.000922241 0.149022 -0.01114)
(0.00786565 0.112886 -0.00835476)
(0.0161224 0.0799079 -0.00383895)
(0.00605758 0.0403971 0.000744967)
(0.00113412 -0.00902637 0.000502282)
(0.0237946 -0.0127155 -0.00410554)
(0.0463974 0.00406725 -0.00807134)
(0.0554228 0.0378777 -0.00899581)
(0.0530206 0.0749588 -0.00876846)
(0.0473823 0.120471 -0.0158554)
(0.02982 0.174995 -0.0139385)
(0.00223903 0.234472 -0.00669156)
(-0.0302005 0.290611 -0.00822982)
(-0.082866 0.338171 -0.0104761)
(-0.141807 0.376201 -0.0134298)
(-0.219376 0.396989 -0.0160641)
(-0.293054 0.419735 -0.0166176)
(-0.367177 0.444474 -0.0217944)
(-0.438323 0.474949 -0.0216496)
(-0.506268 0.507904 -0.0222458)
(-0.560382 0.536979 -0.0267065)
(-0.617105 0.571447 -0.0248502)
(-0.622856 0.621102 -0.0187418)
(-0.667165 0.66881 -0.0264359)
(-0.594647 0.69592 0.00674823)
(-0.40927 0.702789 0.0170347)
(-0.3586 0.714997 0.0290156)
(-0.342482 0.686837 0.0366005)
(-0.339158 0.670298 0.036392)
(-0.324269 0.643582 0.0421478)
(-0.30793 0.611842 0.0432161)
(-0.276748 0.574593 0.0470825)
(-0.249869 0.533244 0.0402343)
(-0.224 0.492968 0.03177)
(-0.204674 0.447467 0.021537)
(-0.194347 0.413876 0.0145127)
(-0.185181 0.375473 0.00711699)
(-0.177169 0.344382 -0.00489914)
(-0.153782 0.280595 -0.0143444)
(-0.104374 0.211248 -0.0151425)
(-0.0528965 0.163349 -0.0142781)
(-0.0174115 0.133033 -0.0120578)
(0.00256247 0.0990717 -0.00659638)
(0.00316987 0.0507255 0.000746413)
(0.00586284 -0.00332811 -0.00015836)
(0.0286767 0.00249682 -0.00692465)
(0.0600521 0.0291797 -0.0067701)
(0.0719502 0.0804574 -0.0102839)
(0.0667521 0.138081 -0.0153234)
(0.0635369 0.201372 -0.0191992)
(0.0474168 0.276076 -0.0145294)
(0.0143746 0.331045 -0.00616503)
(-0.0371431 0.376329 -0.00620402)
(-0.106209 0.410992 -0.00849491)
(-0.174953 0.441178 -0.0106107)
(-0.239919 0.46875 -0.0107429)
(-0.298152 0.502639 -0.0090713)
(-0.356341 0.531083 -0.00594555)
(-0.405177 0.561291 -0.000446102)
(-0.457651 0.590087 0.00538824)
(-0.489685 0.620547 0.00887574)
(-0.523188 0.651626 0.00857307)
(-0.522311 0.701113 0.00957155)
(-0.554284 0.737599 0.0095258)
(-0.485088 0.760705 0.0409719)
(-0.317558 0.713655 0.0538813)
(-0.283999 0.695746 0.0649318)
(-0.289734 0.636474 0.0756824)
(-0.300979 0.59679 0.0770414)
(-0.305197 0.553655 0.0761948)
(-0.304807 0.511313 0.0733959)
(-0.293763 0.468759 0.0667004)
(-0.2801 0.421649 0.0645703)
(-0.268314 0.382568 0.0429738)
(-0.25889 0.338648 0.0313008)
(-0.247715 0.307768 0.0158074)
(-0.233363 0.281128 0.00543148)
(-0.238919 0.269272 -0.00627616)
(-0.241307 0.244746 -0.0177936)
(-0.175922 0.195792 -0.0152639)
(-0.0935613 0.164497 -0.0159141)
(-0.0409501 0.138821 -0.0124505)
(-0.00510292 0.107219 -0.00739223)
(0.00222666 0.0546802 0.00126363)
(0.00617371 0.00247022 -0.00140989)
(0.0378263 0.0162272 -0.0102591)
(0.0807643 0.0566998 -0.0107229)
(0.105162 0.111674 -0.0129314)
(0.100746 0.17792 -0.0182762)
(0.0978574 0.250203 -0.0210334)
(0.0610363 0.31899 -0.0149328)
(-0.00175906 0.346722 0.000371442)
(-0.0528685 0.390863 -0.00464655)
(-0.109371 0.428576 -0.00527041)
(-0.157176 0.47331 -0.00523583)
(-0.207306 0.516196 -0.00324157)
(-0.253027 0.556858 0.000379591)
(-0.299791 0.590644 0.00515525)
(-0.338932 0.62426 0.0135791)
(-0.374108 0.649361 0.0187788)
(-0.395374 0.677751 0.0253219)
(-0.414512 0.690227 0.0285574)
(-0.40032 0.715703 0.0275539)
(-0.421161 0.728359 0.0176643)
(-0.412811 0.748372 0.0369423)
(-0.277984 0.640138 0.0571444)
(-0.23175 0.594488 0.0622567)
(-0.255189 0.530963 0.073285)
(-0.277287 0.48985 0.0727033)
(-0.298659 0.451225 0.0715008)
(-0.314377 0.416475 0.0673451)
(-0.320133 0.381491 0.059617)
(-0.319542 0.344343 0.0460378)
(-0.320017 0.309647 0.0296739)
(-0.316942 0.276255 0.0161489)
(-0.308812 0.247884 0.00300333)
(-0.293682 0.227026 -0.00474655)
(-0.287217 0.211455 -0.012271)
(-0.289835 0.221601 -0.0205224)
(-0.227973 0.196546 -0.0218112)
(-0.128277 0.170822 -0.0225974)
(-0.0562643 0.150252 -0.0174844)
(-0.0103028 0.116888 -0.0113102)
(0.002194 0.0602003 -0.000479547)
(0.0071193 0.00882826 -0.00402243)
(0.0454434 0.0351208 -0.0140295)
(0.0992635 0.0839897 -0.0140775)
(0.125589 0.140099 -0.012074)
(0.128283 0.199527 -0.0130724)
(0.118377 0.272268 -0.0147368)
(0.0582948 0.306168 -0.00484556)
(0.00762542 0.351964 0.00359758)
(-0.0221721 0.398155 -0.000873834)
(-0.07168 0.45282 0.00079059)
(-0.112774 0.497976 0.00127093)
(-0.155033 0.536678 0.00777465)
(-0.191117 0.570864 0.0134019)
(-0.223003 0.598443 0.0218577)
(-0.249104 0.625328 0.0262546)
(-0.278072 0.640758 0.030852)
(-0.295179 0.653658 0.0339923)
(-0.31325 0.651277 0.0333712)
(-0.309393 0.648895 0.0306683)
(-0.322034 0.621591 0.0151821)
(-0.362026 0.629353 0.0181856)
(-0.279113 0.542869 0.0378126)
(-0.216116 0.467273 0.040477)
(-0.242343 0.425385 0.0515817)
(-0.272479 0.39105 0.0544774)
(-0.304587 0.365583 0.0553297)
(-0.33061 0.340356 0.0559138)
(-0.348134 0.313809 0.048047)
(-0.358993 0.286264 0.0379036)
(-0.365921 0.255668 0.0154042)
(-0.367228 0.223923 0.00591135)
(-0.357412 0.198748 -0.00357264)
(-0.34197 0.185787 -0.0108776)
(-0.322429 0.175502 -0.0146187)
(-0.328512 0.196334 -0.0240883)
(-0.27789 0.20039 -0.0217281)
(-0.162574 0.176635 -0.0232317)
(-0.0749395 0.159897 -0.0179938)
(-0.0154962 0.124463 -0.0108939)
(0.00312879 0.0644146 0.000326482)
(0.00566756 0.0230464 -0.00689268)
(0.0538945 0.0670969 -0.0180538)
(0.119681 0.123272 -0.0196143)
(0.152207 0.179376 -0.0141515)
(0.160792 0.240265 -0.0146263)
(0.132171 0.294364 -0.0149996)
(0.0778332 0.327143 -0.00514124)
(0.0373842 0.386775 0.00254773)
(0.0116339 0.424474 0.00892206)
(-0.0214481 0.466214 0.00820536)
(-0.0605457 0.50241 0.0126423)
(-0.0918378 0.531392 0.0177956)
(-0.117618 0.554362 0.0258012)
(-0.142026 0.568581 0.0320135)
(-0.165041 0.57438 0.0344698)
(-0.190534 0.571051 0.0350617)
(-0.211704 0.565755 0.0338921)
(-0.237923 0.548636 0.0292738)
(-0.258213 0.535129 0.0231634)
(-0.272196 0.499408 0.00948295)
(-0.32341 0.490976 -0.000790411)
(-0.301849 0.457338 0.0123699)
(-0.232917 0.363179 0.0209252)
(-0.240455 0.346195 0.0278861)
(-0.276217 0.321925 0.0353294)
(-0.312851 0.30669 0.039252)
(-0.348401 0.28917 0.0441735)
(-0.37362 0.267178 0.0394032)
(-0.394537 0.243838 0.023213)
(-0.411485 0.210365 0.00676749)
(-0.413234 0.184985 -0.00286487)
(-0.399911 0.161703 -0.00968277)
(-0.384044 0.148184 -0.0142112)
(-0.35459 0.148093 -0.023635)
(-0.343199 0.160744 -0.0267606)
(-0.308176 0.196161 -0.0306937)
(-0.198439 0.180223 -0.0268921)
(-0.0903598 0.170082 -0.0252075)
(-0.0206535 0.135279 -0.0140879)
(0.00404947 0.0714837 -0.00189186)
(0.00777176 0.0391632 -0.0094648)
(0.0630605 0.104971 -0.0257161)
(0.138503 0.165355 -0.024662)
(0.177706 0.219429 -0.0153195)
(0.181253 0.274272 -0.0162319)
(0.151378 0.308117 -0.0159528)
(0.109403 0.354001 -0.00634156)
(0.0774128 0.401658 0.00510089)
(0.0479834 0.441432 0.0121899)
(0.0226964 0.467943 0.0229492)
(-0.00195131 0.492175 0.0211361)
(-0.0307634 0.505847 0.0308644)
(-0.0544808 0.512923 0.0364179)
(-0.0770775 0.506092 0.0420232)
(-0.0995925 0.491732 0.0422993)
(-0.126538 0.469008 0.0391237)
(-0.153451 0.446614 0.0337029)
(-0.184008 0.420053 0.0260808)
(-0.215121 0.402761 0.0173982)
(-0.24363 0.383422 0.00382148)
(-0.29621 0.367631 -0.00951297)
(-0.326151 0.366739 -0.00596137)
(-0.262412 0.299849 0.0101208)
(-0.237146 0.293061 0.0126961)
(-0.277056 0.27543 0.0240245)
(-0.314563 0.267269 0.0305083)
(-0.355867 0.248611 0.0399046)
(-0.388965 0.2323 0.032824)
(-0.418617 0.202423 0.0239047)
(-0.433468 0.175423 0.00726078)
(-0.43863 0.147032 0.0081228)
(-0.432375 0.124226 0.0155429)
(-0.412379 0.104978 0.0116131)
(-0.385206 0.105836 0.00802419)
(-0.364079 0.118743 -0.0156779)
(-0.331561 0.166486 -0.0262969)
(-0.228975 0.177468 -0.0262023)
(-0.108669 0.17032 -0.0219392)
(-0.0266121 0.143081 -0.0133537)
(0.00491323 0.0760205 -0.000754496)
(0.00881567 0.0632979 -0.0121108)
(0.0722187 0.149314 -0.0319857)
(0.156622 0.213151 -0.0312213)
(0.20228 0.262804 -0.0195175)
(0.201396 0.302191 -0.0122664)
(0.176171 0.335525 -0.0161245)
(0.149814 0.376043 -0.00548654)
(0.119486 0.41438 0.00174389)
(0.0951097 0.444015 0.00959134)
(0.067655 0.466131 0.0253646)
(0.0403316 0.47383 0.0346451)
(0.0211071 0.474206 0.0448373)
(-9.58919e-05 0.463162 0.0474353)
(-0.0267681 0.439468 0.0485801)
(-0.0546277 0.413133 0.0474759)
(-0.0858147 0.380784 0.040999)
(-0.118474 0.352091 0.0323567)
(-0.154357 0.324674 0.0229994)
(-0.188366 0.306688 0.0143223)
(-0.225538 0.295132 0.00148375)
(-0.275686 0.283518 -0.00879244)
(-0.320301 0.287942 -0.0106732)
(-0.266288 0.268421 0.00340158)
(-0.22994 0.258021 0.00461631)
(-0.265783 0.245256 0.0173536)
(-0.306074 0.23325 0.0253441)
(-0.352856 0.218453 0.0342202)
(-0.390218 0.195867 0.0311684)
(-0.423731 0.170129 0.018978)
(-0.446801 0.139642 0.028188)
(-0.460641 0.104493 0.0299915)
(-0.460839 0.0756452 0.0159022)
(-0.445636 0.0585512 0.0114345)
(-0.410846 0.0556181 0.00237755)
(-0.371971 0.0694719 -0.00245561)
(-0.340369 0.118738 -0.025037)
(-0.253654 0.157372 -0.0292929)
(-0.126087 0.167853 -0.0242221)
(-0.0299865 0.148122 -0.0153621)
(0.00424416 0.0819505 -0.00243278)
(0.0101071 0.0822592 -0.0128397)
(0.0782509 0.189092 -0.0359966)
(0.170717 0.255783 -0.0345898)
(0.216128 0.295013 -0.0186661)
(0.220543 0.323285 -0.0111175)
(0.205722 0.356316 -0.00864842)
(0.184658 0.388833 -0.00757071)
(0.1596 0.413742 0.00472752)
(0.133577 0.434927 0.0103816)
(0.109659 0.444189 0.0214192)
(0.0876639 0.448664 0.0322376)
(0.0600933 0.43852 0.0496414)
(0.0326921 0.416282 0.0538779)
(0.010175 0.381552 0.0552609)
(-0.0190208 0.347805 0.047996)
(-0.055248 0.316135 0.03945)
(-0.0917663 0.290609 0.027917)
(-0.130023 0.26817 0.0180116)
(-0.165823 0.257863 0.00987522)
(-0.20819 0.248575 -0.00172538)
(-0.256615 0.243439 -0.00848111)
(-0.297548 0.244296 -0.011123)
(-0.250219 0.24663 0.000398513)
(-0.211806 0.232428 -0.000116648)
(-0.246193 0.216857 0.0124611)
(-0.283947 0.201164 0.021199)
(-0.333522 0.184851 0.0290357)
(-0.374453 0.161406 0.0226202)
(-0.412466 0.133772 0.0369868)
(-0.444924 0.0981257 0.0436726)
(-0.465957 0.0624902 0.0363142)
(-0.468541 0.0354343 0.0463999)
(-0.460324 0.0139061 0.0377535)
(-0.438689 0.00988839 0.035478)
(-0.398312 0.0184281 0.0245591)
(-0.354691 0.0639776 0.00213262)
(-0.267036 0.120069 -0.026336)
(-0.140294 0.154985 -0.0258934)
(-0.0363115 0.146458 -0.0149606)
(0.00533424 0.0847088 -0.00237836)
(0.0106872 0.104313 -0.0118441)
(0.0834965 0.230692 -0.0382474)
(0.177272 0.298403 -0.0374609)
(0.228177 0.328061 -0.019519)
(0.243302 0.351015 -0.00669123)
(0.23677 0.37518 -0.00118331)
(0.217572 0.398675 0.00278419)
(0.193907 0.413864 0.00364611)
(0.173747 0.424204 0.0125047)
(0.151067 0.426953 0.0237574)
(0.125361 0.418686 0.0328131)
(0.0989832 0.400498 0.039965)
(0.0671634 0.373519 0.0520367)
(0.0339526 0.339805 0.0538199)
(0.00607258 0.299452 0.0491983)
(-0.0279673 0.270591 0.0356006)
(-0.0686455 0.248962 0.0226778)
(-0.106447 0.232285 0.0134311)
(-0.143241 0.227081 0.00525713)
(-0.186787 0.218358 -0.00229617)
(-0.230127 0.218162 -0.00759606)
(-0.261648 0.215518 -0.00875855)
(-0.218052 0.23288 -0.000876967)
(-0.188256 0.210937 -0.0027422)
(-0.216673 0.190221 0.00891468)
(-0.253116 0.169452 0.0168538)
(-0.301533 0.146663 0.0214025)
(-0.345432 0.123951 0.0318029)
(-0.390819 0.0913751 0.0446607)
(-0.430112 0.0562774 0.0450019)
(-0.453529 0.0251046 0.0658625)
(-0.474663 -0.0124427 0.04823)
(-0.479946 -0.0505317 0.0336683)
(-0.46378 -0.0713573 0.011157)
(-0.421958 -0.0599758 0.00385919)
(-0.374105 -0.0144281 0.00707215)
(-0.287676 0.0690962 -0.00370676)
(-0.155974 0.126717 -0.031789)
(-0.0414155 0.140866 -0.0148418)
(0.00512696 0.088606 -0.0039575)
(0.0104248 0.111072 -0.0110659)
(0.0822869 0.253896 -0.0406568)
(0.177897 0.324629 -0.0413964)
(0.234611 0.351727 -0.0225635)
(0.260518 0.366428 -0.00444266)
(0.261559 0.379223 0.00516276)
(0.244869 0.391807 0.0111968)
(0.223027 0.400792 0.0142543)
(0.203561 0.406539 0.0173061)
(0.18167 0.401761 0.0215508)
(0.1589 0.387886 0.0262151)
(0.128165 0.364671 0.0379464)
(0.0945864 0.333635 0.0391664)
(0.0580831 0.301598 0.0464906)
(0.0248862 0.269468 0.0456868)
(-0.00505839 0.237508 0.0313776)
(-0.0445774 0.221781 0.0178685)
(-0.0799434 0.207739 0.00981807)
(-0.116626 0.203532 0.00238128)
(-0.156993 0.196932 -0.00214703)
(-0.195744 0.19582 -0.00584038)
(-0.209394 0.196967 -0.00421018)
(-0.17476 0.223269 -0.000834843)
(-0.162367 0.191901 -0.00141664)
(-0.186691 0.164848 0.00510046)
(-0.218975 0.135433 0.0127387)
(-0.262539 0.112532 0.0154041)
(-0.3061 0.0834391 0.0336642)
(-0.354781 0.0523835 0.0403531)
(-0.391494 0.0230887 0.0631717)
(-0.436863 -0.0174914 0.0470576)
(-0.478632 -0.0700533 0.0383498)
(-0.495078 -0.115892 0.0233285)
(-0.481606 -0.148637 0.0119873)
(-0.439795 -0.151062 -0.00857739)
(-0.379173 -0.111552 -0.00737577)
(-0.294717 -0.011787 -0.000896693)
(-0.173144 0.0830504 -0.0177039)
(-0.0464327 0.1251 -0.0205812)
(0.00658151 0.0877769 -0.00246118)
(0.00933792 0.121362 -0.00864503)
(0.0817048 0.278361 -0.0396893)
(0.178634 0.353926 -0.0425546)
(0.241738 0.378387 -0.023314)
(0.274771 0.385441 -0.00285329)
(0.281328 0.385462 0.0112108)
(0.270465 0.388224 0.0208171)
(0.253841 0.39097 0.0233966)
(0.236509 0.39079 0.0258778)
(0.213803 0.381442 0.0281038)
(0.18828 0.364797 0.0295151)
(0.158062 0.336929 0.0282704)
(0.122348 0.307693 0.0279505)
(0.0849563 0.272531 0.0299532)
(0.0454897 0.246733 0.0349868)
(0.0147619 0.217717 0.0263609)
(-0.0182331 0.198466 0.012518)
(-0.0535095 0.188892 0.00698819)
(-0.085646 0.183728 0.000433074)
(-0.123181 0.176138 -0.00185374)
(-0.151196 0.174305 -0.00285206)
(-0.146948 0.19377 0.0019504)
(-0.129337 0.200019 0.000303316)
(-0.142875 0.168182 0.000888619)
(-0.160948 0.137308 0.00469596)
(-0.184531 0.103917 0.00881407)
(-0.222505 0.0774783 0.0211734)
(-0.265193 0.0464432 0.0292112)
(-0.303997 0.0199816 0.0484894)
(-0.354999 -0.0165427 0.0423995)
(-0.413143 -0.0694896 0.0395012)
(-0.460874 -0.121312 0.0291429)
(-0.490837 -0.173265 0.0178585)
(-0.492925 -0.214705 0.00199073)
(-0.457893 -0.233889 -0.0140396)
(-0.390592 -0.204567 -0.0214184)
(-0.301016 -0.115375 -0.0189845)
(-0.184117 0.027216 0.00139487)
(-0.0550284 0.10461 -0.0273701)
(0.00535489 0.0905305 -0.00380182)
(0.00704238 0.102531 -0.00932645)
(0.0755518 0.27297 -0.0401351)
(0.172906 0.354646 -0.0420998)
(0.240756 0.380005 -0.0228683)
(0.280955 0.381985 0.0005623)
(0.295517 0.378038 0.0149589)
(0.292152 0.375962 0.0212759)
(0.277541 0.371042 0.0250022)
(0.25992 0.36315 0.0271322)
(0.238877 0.351355 0.0278566)
(0.213667 0.332237 0.0271744)
(0.181548 0.30883 0.0245451)
(0.14374 0.278839 0.0200633)
(0.105513 0.249709 0.0129684)
(0.0681803 0.223069 0.0173928)
(0.0330908 0.206418 0.0149143)
(0.00503647 0.185641 0.00910665)
(-0.0201886 0.176625 0.00320498)
(-0.0539112 0.165807 -0.00199116)
(-0.0855218 0.163441 -0.000916527)
(-0.090421 0.172169 0.00237609)
(-0.0909429 0.183076 0.00358556)
(-0.101606 0.168307 0.00380433)
(-0.120097 0.140847 0.00436844)
(-0.139205 0.115718 0.00447284)
(-0.158157 0.0794034 0.00757738)
(-0.188563 0.0509555 0.0148563)
(-0.220075 0.0196268 0.0313376)
(-0.263336 -0.0115226 0.0328977)
(-0.31832 -0.059876 0.0353424)
(-0.374308 -0.108646 0.0310893)
(-0.427673 -0.16611 0.0263495)
(-0.466096 -0.225025 0.0158083)
(-0.482039 -0.280406 0.00207908)
(-0.45981 -0.313858 -0.0156177)
(-0.399948 -0.303656 -0.0280798)
(-0.294935 -0.225292 -0.0317006)
(-0.185157 -0.0718377 -0.0190894)
(-0.0637774 0.0597302 -0.0194948)
(0.00677619 0.0803908 -0.00758532)
(0.00820031 0.108305 -0.00301412)
(0.0756241 0.2854 -0.0335884)
(0.171757 0.370883 -0.0385506)
(0.245787 0.393669 -0.0182365)
(0.295521 0.389711 0.00679688)
(0.319009 0.37676 0.0153679)
(0.317718 0.367444 0.0235091)
(0.303601 0.356776 0.0251711)
(0.288638 0.348076 0.024217)
(0.267746 0.333187 0.0214988)
(0.243784 0.313102 0.0183371)
(0.21188 0.286749 0.0136863)
(0.172485 0.258935 0.00969365)
(0.132827 0.230042 0.00627873)
(0.0962617 0.20789 0.00365788)
(0.0622871 0.192366 0.00488605)
(0.0311154 0.182076 0.00166466)
(0.00482255 0.176975 -0.000337116)
(-0.0178622 0.169291 -0.000521961)
(-0.0317054 0.171395 0.000990764)
(-0.0426667 0.173652 0.00380921)
(-0.0587804 0.158778 0.00620074)
(-0.0762778 0.140767 0.00717292)
(-0.0968339 0.116588 0.00704654)
(-0.11895 0.0947487 0.00825827)
(-0.137755 0.0624567 0.00729724)
(-0.160168 0.0295981 0.0170838)
(-0.192762 -0.00268591 0.0195507)
(-0.233793 -0.0443501 0.023223)
(-0.284337 -0.0867769 0.0240397)
(-0.338789 -0.135111 0.0253078)
(-0.391551 -0.192149 0.0227721)
(-0.434448 -0.254802 0.0165543)
(-0.459688 -0.320805 0.0042511)
(-0.449835 -0.370559 -0.0124351)
(-0.399957 -0.38483 -0.0293923)
(-0.305338 -0.321556 -0.0422217)
(-0.190054 -0.175593 -0.0318477)
(-0.0612506 0.0146848 -0.00955008)
(0.00628428 0.0759081 -0.0129993)
(-0.00193605 0.0811987 -0.0150968)
(0.0546619 0.266317 -0.0404261)
(0.15253 0.362423 -0.0463553)
(0.234391 0.38791 -0.0259868)
(0.29384 0.386647 -0.00375538)
(0.329298 0.367171 0.00993498)
(0.339923 0.350682 0.0158554)
(0.330459 0.331961 0.0164536)
(0.314344 0.318663 0.0145598)
(0.291137 0.309206 0.0108871)
(0.264074 0.299092 0.00773002)
(0.230764 0.284538 0.00488305)
(0.191078 0.265223 0.00211471)
(0.153333 0.24528 0.000739037)
(0.121537 0.225374 0.00051287)
(0.0914994 0.215 0.00363295)
(0.0702833 0.212156 -0.00205161)
(0.0477064 0.209578 -0.00290645)
(0.0229846 0.200845 -0.00125646)
(0.00341583 0.18986 0.00227926)
(-0.0168844 0.167198 0.00608575)
(-0.0366194 0.144312 0.0086824)
(-0.056155 0.121139 0.00929983)
(-0.0767754 0.0978705 0.0102639)
(-0.100418 0.0756519 0.0104661)
(-0.123992 0.0517374 0.00742307)
(-0.144558 0.0170468 0.00596589)
(-0.172126 -0.0178591 0.00828849)
(-0.207848 -0.0594465 0.0107873)
(-0.249129 -0.107136 0.0141252)
(-0.296526 -0.159005 0.0157208)
(-0.346486 -0.222716 0.0155915)
(-0.391486 -0.293044 0.0113672)
(-0.423571 -0.371263 0.00196196)
(-0.426854 -0.437105 -0.0133747)
(-0.387355 -0.470518 -0.0300403)
(-0.29784 -0.426581 -0.0550229)
(-0.185741 -0.295327 -0.04837)
(-0.058559 -0.0660561 -0.0149942)
(0.00492354 0.0572496 -0.00298454)
(-0.00237159 0.146751 -0.00484051)
(0.0511329 0.347132 -0.0194251)
(0.142936 0.446176 -0.0307348)
(0.228411 0.467527 -0.0112381)
(0.296741 0.455885 -0.00390673)
(0.337631 0.423203 0.012333)
(0.352663 0.386769 0.0153828)
(0.347815 0.372738 0.0180623)
(0.346369 0.382429 0.0149662)
(0.334501 0.389017 0.0105337)
(0.31127 0.387044 0.00476446)
(0.274645 0.374438 0.000169388)
(0.231193 0.350744 -0.00324148)
(0.187428 0.323566 -0.00424611)
(0.154458 0.29518 -0.0027032)
(0.132595 0.271626 0.000307004)
(0.106678 0.254218 0.00144288)
(0.0738894 0.234739 -0.00664736)
(0.0437061 0.216024 -0.00316828)
(0.0164175 0.189418 -0.00174099)
(-0.00691074 0.163168 0.00599485)
(-0.0244201 0.133529 0.00815325)
(-0.0427763 0.109223 0.00962711)
(-0.0616602 0.0842163 0.0111475)
(-0.08169 0.0616032 0.00862522)
(-0.107835 0.039563 0.00594647)
(-0.13268 0.0122637 0.00360827)
(-0.159764 -0.0232466 -0.00202785)
(-0.196721 -0.0610615 -0.001257)
(-0.235281 -0.104464 0.00172525)
(-0.277817 -0.15059 0.00654587)
(-0.321323 -0.210953 0.0101504)
(-0.362777 -0.281124 0.0110338)
(-0.395748 -0.366564 0.00514543)
(-0.40259 -0.449191 -0.00854438)
(-0.372273 -0.516174 -0.0294569)
(-0.303972 -0.517164 -0.0611986)
(-0.190838 -0.391647 -0.0590456)
(-0.051803 -0.176254 -0.0342745)
(0.0075577 0.0237457 -0.00409773)
(-0.0179696 0.230173 -0.0242681)
(0.0199382 0.469786 -0.0421022)
(0.110678 0.579218 -0.0504575)
(0.196532 0.617754 -0.0349557)
(0.268777 0.60773 -0.0235746)
(0.317688 0.576594 -0.00630265)
(0.362847 0.530713 0.00259709)
(0.404531 0.505116 0.00318713)
(0.411511 0.499153 -0.00389949)
(0.380184 0.483735 -0.00870469)
(0.338413 0.460699 -0.0112445)
(0.286874 0.429849 -0.0119918)
(0.234015 0.392492 -0.0116286)
(0.189998 0.353104 -0.0100449)
(0.157712 0.317897 -0.00758541)
(0.13412 0.281961 -0.00308772)
(0.114727 0.249907 0.00142109)
(0.0897122 0.221583 0.00329535)
(0.0564952 0.202772 -0.00241049)
(0.028445 0.175386 0.000458654)
(0.0034445 0.152294 0.00387816)
(-0.0159876 0.120879 0.00812095)
(-0.0316797 0.0963237 0.00920549)
(-0.0502884 0.0712467 0.0113467)
(-0.0686916 0.0459823 0.00628767)
(-0.0924849 0.0199766 0.00806651)
(-0.119269 -0.00107396 0.00683585)
(-0.145919 -0.0282358 0.00339927)
(-0.172927 -0.0589351 -0.00190706)
(-0.199732 -0.105546 -0.00691096)
(-0.235447 -0.161207 -0.0110962)
(-0.274996 -0.235432 -0.0138305)
(-0.314368 -0.317798 -0.0158851)
(-0.351328 -0.419924 -0.019357)
(-0.37801 -0.518108 -0.0278133)
(-0.377186 -0.616611 -0.0451459)
(-0.306881 -0.644159 -0.0681733)
(-0.22635 -0.54109 -0.0825915)
(-0.0883669 -0.257098 -0.0404137)
(0.0141729 0.0128075 -0.00278483)
(0.000586044 0.20503 0.000450048)
(0.0393539 0.449397 -0.0370221)
(0.114949 0.574993 -0.0496968)
(0.201282 0.63246 -0.0457644)
(0.273149 0.638164 -0.0371626)
(0.323334 0.620053 -0.0262433)
(0.363208 0.584271 -0.0195035)
(0.399595 0.540145 -0.00927226)
(0.408793 0.498325 -0.0109832)
(0.38095 0.462933 -0.0101913)
(0.343749 0.429935 -0.00971218)
(0.295094 0.397834 -0.00757888)
(0.244286 0.361377 -0.00548256)
(0.202077 0.328592 -0.00258242)
(0.170535 0.296812 -0.00112045)
(0.148895 0.265885 0.00168977)
(0.127531 0.234156 0.00435155)
(0.10585 0.203466 0.00745862)
(0.0744078 0.182885 0.00885231)
(0.0402558 0.162038 0.00189653)
(0.0107947 0.137509 0.00479109)
(-0.00984704 0.109751 0.00837792)
(-0.0228017 0.0843449 0.00994922)
(-0.042141 0.0569296 0.0103737)
(-0.0611822 0.0318788 0.00721347)
(-0.079478 0.00522262 0.0102028)
(-0.0992254 -0.0135708 0.0108678)
(-0.126235 -0.0340201 0.00687096)
(-0.167736 -0.0534123 0.0035259)
(-0.208945 -0.0893107 0.00448764)
(-0.248602 -0.135726 0.0067002)
(-0.281845 -0.205893 0.00689707)
(-0.310556 -0.296274 0.00428602)
(-0.327682 -0.43292 -0.00544164)
(-0.342411 -0.581584 -0.0150884)
(-0.339095 -0.722717 -0.0262431)
(-0.285665 -0.795521 -0.0498005)
(-0.175042 -0.761405 -0.0644026)
(-0.0541132 -0.469353 -0.068334)
(0.000457062 -0.102081 0.00755195)
(0.000675872 0.218791 -0.00210003)
(0.0376391 0.43819 -0.0331064)
(0.106189 0.561862 -0.044103)
(0.185409 0.618331 -0.0422811)
(0.255856 0.62499 -0.0272531)
(0.309723 0.603568 -0.021625)
(0.354928 0.566369 -0.0127408)
(0.39632 0.525022 -0.00516156)
(0.411913 0.481441 -0.00546112)
(0.389734 0.448659 -0.00441873)
(0.352093 0.417661 -0.0035174)
(0.299943 0.382869 -0.00174477)
(0.249197 0.346881 0.000562283)
(0.21116 0.313744 0.00218756)
(0.180325 0.283058 0.0034076)
(0.155454 0.250959 0.00549016)
(0.133953 0.21816 0.00812748)
(0.117187 0.182599 0.0117059)
(0.0906257 0.15711 0.0122709)
(0.0556353 0.137238 0.0125541)
(0.0211205 0.118183 0.0071599)
(-0.00101923 0.0929517 0.0089723)
(-0.0171733 0.0660078 0.0113051)
(-0.0351741 0.0403022 0.0100765)
(-0.0513318 0.0166819 0.00917759)
(-0.0658563 -0.00649024 0.0113577)
(-0.0811617 -0.0271236 0.0114995)
(-0.100033 -0.0506154 0.0109507)
(-0.129714 -0.0671362 0.0077129)
(-0.164065 -0.0847264 0.00510676)
(-0.205008 -0.104124 0.00483487)
(-0.24995 -0.148044 0.00594927)
(-0.312212 -0.209153 0.00955936)
(-0.365485 -0.319059 0.0152139)
(-0.381154 -0.452449 0.0138654)
(-0.372443 -0.613446 0.0076213)
(-0.327452 -0.734752 -0.00713384)
(-0.227366 -0.761791 -0.030605)
(-0.0629475 -0.547449 -0.0428387)
(0.0228084 -0.11628 -0.0184271)
(0.00687691 0.196217 -0.00255629)
(0.0458054 0.395317 -0.0268171)
(0.107989 0.527134 -0.0366821)
(0.18396 0.58893 -0.0359513)
(0.251452 0.606176 -0.0240271)
(0.303621 0.589415 -0.0156137)
(0.350174 0.553656 -0.00689745)
(0.389086 0.510983 -0.000385813)
(0.407909 0.459827 -0.000694105)
(0.393599 0.421292 -0.000315848)
(0.355113 0.38456 0.000413992)
(0.303728 0.346871 0.00335842)
(0.257377 0.313663 0.00540477)
(0.222472 0.282663 0.00689675)
(0.192557 0.253239 0.00725658)
(0.16825 0.223127 0.00858086)
(0.141686 0.193402 0.010423)
(0.124397 0.158505 0.0143301)
(0.105035 0.126411 0.0185084)
(0.0736583 0.106667 0.0172592)
(0.0358456 0.0937175 0.0162485)
(0.00544445 0.0719038 0.0129061)
(-0.00888017 0.0478116 0.015638)
(-0.0246374 0.0243078 0.0124469)
(-0.0398748 0.00343378 0.0117762)
(-0.0528451 -0.0169279 0.0114262)
(-0.068825 -0.0370927 0.0110383)