/*--------------------------------*- C++ -*----------------------------------*\
| =========                 |                                                 |
| \\      /  F ield         | OpenFOAM: The Open Source CFD Toolbox           |
|  \\    /   O peration     | Version:  v1806                                 |
|   \\  /    A nd           | Web:      www.OpenFOAM.com                      |
|    \\/     M anipulation  |                                                 |
\*---------------------------------------------------------------------------*/
FoamFile
{
    version     2.0;
    format      ascii;
    class       surfaceScalarField;
    location    "0.118";
    object      phi;
}
// * * * * * * * * * * * * * * * * * * * * * * * * * * * * * * * * * * * * * //

dimensions      [0 3 -1 0 0 0 0];
oriented        oriented;


internalField   nonuniform List<scalar> 
187200
(
8.36206e-06
1.76179e-06
-1.0128e-05
6.2117e-05
-2.76603e-05
-2.60942e-05
8.62182e-05
-1.19998e-05
-1.21006e-05
0.000105874
-1.0095e-05
-9.56096e-06
0.00012232
-7.11376e-06
-9.33158e-06
0.000140829
-7.13162e-06
-1.13771e-05
0.000158536
-3.99178e-06
-1.37151e-05
0.000177843
-2.4164e-06
-1.68901e-05
0.000195957
3.29691e-07
-1.84429e-05
0.000210227
4.92807e-06
-1.91973e-05
0.000224023
3.99207e-06
-1.7788e-05
0.000239749
5.88643e-06
-2.16113e-05
0.000243629
1.22271e-05
-1.6107e-05
0.000227775
2.45374e-05
-8.68315e-06
0.000190482
3.68266e-05
4.66242e-07
0.000157738
2.67034e-05
6.04051e-06
0.000113989
2.31416e-05
2.06073e-05
6.69896e-05
3.29307e-05
1.40693e-05
-2.44557e-05
9.01401e-05
1.30569e-06
-0.000172907
0.00013957
8.88135e-06
-0.00044699
0.000230525
4.35594e-05
-0.000644865
0.000235377
-3.75019e-05
-0.000799004
0.000282997
-0.000128858
-0.000849992
0.000303689
-0.000252702
-0.00084147
0.000334767
-0.000343289
-0.000775848
0.000363658
-0.000429281
-0.000668789
0.000390288
-0.000497346
-0.000529943
0.000406463
-0.000545309
-0.000363201
0.000400819
-0.000567561
-0.000193829
0.000383889
-0.000553261
-6.19912e-05
0.000346911
-0.00047875
2.40311e-05
0.000299062
-0.000385084
5.82405e-05
0.000236697
-0.000270906
5.19684e-05
0.000173219
-0.000166947
2.75341e-05
0.000119391
-9.49563e-05
5.86884e-06
7.95617e-05
-5.78964e-05
-6.11725e-06
5.38391e-05
-4.18526e-05
-1.07586e-05
4.0826e-05
-3.61845e-05
-9.85275e-06
3.08798e-05
-3.17848e-05
2.11688e-05
-3.10206e-05
2.43752e-06
2.06954e-05
-2.13708e-05
4.74914e-05
-3.49278e-05
-3.77851e-05
9.18404e-05
-2.65992e-05
-2.97488e-05
0.000124766
-1.66837e-05
-2.63363e-05
0.00014945
-7.16558e-06
-2.46325e-05
0.000168628
2.14346e-06
-2.84525e-05
0.000180326
1.81092e-05
-3.37977e-05
0.000187827
2.95818e-05
-3.94981e-05
0.000183091
5.40155e-05
-4.89488e-05
0.000173898
7.05969e-05
-5.64755e-05
0.000139126
0.000110115
-7.13504e-05
8.40153e-05
0.000151561
-9.05625e-05
6.94413e-07
0.00019282
-9.72716e-05
-9.49414e-05
0.000226734
-0.000106561
-0.000206438
0.000280839
-0.000132516
-0.000362547
0.000349607
-0.000166794
-0.000526989
0.000430403
-0.000242818
-0.000700809
0.000509817
-0.000303063
-0.00086131
0.00062042
-0.000369778
-0.00102946
0.000732592
-0.000424867
-0.00120128
0.000859239
-0.000456898
-0.00131
0.000940077
-0.000595983
-0.00139129
0.00104492
-0.000680626
-0.00139485
0.00108267
-0.000775422
-0.0013242
0.00112694
-0.000862816
-0.00118878
0.00115041
-0.000922167
-0.00100272
0.001159
-0.000954774
-0.000780035
0.00113672
-0.000952938
-0.000547649
0.00108021
-0.000911774
-0.00032446
0.0009993
-0.000838599
-0.000130129
0.000872368
-0.000719787
2.91887e-05
0.000726707
-0.000586963
0.000115293
0.000574989
-0.000424395
0.00014144
0.000443991
-0.00029692
0.00012882
0.000325824
-0.000193813
9.93421e-05
0.000240459
-0.00013142
6.60459e-05
0.000180241
-9.31047e-05
3.95561e-05
0.00014071
-7.33922e-05
1.47578e-05
0.000111303
-5.56242e-05
7.65851e-05
-4.06575e-05
1.91645e-05
1.466e-05
-1.31281e-05
5.99509e-05
-3.89028e-05
-3.68096e-05
0.000102689
-2.81817e-05
-4.1155e-05
0.000134805
-6.9757e-06
-4.18239e-05
0.00015308
2.17311e-05
-4.71717e-05
0.000161588
4.98415e-05
-5.62048e-05
0.000154754
8.94153e-05
-6.44721e-05
0.000142422
0.000123546
-8.16312e-05
0.000119775
0.000182194
-0.000105531
7.05055e-05
0.000247702
-0.000127835
-1.1341e-05
0.000331977
-0.000140014
-0.000109347
0.000409396
-0.000159828
-0.000247291
0.000510755
-0.00017999
-0.000418068
0.000617074
-0.000219562
-0.000605276
0.000727925
-0.000259877
-0.000780504
0.000837061
-0.000312226
-0.000928161
0.000950461
-0.000372402
-0.00105622
0.00106869
-0.000430819
-0.0011817
0.00122546
-0.000479557
-0.00132159
0.00138608
-0.0005136
-0.00146498
0.00152198
-0.000519346
-0.00154391
0.00161913
-0.00060012
-0.00158503
0.00171849
-0.000632451
-0.00156489
0.00173142
-0.000668885
-0.00148246
0.00175449
-0.000709993
-0.00134998
0.0017408
-0.000722864
-0.00118063
0.00170224
-0.000712587
-0.000985618
0.00161987
-0.000678166
-0.000778118
0.00150175
-0.000629045
-0.000562412
0.00134922
-0.000565625
-0.000379063
0.00117178
-0.000482757
-0.000222323
0.000985961
-0.000415993
-9.95747e-05
0.000782707
-0.000330467
-1.47068e-05
0.00062063
-0.000261507
2.7302e-05
0.000475428
-0.000191613
4.30001e-05
0.000369893
-0.000145132
4.39408e-05
0.000294141
-0.00011484
3.38893e-05
0.000245039
-9.42766e-05
1.51193e-05
0.000197151
-6.70782e-05
0.000132199
-4.04943e-05
2.25947e-05
9.68275e-06
-1.76165e-05
6.1256e-05
-2.93474e-05
-4.82153e-05
0.000100483
-8.14289e-06
-5.92656e-05
0.000123114
3.61087e-05
-6.57153e-05
0.000129042
8.67539e-05
-7.09502e-05
0.000121652
0.000141077
-8.38452e-05
0.000105278
0.000214797
-0.000109008
7.44488e-05
0.000288606
-0.000134231
2.29964e-05
0.000399748
-0.000166101
-5.35344e-05
0.000509009
-0.000184776
-0.000155538
0.000637813
-0.000203832
-0.000298129
0.000770756
-0.000218768
-0.000451879
0.000903485
-0.00023898
-0.000600382
0.00102066
-0.000255086
-0.000739237
0.0011458
-0.000279019
-0.000866564
0.00127249
-0.000308106
-0.000981553
0.0014063
-0.000340851
-0.0010815
0.00152606
-0.000357425
-0.0011855
0.00169089
-0.000361429
-0.00130216
0.00183269
-0.000329953
-0.00144105
0.0019238
-0.000262937
-0.00151316
0.00197818
-0.000286938
-0.00155222
0.0020312
-0.000273662
-0.00153764
0.0019864
-0.000269555
-0.00147394
0.00196829
-0.000277492
-0.00137774
0.00191101
-0.000266414
-0.00125786
0.00183053
-0.000248174
-0.00112071
0.00171091
-0.000228196
-0.000972448
0.00155697
-0.00020348
-0.000809605
0.0013857
-0.000199326
-0.000632261
0.00119255
-0.000198117
-0.000455754
0.00100814
-0.000198686
-0.000299779
0.000820122
-0.00019339
-0.000172033
0.000679992
-0.000187108
-8.35811e-05
0.000554077
-0.000167102
-2.63885e-05
0.000457428
-0.000144727
9.58511e-06
0.000388451
-0.000130283
2.09611e-05
0.000337939
-0.000104275
1.6114e-05
0.000275613
-7.36152e-05
0.000185769
-3.74563e-05
2.25518e-05
2.08756e-05
-3.37438e-05
6.15115e-05
5.12845e-06
-7.34345e-05
0.000104482
4.06293e-05
-9.17425e-05
0.000122149
0.000114446
-9.60041e-05
0.00011714
0.000197476
-0.000105714
9.0606e-05
0.000289048
-0.000121437
5.59564e-05
0.000402758
-0.000153311
1.559e-05
0.000511206
-0.000182233
-2.75558e-05
0.000652322
-0.000209428
-9.4728e-05
0.000796849
-0.000220667
-0.000181862
0.000950556
-0.000225608
-0.000279209
0.00109151
-0.00022341
-0.000384538
0.00122775
-0.000218933
-0.000509859
0.0013612
-0.000215216
-0.0006348
0.00148484
-0.000214097
-0.000748517
0.00159773
-0.000211524
-0.000840706
0.00170149
-0.000202994
-0.000913285
0.00177216
-0.000173523
-0.000999098
0.00187019
-9.34852e-05
-0.00110781
0.0019483
-6.89357e-06
-0.00126571
0.00197649
0.000105209
-0.00134545
0.00194317
0.000114759
-0.00140305
0.00195592
0.000132876
-0.00141897
0.00187877
0.000123542
-0.00140122
0.00184643
0.000104114
-0.0013625
0.00177958
9.27002e-05
-0.00130494
0.0016963
7.66665e-05
-0.00124085
0.00158418
6.26338e-05
-0.00114948
0.00144675
1.88527e-05
-0.00103186
0.00129517
-2.70831e-05
-0.000885217
0.00112621
-8.0297e-05
-0.000716678
0.000970639
-0.000131037
-0.000543096
0.000810163
-0.000163624
-0.000376345
0.000691664
-0.000178424
-0.000238635
0.00059753
-0.000181162
-0.000126271
0.000509108
-0.000164043
-4.67138e-05
0.000452335
-0.000143442
7.1626e-08
0.000408205
-0.000117052
1.2346e-05
0.000340341
-7.70037e-05
0.000230424
-3.23108e-05
1.56861e-05
6.7459e-05
-6.22689e-05
6.31042e-05
7.3886e-05
-0.000116175
0.000106278
0.000135385
-0.000137928
0.00012287
0.000235782
-0.000137928
0.000113702
0.0003447
-0.000138055
8.18146e-05
0.000471708
-0.000150773
5.70208e-05
0.00061494
-0.000187388
2.99567e-05
0.000758539
-0.000220269
-8.3817e-06
0.000925433
-0.000234772
-6.5813e-05
0.00107806
-0.000223784
-0.000131223
0.00122258
-0.000206611
-0.000204492
0.00134913
-0.000184344
-0.000283883
0.00146688
-0.000159743
-0.000358376
0.00156617
-0.000130472
-0.000429318
0.00165215
-9.63743e-05
-0.000486586
0.00171433
-5.93282e-05
-0.000549468
0.00175845
5.9171e-06
-0.000632471
0.00177622
7.89449e-05
-0.000732072
0.00180327
0.000166521
-0.000843046
0.0017827
0.000276575
-0.00101079
0.00179898
0.000345255
-0.00111816
0.00169872
0.000351818
-0.00121262
0.00169894
0.000351443
-0.0012776
0.00160691
0.000336848
-0.00131276
0.00157221
0.000309382
-0.0013317
0.00151238
0.000286145
-0.00133569
0.00144877
0.000251521
-0.0013274
0.00136505
0.000210842
-0.00129313
0.00126296
0.000149527
-0.00120998
0.00115437
5.76471e-05
-0.00109557
0.00103129
-1.94964e-05
-0.000930781
0.000913565
-0.000107713
-0.00074971
0.000795432
-0.000166341
-0.00055186
0.00069796
-0.000204147
-0.000369981
0.000627859
-0.000212206
-0.000219904
0.000550103
-0.00019107
-0.000101336
0.000502559
-0.000168789
-2.38373e-05
0.00046232
-0.000131613
8.27319e-06
0.000391702
-8.34705e-05
0.000269421
-3.07244e-05
1.65699e-05
0.000146037
-9.51472e-05
7.80781e-05
0.000181131
-0.000168753
0.000128799
0.000270555
-0.000185891
0.000150173
0.000392464
-0.000178056
0.000142048
0.000528179
-0.000175353
0.000102692
0.000692435
-0.000181371
9.3907e-05
0.000843558
-0.000219832
7.45799e-05
0.00100673
-0.000228864
6.04468e-05
0.00115801
-0.000218447
2.81328e-05
0.00129607
-0.000185697
-1.38845e-05
0.00141617
-0.000151582
-6.98226e-05
0.00151826
-0.000113197
-0.00013076
0.00159998
-7.21651e-05
-0.000189389
0.00165393
-2.91394e-05
-0.000250248
0.0016843
2.87118e-05
-0.000299536
0.00168109
8.25247e-05
-0.000356292
0.00167038
0.000144825
-0.000408276
0.00161683
0.000211374
-0.000502906
0.00159334
0.000304567
-0.000597932
0.00149106
0.000386667
-0.000770841
0.00150996
0.000461933
-0.000910904
0.00136831
0.000470474
-0.00102528
0.00136221
0.000451098
-0.00114048
0.00129805
0.000424056
-0.0012279
0.00128009
0.000379536
-0.00130338
0.00124638
0.000341481
-0.00136246
0.00121676
0.00029109
-0.00140258
0.00116876
0.000236414
-0.00141638
0.00111168
0.000165079
-0.00136769
0.00104569
5.99944e-05
-0.00128173
0.000960958
-1.56245e-05
-0.00113758
0.000869466
-0.000100057
-0.000946957
0.000779186
-0.000174376
-0.000720497
0.000686279
-0.000214778
-0.000485585
0.000640624
-0.000247676
-0.000305155
0.000592143
-0.000222469
-0.000148574
0.000546223
-0.000200243
-4.66586e-05
0.000512775
-0.00015237
4.06639e-06
0.000437993
-9.70134e-05
0.000306266
-3.27775e-05
2.49704e-05
0.000249747
-0.00012868
0.000102382
0.000320288
-0.000216569
0.000164818
0.000435836
-0.000227717
0.000189842
0.000570569
-0.000203128
0.000180712
0.000721033
-0.000183725
0.000169718
0.000893098
-0.000189668
0.000182341
0.0010423
-0.00021136
0.000185931
0.00120518
-0.000202042
0.000179982
0.00133569
-0.000171723
0.000148406
0.0014543
-0.000126651
0.000109018
0.00154362
-8.80586e-05
6.24805e-05
0.00160831
-4.35087e-05
1.22627e-05
0.00164183
8.37047e-06
-4.17234e-05
0.00163831
6.96102e-05
-9.19739e-05
0.00161156
0.000122995
-0.000144504
0.00155084
0.000182782
-0.000199424
0.00148567
0.000239629
-0.000253433
0.00138495
0.000285895
-0.000325176
0.00132821
0.000336871
-0.000431871
0.0011973
0.000400454
-0.000573878
0.00120458
0.000447379
-0.000749365
0.00108618
0.00045762
-0.000884226
0.00106897
0.0004281
-0.00104195
0.00105261
0.000403162
-0.00117103
0.00104841
0.000360757
-0.00128415
0.00103956
0.000319932
-0.00138232
0.00103542
0.000279518
-0.0014599
0.00101484
0.000231493
-0.00150178
0.00099333
0.000160227
-0.00148708
0.000946225
8.47639e-05
-0.00142556
0.000883947
1.54921e-05
-0.00130212
0.000808546
-6.25166e-05
-0.00110966
0.000738212
-0.000151493
-0.000884482
0.000670266
-0.000209159
-0.000625881
0.000626475
-0.000244452
-0.000398244
0.000617249
-0.000252743
-0.000204817
0.000574838
-0.000222043
-7.25677e-05
0.000554764
-0.000174239
-2.96804e-06
0.000477631
-0.000109236
0.00034004
-3.67397e-05
4.14534e-05
0.000366352
-0.000158058
0.00014321
0.000476547
-0.000258016
0.000232942
0.000613117
-0.000267013
0.000273879
0.000753606
-0.000223974
0.00027014
0.00091677
-0.000191997
0.000273169
0.00107453
-0.00018446
0.000277645
0.00121733
-0.000179509
0.000287059
0.00135382
-0.000158052
0.000285757
0.00146148
-0.000124493
0.000264696
0.00155261
-7.72521e-05
0.000227624
0.00160249
-2.17936e-05
0.000185581
0.00162002
3.03321e-05
0.000131542
0.00160663
8.92388e-05
7.52077e-05
0.00155833
0.000136321
2.0304e-05
0.00148309
0.000183378
-3.65629e-05
0.00138184
0.000225865
-9.51609e-05
0.00128341
0.000260858
-0.000162233
0.00116713
0.000284889
-0.000226552
0.00108842
0.000304108
-0.000342721
0.000975978
0.000337492
-0.000455825
0.000955635
0.000362052
-0.000645047
0.000893542
0.000381858
-0.000806297
0.000866731
0.000363492
-0.000980268
0.00088154
0.000345043
-0.00113319
0.000884056
0.000317279
-0.00126785
0.000893386
0.000280835
-0.00139223
0.00089907
0.000260723
-0.00149377
0.00090041
0.000215966
-0.00156864
0.000883846
0.000184351
-0.00159127
0.000844423
0.000124436
-0.00154803
0.000791123
4.95825e-05
-0.00144003
0.000732095
-3.15449e-05
-0.00125298
0.000670873
-0.000119722
-0.00101424
0.000618506
-0.000186979
-0.000737092
0.000581441
-0.00023211
-0.000478691
0.000605754
-0.000246905
-0.000257744
0.000593944
-0.000240054
-9.50518e-05
0.000583266
-0.000191196
-1.13372e-05
0.000516365
-0.00012245
0.000371723
-4.30175e-05
5.99449e-05
0.000480652
-0.000174246
0.000186627
0.000638884
-0.000289021
0.000302713
0.000789933
-0.000292903
0.000356742
0.00093266
-0.000233084
0.000372117
0.00108198
-0.000180585
0.000375238
0.00122186
-0.000150452
0.000371309
0.0013528
-0.000131539
0.000374664
0.00145954
-0.000109074
0.000371141
0.00153706
-7.20541e-05
0.000362876
0.00158194
-2.10629e-05
0.000333341
0.00160427
2.7747e-05
0.000277541
0.00158655
8.92712e-05
0.000216769
0.00153015
0.000137251
0.00015536
0.00143857
0.000181161
9.20773e-05
0.0013329
0.000213471
2.75102e-05
0.00120933
0.000237079
-3.6269e-05
0.00109759
0.000249598
-0.000108119
0.000985942
0.000253039
-0.000174714
0.000904739
0.000250277
-0.000292876
0.000827855
0.000266285
-0.00040431
0.000792168
0.000274901
-0.00058
0.000764992
0.00030424
-0.000757693
0.000740005
0.000304419
-0.000926366
0.00075457
0.000295643
-0.0010885
0.000759017
0.000287171
-0.0012302
0.000774364
0.000260722
-0.00137019
0.00078344
0.000255617
-0.00149681
0.000785791
0.000241237
-0.00159194
0.000764446
0.000214527
-0.00164127
0.00073131
0.000162451
-0.00162392
0.000690377
8.33876e-05
-0.00153575
0.000642052
1.87505e-06
-0.00136928
0.000593857
-8.94518e-05
-0.00113059
0.000554077
-0.000174258
-0.000851221
0.00051545
-0.000213382
-0.000555535
0.000544022
-0.000233954
-0.000310682
0.000579749
-0.000230658
-0.000122212
0.000592909
-0.000198112
-2.06863e-05
0.000542949
-0.000128113
0.000398513
-4.74755e-05
7.61647e-05
0.000583377
-0.000178891
0.000232186
0.000789332
-0.00030647
0.00037386
0.000953781
-0.000305523
0.000447514
0.0010916
-0.000232593
0.000478776
0.00121995
-0.000169226
0.000477909
0.00133798
-0.00011525
0.000473842
0.00144258
-8.5713e-05
0.000463072
0.00152079
-5.04745e-05
0.000442088
0.00157255
-1.45104e-05
0.000417392
0.00159076
1.58752e-05
0.000388424
0.00156712
6.61222e-05
0.000345727
0.00150887
0.000120372
0.000281059
0.0014282
0.000166624
0.000206742
0.00131242
0.000200476
0.000134239
0.00118365
0.000221755
6.24054e-05
0.00105384
0.000227333
-7.77696e-06
0.000943452
0.000224326
-8.3832e-05
0.000845983
0.000216014
-0.000158034
0.000773284
0.000205657
-0.000268003
0.000723097
0.000214727
-0.000380016
0.000684371
0.000219809
-0.000530857
0.000665169
0.000250663
-0.000704626
0.000649976
0.000263796
-0.000862445
0.000644182
0.000268207
-0.00102072
0.000647453
0.000269833
-0.00116888
0.000655204
0.000267325
-0.00131944
0.000667563
0.000266436
-0.0014632
0.000658304
0.000271237
-0.00158265
0.000641756
0.000242142
-0.00165769
0.000614242
0.000192111
-0.00167832
0.000574845
0.00013616
-0.00162088
0.000543977
4.06373e-05
-0.00147225
0.000505596
-6.03739e-05
-0.00122485
0.000477164
-0.000170482
-0.000929913
0.000444169
-0.000223658
-0.00062032
0.000472011
-0.000237584
-0.000355947
0.000532581
-0.000217205
-0.000143726
0.000587729
-0.00020704
-2.77731e-05
0.000559713
-0.000132719
0.00042459
-5.38528e-05
8.89589e-05
0.000668162
-0.000173744
0.000271245
0.000921622
-0.000314575
0.000436946
0.0010998
-0.00031172
0.000529168
0.00122523
-0.000225855
0.000571833
0.00132928
-0.000152003
0.00057519
0.00141898
-8.43619e-05
0.000566773
0.00149713
-4.61337e-05
0.000543027
0.00154841
-3.88416e-06
0.000508572
0.00157374
3.32695e-05
0.000464269
0.00155807
7.69979e-05
0.000413605
0.00151303
0.000104758
0.000358055
0.00142725
0.000137173
0.000301488
0.00131188
0.000172888
0.000230899
0.00118052
0.000202482
0.000156314
0.00104938
0.000208855
8.08347e-05
0.000922549
0.000206766
1.02414e-05
0.000819565
0.00019448
-6.48492e-05
0.000737181
0.000183893
-0.000143524
0.000675414
0.000176546
-0.000247699
0.000640138
0.000187135
-0.000354241
0.000597441
0.000193473
-0.000487888
0.000575923
0.000222893
-0.000637216
0.000558539
0.000240765
-0.000779156
0.000534266
0.000251854
-0.000925142
0.000531207
0.000262232
-0.00107044
0.000532431
0.000268074
-0.0012326
0.000532932
0.000296784
-0.0013874
0.000526322
0.000286783
-0.00152272
0.000516299
0.00026078
-0.00163096
0.00049855
0.00022393
-0.00167032
0.000485322
0.000128886
-0.00164549
0.000458834
6.03156e-05
-0.00153709
0.000420009
-2.2813e-05
-0.00133258
0.00039339
-0.000120741
-0.00103114
0.000372944
-0.000230214
-0.000691525
0.000393072
-0.000260679
-0.000391188
0.000457138
-0.000224895
-0.00016816
0.000551008
-0.000186306
-3.58242e-05
0.000563556
-0.000136178
0.000446874
-5.8109e-05
9.91737e-05
0.000726125
-0.000157136
0.000305001
0.00102483
-0.000309035
0.000496691
0.00121318
-0.000305071
0.000608324
0.00132484
-0.000211246
0.000655701
0.00140914
-0.000127236
0.000663134
0.0014718
-6.02543e-05
0.000649925
0.0015181
-7.76859e-06
0.000617262
0.00154193
3.91468e-05
0.000570226
0.00154038
8.03934e-05
0.00050749
0.00150323
0.000117572
0.000438868
0.00143268
0.00014897
0.00036831
0.0013283
0.000169511
0.000298801
0.00120344
0.000177947
0.000231373
0.00106185
0.000186108
0.00016029
0.000930373
0.00019009
9.17331e-05
0.000812328
0.000178778
2.16033e-05
0.000721564
0.000168132
-4.70924e-05
0.000646847
0.000159031
-0.000122648
0.000590836
0.000160134
-0.000217297
0.000559906
0.000174882
-0.000310457
0.000504789
0.000185813
-0.000430992
0.000485454
0.000211004
-0.000552958
0.000454891
0.000225613
-0.000676726
0.000419959
0.000238075
-0.000808854
0.000409749
0.000253586
-0.000953137
0.000402178
0.000274536
-0.0011133
0.000400636
0.000292462
-0.00127349
0.000399612
0.000286895
-0.00142904
0.000399052
0.000272803
-0.00155383
0.000400702
0.000222635
-0.00164021
0.000387574
0.000184131
-0.00165506
0.000362592
0.000111089
-0.00159548
0.000317447
4.29862e-05
-0.00142248
0.000275567
-5.51786e-05
-0.00114611
0.000263127
-0.000166551
-0.000783759
0.00028092
-0.000250202
-0.000441513
0.000375772
-0.000260879
-0.00018788
0.000483194
-0.000185821
-4.42827e-05
0.000551665
-0.000131706
0.000466585
-6.39918e-05
0.000102321
0.000763183
-0.000139379
0.000327062
0.00110003
-0.000299938
0.000543409
0.00129731
-0.000300475
0.000671618
0.00139685
-0.000200219
0.000723905
0.00145994
-0.000103083
0.00073196
0.0014992
-3.54476e-05
0.000711992
0.00152016
1.79105e-05
0.00066794
0.00151314
7.28451e-05
0.000608742
0.00148382
0.000115763
0.000538387
0.00142468
0.000148902
0.000459366
0.00133913
0.000172567
0.000371496
0.00122296
0.000193205
0.00028848
0.00109178
0.000194676
0.000218641
0.000951193
0.000180492
0.000157004
0.00082538
0.00016663
9.53842e-05
0.000719234
0.000154714
3.78012e-05
0.000633084
0.000146063
-2.30753e-05
0.000565088
0.000142636
-9.22301e-05
0.000509708
0.000150285
-0.000172656
0.000472125
0.000168209
-0.000257174
0.000407236
0.000182072
-0.000361818
0.000388998
0.000201101
-0.000456062
0.000341901
0.000207234
-0.00056124
0.000306343
0.000218795
-0.000676808
0.00028933
0.000235988
-0.000814016
0.000276382
0.000263006
-0.00096565
0.000279361
0.000272909
-0.00112573
0.000281111
0.000278577
-0.00128727
0.000296118
0.000264477
-0.00143722
0.00029167
0.000258981
-0.0015592
0.000281805
0.000227753
-0.00162732
0.000241232
0.000189483
-0.00161247
0.00018747
0.000115121
-0.00148691
0.000133854
1.61583e-05
-0.00123701
0.000106054
-9.28287e-05
-0.000889403
0.000131547
-0.000198235
-0.000498745
0.000242377
-0.000257263
-0.000214036
0.000411396
-0.000212914
-4.86279e-05
0.000520815
-0.00013456
0.000488942
-7.09855e-05
0.000107777
0.000764947
-0.000109541
0.000350358
0.00113315
-0.000275699
0.000585826
0.00134299
-0.000281152
0.00072951
0.0014379
-0.000184732
0.000784591
0.00148192
-7.70606e-05
0.000786951
0.00149675
8.91097e-08
0.000757237
0.00149011
5.97645e-05
0.000707746
0.00145783
0.000104802
0.000641246
0.00140506
0.000145258
0.000561929
0.00132792
0.000176087
0.000473985
0.00122804
0.000199039
0.000380485
0.00110598
0.000210485
0.000290094
0.000975808
0.000206364
0.000210402
0.000844893
0.000185992
0.000153285
0.000727055
0.000155441
0.000104099
0.000628573
0.000139848
5.47393e-05
0.000552562
0.000129883
4.15134e-06
0.000483259
0.000132418
-5.73084e-05
0.000424807
0.000146362
-0.000118204
0.000371567
0.000161456
-0.000200457
0.000313113
0.000176377
-0.00028096
0.000283733
0.000185769
-0.000359007
0.00023294
0.000187009
-0.000447031
0.00019888
0.000195488
-0.000549997
0.000175471
0.000216825
-0.000672085
0.000165428
0.000233044
-0.000810506
0.000168824
0.000248958
-0.000960885
0.000174005
0.000257485
-0.00111966
0.000184701
0.000270197
-0.0012838
0.00018643
0.000269373
-0.00143627
0.000167101
0.000267183
-0.00155086
0.000123959
0.000231853
-0.00159326
6.03517e-05
0.000169524
-0.00152657
-1.46911e-05
8.18528e-05
-0.00131902
-6.60792e-05
-3.54146e-05
-0.000995751
-5.55598e-05
-0.000136163
-0.00058576
5.96604e-05
-0.000227275
-0.000229607
0.000300309
-0.000245065
-5.92208e-05
0.000490158
-0.000139729
0.000501364
-7.16466e-05
0.000107073
0.000743872
-8.59981e-05
0.000359373
0.00113419
-0.000253346
0.000609325
0.00135744
-0.000264402
0.000765431
0.00145008
-0.000168286
0.000827162
0.00148024
-6.00509e-05
0.000824746
0.0014682
3.09673e-05
0.000787439
0.00143794
8.94827e-05
0.000726584
0.00138183
0.000136851
0.000652782
0.00131213
0.000166731
0.000570249
0.00121982
0.000190624
0.000476798
0.00110918
0.000212302
0.00037953
0.000983991
0.000219256
0.000288554
0.000857438
0.000209345
0.000210713
0.00073651
0.000186223
0.000151263
0.000632085
0.000154421
0.000108347
0.000539648
0.000131842
7.48463e-05
0.000461392
0.000124672
3.57134e-05
0.000396206
0.000126187
-2.15749e-05
0.000340984
0.000141113
-7.09593e-05
0.000270212
0.000150742
-0.000140108
0.000219887
0.000162378
-0.000199501
0.000183022
0.000160105
-0.000268982
0.000138039
0.000164382
-0.000343386
9.98493e-05
0.000173436
-0.000432765
7.81934e-05
0.000186659
-0.000539523
6.9923e-05
0.000202264
-0.000654813
6.86735e-05
0.000215441
-0.000788284
7.1992e-05
0.000235485
-0.000938284
7.88539e-05
0.000255847
-0.00110336
7.12554e-05
0.000280253
-0.00127408
5.46982e-05
0.000283121
-0.00142358
8.69443e-06
0.000264761
-0.00151667
-6.08148e-05
0.000214258
-0.0015096
-0.000155943
0.000134179
-0.0013686
-0.000236629
2.95533e-05
-0.00107665
-0.000261593
-8.59188e-05
-0.000686122
-0.000148793
-0.000182074
-0.000280973
0.00011632
-0.000221159
-6.51188e-05
0.000426269
-0.00015196
0.000505917
-6.96725e-05
0.000121968
0.000643204
-2.13012e-05
0.000384626
0.00107259
-0.000201063
0.00064581
0.00131901
-0.000222754
0.000817235
0.00141205
-0.000133395
0.000877631
0.0014321
-1.2262e-05
0.000865566
0.00140413
7.61297e-05
0.000814005
0.00135299
0.000136508
0.000744315
0.00127674
0.000174779
0.000665719
0.00119269
0.000198041
0.000580441
0.00109343
0.000211671
0.000489987
0.000983049
0.000216589
0.000397099
0.00086427
0.000212609
0.000307968
0.000746646
0.000199923
0.000231463
0.000636096
0.000176921
0.000171233
0.000541748
0.000150569
0.000126239
0.00045898
0.000125662
8.29785e-05
0.000389071
0.00011558
4.62098e-05
0.000312382
0.000120594
1.17757e-05
0.000246079
0.000129342
-3.44319e-05
0.000180456
0.000135965
-9.23501e-05
0.000139092
0.000138714
-0.000134634
8.84066e-05
0.0001369
-0.000190481
5.01855e-05
0.000143701
-0.000255914
1.43849e-05
0.000150897
-0.0003367
-3.70514e-06
0.000162686
-0.00042265
-1.69088e-05
0.000172784
-0.000523896
-2.28128e-05
0.000192733
-0.000638637
-3.10834e-05
0.000217818
-0.000774724
-3.47394e-05
0.00024968
-0.000932465
-4.68413e-05
0.000275838
-0.00110578
-6.49189e-05
0.000292934
-0.00127269
-0.000112765
0.000288365
-0.00140354
-0.000184583
0.000254622
-0.00145096
-0.000295222
0.000186703
-0.00137091
-0.000404271
8.75837e-05
-0.00113431
-0.000472675
-2.55154e-05
-0.000760479
-0.000395301
-0.000127324
-0.000339501
-0.000124307
-0.000180355
-5.46509e-05
0.00031193
-0.00017051
0.000520831
-6.95625e-05
0.000116657
0.00052525
1.29647e-06
0.000369605
0.0010085
-0.000188854
0.000644843
0.00126949
-0.000225718
0.000832203
0.00136174
-0.000137048
0.000903872
0.00137012
-9.68988e-06
0.000892624
0.00131887
9.65045e-05
0.000842282
0.00124814
0.000155195
0.000763423
0.00116185
0.000193751
0.000669538
0.00107386
0.000212709
0.000571815
0.000969089
0.000222063
0.000478375
0.000855125
0.000221364
0.000390915
0.000740357
0.000211373
0.000313832
0.000630945
0.000192785
0.000246859
0.000532838
0.00017023
0.000192242
0.000450847
0.000145518
0.000154067
0.000371953
0.000125203
0.000130588
0.00029956
0.000112991
9.98385e-05
0.000231942
0.000111189
5.51581e-05
0.000175327
0.000115433
8.36146e-06
0.000113712
0.000113542
-3.27371e-05
6.43369e-05
0.000115855
-7.59268e-05
1.52717e-05
0.000116324
-0.000126578
-2.40036e-05
0.000124839
-0.000185316
-6.0502e-05
0.000133625
-0.00025115
-8.20034e-05
0.000144132
-0.000322284
-0.000103995
0.000158221
-0.000402274
-0.00012102
0.000178198
-0.000497193
-0.000140703
0.000204539
-0.000615284
-0.000149035
0.000232387
-0.000757669
-0.000166394
0.000261938
-0.000924336
-0.000184677
0.000286424
-0.0010995
-0.000234916
0.000297316
-0.00125916
-0.000307499
0.000282577
-0.00135906
-0.000428776
0.000233455
-0.00134243
-0.000568374
0.000147466
-0.00116686
-0.000694092
4.58453e-05
-0.000822904
-0.000673109
-6.61437e-05
-0.000412627
-0.000400286
-0.000134299
-6.92803e-05
0.00010697
-0.000138389
0.000487368
-3.58171e-05
0.000148993
0.00031004
6.62171e-05
0.000376633
0.000877598
-9.67383e-05
0.000654058
0.00115604
-0.000163973
0.000844812
0.00125176
-8.07814e-05
0.000923898
0.00125357
3.74633e-05
0.000906172
0.00120238
0.000134222
0.00084268
0.00112026
0.000191366
0.000755628
0.00102244
0.000226466
0.000670631
0.00091967
0.000239186
0.000591044
0.000812564
0.000236113
0.000512022
0.000712238
0.000221909
0.000431384
0.000619022
0.000201972
0.000356767
0.000528837
0.000176725
0.00029225
0.000446026
0.000151329
0.000245129
0.000370429
0.00012754
0.000205408
0.000305388
0.000106286
0.000170671
0.00024605
8.82463e-05
0.000128696
0.0001842
8.97178e-05
8.73567e-05
0.000120297
9.63695e-05
4.89077e-05
5.58312e-05
9.63295e-05
1.79793e-05
-3.4501e-06
9.87154e-05
-1.97265e-05
-4.72733e-05
0.00010025
-6.85713e-05
-8.39852e-05
0.000108826
-0.000124315
-0.000124683
0.000119924
-0.000182919
-0.000157064
0.000133664
-0.000245629
-0.000190136
0.000148851
-0.000319668
-0.000215453
0.000168472
-0.000405144
-0.000249061
0.000193836
-0.000505504
-0.000273651
0.000224975
-0.000622045
-0.000309515
0.00025966
-0.000766264
-0.000333442
0.000292984
-0.000928974
-0.000393617
0.000321412
-0.00110059
-0.000465458
0.00032958
-0.00123852
-0.000594567
0.000303715
-0.00127938
-0.00076959
0.000242074
-0.00116933
-0.000956974
0.000152833
-0.000871167
-0.00100847
3.72016e-05
-0.000437831
-0.000768724
-6.48969e-05
-8.58848e-05
-0.000152786
-9.21912e-05
0.000398608
2.87436e-06
0.000119198
0.000162263
2.85795e-05
0.000327215
0.000787751
-0.00011817
0.000605825
0.00106206
-0.000184635
0.00080742
0.0011569
-0.000106738
0.000906817
0.00114051
1.36662e-05
0.000910739
0.00107456
0.000123896
0.000869724
0.000977252
0.000184026
0.000797087
0.000881138
0.000213935
0.000710437
0.000792253
0.000214066
0.000615249
0.000705536
0.000202216
0.000524271
0.00061837
0.000184847
0.000441163
0.000536653
0.000165477
0.00037087
0.000455638
0.000143491
0.000311137
0.000382128
0.000123631
0.000262308
0.000313733
0.000105524
0.000220546
0.000253928
9.32218e-05
0.00018964
0.00019948
7.74761e-05
0.000162357
0.000143116
6.83671e-05
0.000132996
7.87415e-05
7.09167e-05
0.000103535
8.66529e-06
7.66278e-05
6.50328e-05
-4.85642e-05
8.36167e-05
3.05012e-05
-9.67915e-05
8.40493e-05
-1.12461e-05
-0.000136307
9.40684e-05
-6.18339e-05
-0.000180229
0.000106134
-0.000117253
-0.000220912
0.000119267
-0.000172493
-0.000266237
0.000131341
-0.000229687
-0.000302263
0.000144004
-0.00029468
-0.000349297
0.000165228
-0.000377924
-0.000384112
0.000193706
-0.000484118
-0.000434083
0.000230764
-0.000615005
-0.000478461
0.000275907
-0.000768588
-0.000561661
0.000321628
-0.000945965
-0.000649618
0.000361536
-0.00110883
-0.000810894
0.000379193
-0.00121595
-0.00100741
0.000344932
-0.00118275
-0.0012532
0.00026302
-0.000985303
-0.00135994
0.000154019
-0.000554351
-0.00122409
2.44121e-05
-0.000145447
-0.000541014
-2.06782e-05
0.000216598
3.65662e-05
8.03917e-05
5.32467e-05
2.86239e-05
0.000312572
0.000662914
-0.000107343
0.000584092
0.000965682
-0.000175141
0.000804332
0.00106928
-0.000132614
0.000915925
0.0010564
-2.74878e-05
0.000926443
0.000991305
7.27351e-05
0.000863084
0.000889886
0.000150725
0.00077405