/*--------------------------------*- C++ -*----------------------------------*\
| =========                 |                                                 |
| \\      /  F ield         | OpenFOAM: The Open Source CFD Toolbox           |
|  \\    /   O peration     | Version:  v1806                                 |
|   \\  /    A nd           | Web:      www.OpenFOAM.com                      |
|    \\/     M anipulation  |                                                 |
\*---------------------------------------------------------------------------*/
FoamFile
{
    version     2.0;
    format      ascii;
    class       volVectorField;
    location    "0.118";
    object      U;
}
// * * * * * * * * * * * * * * * * * * * * * * * * * * * * * * * * * * * * * //

dimensions      [0 1 -1 0 0 0 0];


internalField   nonuniform List<vector> 
64000
(
(-0.0119475 -0.0140486 -0.0103393)
(0.0165555 -0.0133165 -0.00762948)
(0.0224251 -0.00440849 0.000103875)
(0.0273724 -0.00358779 0.00131558)
(0.0285974 -0.00265104 0.001606)
(0.029613 -0.00322023 0.00204964)
(0.0302265 -0.00418029 0.00191808)
(0.028619 -0.0050183 0.00253436)
(0.0291179 -0.0062569 0.0028904)
(0.0245896 -0.0064205 0.00433801)
(0.0203544 -0.00796665 0.00238235)
(0.0113103 -0.00821376 0.0082092)
(0.00143628 -0.0121639 0.00679049)
(-0.0185898 -0.0183135 0.00460958)
(-0.0413166 -0.0196518 0.00421673)
(-0.0746936 -0.0207872 0.00336003)
(-0.0934544 -0.00489726 0.000669396)
(-0.136297 -0.00620391 -0.00299547)
(-0.126326 -0.0101197 0.00214521)
(-0.187089 -0.026473 -0.0107202)
(-0.155391 -0.0197256 -0.0163414)
(-0.0678717 -0.0226754 -0.036061)
(-0.090278 -0.00507873 -0.0212675)
(-0.0896004 -0.00222005 -0.0355384)
(-0.112343 0.00389678 -0.0463874)
(-0.105826 0.0117743 -0.057007)
(-0.0964132 0.0223121 -0.0615843)
(-0.059893 0.0330035 -0.0585952)
(-0.0291381 0.0408934 -0.0538678)
(0.0160483 0.0538318 -0.0385255)
(0.06321 0.0491099 -0.0328564)
(0.100075 0.0393797 -0.0253215)
(0.114615 0.0292247 -0.012105)
(0.11157 0.0151277 -0.00494807)
(0.0960596 0.00634728 0.00156013)
(0.076101 -0.00174983 0.00408465)
(0.0556889 -0.00576192 0.0056025)
(0.034499 -0.00542988 0.00659378)
(0.0186427 -0.00393982 0.00661845)
(0.00324116 -0.00245704 0.00439405)
(-0.00850556 0.00431417 -0.00634943)
(0.00762299 -0.0172712 -0.00642907)
(0.0225035 -0.0109348 -0.00256382)
(0.0341538 -0.00768129 -0.000861993)
(0.0406523 -0.00331548 -0.00155887)
(0.0420472 -0.00154553 -0.00170922)
(0.0417787 0.00177256 -0.00376851)
(0.0360023 0.00326691 -0.00289443)
(0.0305868 0.00606444 -0.00829386)
(0.0146152 0.0128838 -0.00357115)
(-0.00476637 0.0197815 -0.00791832)
(-0.0372181 0.0284692 0.000154522)
(-0.0796824 0.0379302 -0.00370713)
(-0.12913 0.0543137 -0.00668023)
(-0.182588 0.069551 -0.0118319)
(-0.237485 0.0788534 -0.01702)
(-0.300674 0.0872943 -0.0430515)
(-0.401198 0.0888606 -0.0595888)
(-0.440453 0.0960576 -0.0776199)
(-0.528807 0.0987898 -0.094276)
(-0.474323 0.126194 -0.0866217)
(-0.355018 0.142705 -0.123396)
(-0.360282 0.190719 -0.129546)
(-0.34723 0.212004 -0.142387)
(-0.343973 0.235918 -0.154629)
(-0.30434 0.256887 -0.161847)
(-0.25973 0.278078 -0.163673)
(-0.18749 0.293766 -0.152338)
(-0.116039 0.300722 -0.132737)
(-0.0452092 0.306701 -0.108967)
(0.0185326 0.291138 -0.0739245)
(0.0843536 0.259321 -0.0456179)
(0.119912 0.209234 -0.0375582)
(0.132096 0.158513 -0.0250456)
(0.12554 0.108521 -0.0115842)
(0.105364 0.0688914 -0.00413909)
(0.0843674 0.0407297 0.000222394)
(0.0586209 0.0257994 0.00111471)
(0.0351505 0.0161773 0.00220801)
(0.00888696 0.00824696 0.00207088)
(-0.000610121 -0.00197945 0.00146848)
(0.0144422 -0.0220168 -0.00242946)
(0.0303315 -0.0165815 -0.00317861)
(0.0418053 -0.00542444 -0.00416229)
(0.0452191 0.00295689 -0.00608107)
(0.0439068 0.012972 -0.00750053)
(0.0379844 0.0266271 -0.00896301)
(0.0232539 0.038913 -0.0106821)
(0.0101734 0.0622587 -0.00265986)
(-0.0171541 0.0821466 -0.00404471)
(-0.0534168 0.109198 -0.00817608)
(-0.102106 0.137416 -0.012549)
(-0.153011 0.173703 -0.017468)
(-0.224166 0.202186 -0.0312247)
(-0.310646 0.223606 -0.0375025)
(-0.405566 0.238727 -0.0437706)
(-0.480479 0.245208 -0.0612228)
(-0.565248 0.260615 -0.0803166)
(-0.596461 0.294041 -0.0981602)
(-0.670699 0.331927 -0.114336)
(-0.600559 0.368573 -0.0979918)
(-0.453649 0.404402 -0.123603)
(-0.43663 0.460539 -0.120682)
(-0.41216 0.489543 -0.121774)
(-0.400219 0.521207 -0.125827)
(-0.355781 0.541657 -0.125206)
(-0.310441 0.556174 -0.120675)
(-0.24404 0.558416 -0.105162)
(-0.181784 0.548814 -0.0823887)
(-0.116449 0.528079 -0.0590691)
(-0.0629965 0.498312 -0.0385971)
(-0.0197809 0.448107 -0.0272954)
(0.0137706 0.375464 -0.0145)
(0.0389841 0.30231 -0.00726699)
(0.0497879 0.224682 -0.00948343)
(0.054399 0.16153 -0.00980645)
(0.0532941 0.114546 -0.00591961)
(0.0429329 0.0779839 -0.00399928)
(0.0302985 0.0519407 -0.000606097)
(0.00910512 0.0265173 0.00176399)
(0.0010227 -0.00693627 0.00228313)
(0.0170653 -0.023419 -0.00153882)
(0.0360945 -0.0112952 -0.00423991)
(0.0430333 0.00463215 -0.00754373)
(0.0416554 0.0274707 -0.00810653)
(0.0386961 0.0503789 -0.00945454)
(0.0260933 0.0832449 -0.00894761)
(0.00933072 0.114003 -0.00471889)
(-0.0153112 0.158548 -0.010763)
(-0.0586528 0.195858 -0.0126583)
(-0.103203 0.239372 -0.0177798)
(-0.160607 0.276847 -0.0236408)
(-0.235749 0.30694 -0.0295827)
(-0.324554 0.322598 -0.0301463)
(-0.403106 0.344408 -0.0335064)
(-0.478491 0.366888 -0.0378541)
(-0.538385 0.399267 -0.0542514)
(-0.609431 0.428928 -0.0645844)
(-0.627033 0.475569 -0.0750361)
(-0.691349 0.52576 -0.0776158)
(-0.608761 0.555791 -0.0381826)
(-0.440049 0.584344 -0.0445986)
(-0.410233 0.622885 -0.0351762)
(-0.385127 0.627477 -0.0282313)
(-0.374099 0.640357 -0.0272632)
(-0.338413 0.639185 -0.0231357)
(-0.304785 0.63147 -0.019664)
(-0.254712 0.610948 -0.011529)
(-0.209891 0.584408 0.000840421)
(-0.164711 0.550021 0.00819314)
(-0.135989 0.508447 0.0128072)
(-0.110154 0.462285 0.0114505)
(-0.0862847 0.404125 0.00560743)
(-0.061833 0.341279 -0.00198176)
(-0.0381331 0.26649 -0.00527703)
(-0.0110754 0.200506 -0.00987919)
(0.00671037 0.146644 -0.00905596)
(0.0136996 0.110761 -0.00717306)
(0.0198523 0.0774391 -0.00269034)
(0.0074961 0.0387952 0.00160671)
(0.000734395 -0.00752008 0.000602328)
(0.0217353 -0.013146 -0.00352782)
(0.0426491 0.00361112 -0.00849941)
(0.051148 0.0357062 -0.00868562)
(0.0491719 0.0719549 -0.00906559)
(0.0426191 0.116004 -0.0144911)
(0.0250835 0.171038 -0.0121272)
(-0.00109461 0.2248 -0.0059282)
(-0.0318849 0.280457 -0.00880646)
(-0.0821614 0.327038 -0.0110869)
(-0.13726 0.365096 -0.0145834)
(-0.209876 0.387962 -0.0169304)
(-0.281612 0.40716 -0.0175446)
(-0.348772 0.431165 -0.0202326)
(-0.411207 0.461145 -0.0228525)
(-0.477671 0.493717 -0.0237779)
(-0.524874 0.525042 -0.0293118)
(-0.579187 0.555681 -0.0281374)
(-0.575587 0.615552 -0.0209126)
(-0.624628 0.666586 -0.0281671)
(-0.544184 0.692709 0.0130908)
(-0.369166 0.702939 0.0187371)
(-0.336373 0.711368 0.0336594)
(-0.320641 0.679894 0.0372666)
(-0.32252 0.663858 0.0364577)
(-0.305982 0.63594 0.0415441)
(-0.291953 0.604151 0.0433947)
(-0.260625 0.565472 0.0479003)
(-0.236281 0.523452 0.0411475)
(-0.210428 0.482273 0.0323235)
(-0.192258 0.436669 0.0219383)
(-0.181717 0.403148 0.0144037)
(-0.172251 0.365323 0.00753667)
(-0.158935 0.334757 -0.0040278)
(-0.136492 0.277131 -0.0133457)
(-0.0929653 0.207493 -0.0141295)
(-0.0444656 0.159872 -0.0127109)
(-0.0117612 0.129944 -0.0108798)
(0.00596846 0.0958942 -0.00509662)
(0.00467157 0.0483784 0.00165756)
(0.00429506 -0.000926252 -0.000224742)
(0.0260983 0.00403588 -0.00667921)
(0.0554144 0.0312812 -0.00773539)
(0.0653349 0.0815476 -0.0096154)
(0.0606942 0.137431 -0.014817)
(0.0594308 0.199213 -0.0174701)
(0.0390702 0.272537 -0.0142698)
(0.00644541 0.323899 -0.0050457)
(-0.038509 0.368574 -0.00796467)
(-0.104806 0.401903 -0.010047)
(-0.169736 0.43077 -0.0123024)
(-0.231301 0.456875 -0.0119405)
(-0.284609 0.488386 -0.0104887)
(-0.338858 0.518682 -0.00709601)
(-0.382106 0.545628 -0.00181269)
(-0.430134 0.574464 0.00385826)
(-0.459101 0.604601 0.00783663)
(-0.482651 0.636578 0.0107522)
(-0.468345 0.686587 0.00767135)
(-0.50889 0.730461 0.0103142)
(-0.43266 0.748953 0.047765)
(-0.278271 0.710339 0.0571394)
(-0.263917 0.688406 0.0706475)
(-0.270055 0.625061 0.0783832)
(-0.285257 0.587249 0.0787178)
(-0.288213 0.54348 0.0769637)
(-0.289946 0.502081 0.0741892)
(-0.278538 0.458673 0.0669394)
(-0.266459 0.411891 0.0644209)
(-0.254202 0.372245 0.0427535)
(-0.245541 0.328623 0.0305718)
(-0.233676 0.297488 0.0152374)
(-0.219295 0.271627 0.00446252)
(-0.218583 0.26057 -0.00611)
(-0.221705 0.238636 -0.0179223)
(-0.165497 0.190703 -0.0142098)
(-0.0855584 0.158944 -0.0143525)
(-0.0351883 0.133657 -0.0111305)
(-0.00194291 0.102269 -0.00596439)
(0.00341274 0.0509286 0.00259993)
(0.00461744 0.00506984 -0.00171319)
(0.0352838 0.0195599 -0.00984098)
(0.0766713 0.0595574 -0.0108849)
(0.0981402 0.115223 -0.0132371)
(0.0936481 0.180948 -0.0192391)
(0.0902612 0.253598 -0.0209886)
(0.0513074 0.31363 -0.015578)
(-0.00929338 0.345132 -0.00142921)
(-0.0566092 0.385446 -0.00702899)
(-0.11114 0.420579 -0.00721586)
(-0.154848 0.461104 -0.00711639)
(-0.201105 0.501842 -0.00484249)
(-0.242131 0.539691 -0.000845361)
(-0.283789 0.571161 0.00336107)
(-0.316804 0.602648 0.0116412)
(-0.347966 0.626891 0.0165786)
(-0.360163 0.654854 0.0247195)
(-0.379852 0.670614 0.027673)
(-0.350035 0.690021 0.0317291)
(-0.370266 0.70099 0.0177925)
(-0.355879 0.722185 0.0446057)
(-0.231345 0.615636 0.0601612)
(-0.211285 0.578425 0.0686565)
(-0.234235 0.511461 0.0772682)
(-0.260739 0.475381 0.0759511)
(-0.281305 0.436817 0.0742333)
(-0.299113 0.404656 0.0700115)
(-0.304758 0.369975 0.0614952)
(-0.305757 0.333999 0.0470116)
(-0.30603 0.299533 0.0295523)
(-0.303467 0.266571 0.0154733)
(-0.294731 0.237992 0.00150539)
(-0.278482 0.217002 -0.00542363)
(-0.265683 0.202075 -0.0124576)
(-0.268864 0.211205 -0.0198255)
(-0.216329 0.189506 -0.0202655)
(-0.120558 0.164052 -0.0205494)
(-0.0505426 0.143136 -0.0158192)
(-0.00727088 0.110731 -0.00943071)
(0.00340377 0.05529 0.00112756)
(0.00597655 0.0125695 -0.00408028)
(0.0430181 0.0389921 -0.0136962)
(0.0949864 0.0871097 -0.0138823)
(0.118912 0.143171 -0.0120159)
(0.12218 0.202387 -0.0136488)
(0.105482 0.273309 -0.0153069)
(0.0450007 0.30157 -0.00455435)
(0.00046211 0.347918 0.00152504)
(-0.0289473 0.391677 -0.00253996)
(-0.0760375 0.443477 -0.000601206)
(-0.113561 0.485178 7.7453e-05)
(-0.151921 0.520992 0.00611819)
(-0.184245 0.549977 0.0120109)
(-0.211627 0.573438 0.020617)
(-0.230665 0.595443 0.024872)
(-0.253652 0.606924 0.030006)
(-0.262814 0.617399 0.033798)
(-0.276562 0.609742 0.0335595)
(-0.265474 0.614408 0.0312723)
(-0.27126 0.573217 0.0179035)
(-0.301499 0.595964 0.0223008)
(-0.225525 0.492483 0.0428008)
(-0.185155 0.444226 0.0455696)
(-0.218306 0.398584 0.056879)
(-0.251837 0.372435 0.0588675)
(-0.285478 0.347155 0.0598042)
(-0.313328 0.325573 0.0604629)
(-0.331704 0.300066 0.0512779)
(-0.344354 0.27496 0.0394391)
(-0.351361 0.245625 0.0157264)
(-0.353483 0.214647 0.00499912)
(-0.343052 0.190024 -0.00460406)
(-0.32694 0.177128 -0.0125431)
(-0.302572 0.166015 -0.0148583)
(-0.307027 0.183414 -0.0236592)
(-0.264234 0.190978 -0.0197917)
(-0.155628 0.167713 -0.0208886)
(-0.0693118 0.150262 -0.0155054)
(-0.0122492 0.115771 -0.00894783)
(0.00391279 0.0571582 0.00220543)
(0.00445508 0.0275533 -0.00671648)
(0.0512739 0.0706956 -0.0173117)
(0.11514 0.126199 -0.0189186)
(0.145109 0.181847 -0.0135424)
(0.152264 0.242766 -0.0157278)
(0.117054 0.290514 -0.0140765)
(0.0643581 0.326174 -0.00564172)
(0.0293663 0.381474 0.00203021)
(0.0026365 0.416884 0.00700745)
(-0.0295601 0.456678 0.00661545)
(-0.0655148 0.489408 0.0110167)
(-0.0954535 0.513345 0.0154796)
(-0.117533 0.530369 0.0246518)
(-0.136459 0.538765 0.0308637)
(-0.15323 0.538398 0.0341207)
(-0.171629 0.527846 0.0347872)
(-0.184246 0.516723 0.0338962)
(-0.200636 0.491667 0.0295411)
(-0.21513 0.477233 0.0228096)
(-0.216343 0.431554 0.0119048)
(-0.264824 0.438217 -0.00152182)
(-0.241861 0.385865 0.0180093)
(-0.186475 0.332908 0.0238707)
(-0.212919 0.314936 0.034382)
(-0.251241 0.299248 0.0408314)
(-0.292069 0.284497 0.0454424)
(-0.328838 0.270783 0.0500636)
(-0.355643 0.250875 0.0437545)
(-0.378154 0.230771 0.0262066)
(-0.395985 0.199097 0.00750491)
(-0.398454 0.175315 -0.00264679)
(-0.384883 0.152192 -0.00825027)
(-0.369452 0.138294 -0.0125705)
(-0.337441 0.137701 -0.0225713)
(-0.322785 0.147731 -0.0261565)
(-0.293034 0.18405 -0.0291775)
(-0.191981 0.169658 -0.0239328)
(-0.0853818 0.158641 -0.0224407)
(-0.0177015 0.123966 -0.0116422)
(0.00479502 0.0621098 0.000250597)
(0.00645342 0.0442029 -0.00889542)
(0.0602532 0.10843 -0.0246264)
(0.133695 0.167929 -0.0237963)
(0.17114 0.222041 -0.0155924)
(0.169209 0.274817 -0.0165798)
(0.135791 0.305908 -0.0165147)
(0.0960727 0.353697 -0.00542295)
(0.0642287 0.396405 0.00561819)
(0.0360089 0.432551 0.0123616)
(0.0118713 0.455647 0.0226718)
(-0.0122857 0.475795 0.0199812)
(-0.0397665 0.485333 0.0297195)
(-0.0604826 0.488381 0.0355247)
(-0.0789526 0.476018 0.0412568)
(-0.0951555 0.454223 0.0426457)
(-0.115192 0.42524 0.0398905)
(-0.134342 0.397048 0.0341404)
(-0.154808 0.36324 0.0266251)
(-0.181129 0.340194 0.0172649)
(-0.187033 0.310773 0.00920714)
(-0.237914 0.304374 -0.0106184)
(-0.249417 0.293036 0.00238194)
(-0.190926 0.261854 0.0116679)
(-0.20498 0.259023 0.0196591)
(-0.24712 0.247875 0.0305847)
(-0.29152 0.240488 0.0381458)
(-0.33315 0.225857 0.0467358)
(-0.368365 0.212346 0.0381271)
(-0.399625 0.186411 0.027657)
(-0.415663 0.160901 0.0119047)
(-0.423283 0.134733 0.0118149)
(-0.417762 0.111433 0.0174719)
(-0.397618 0.0920616 0.0126448)
(-0.368128 0.0918495 0.00911969)
(-0.344309 0.103372 -0.0125484)
(-0.315916 0.149888 -0.0241344)
(-0.22217 0.162188 -0.0230138)
(-0.105024 0.154908 -0.0186018)
(-0.0239824 0.127833 -0.0106362)
(0.00555039 0.0631729 0.00162889)
(0.00746861 0.0676925 -0.0111567)
(0.0692759 0.15205 -0.030301)
(0.152116 0.214746 -0.0296339)
(0.193545 0.2643 -0.0184285)
(0.188307 0.30063 -0.013074)
(0.160879 0.335126 -0.0153351)
(0.13396 0.374484 -0.00471142)
(0.10266 0.409626 0.00217299)
(0.0785034 0.435584 0.0100382)
(0.0514728 0.453746 0.0249043)
(0.025912 0.455594 0.0343683)
(0.00791528 0.451762 0.0439348)
(-0.0101699 0.436818 0.0459434)
(-0.0342108 0.408913 0.0473427)
(-0.0561609 0.377806 0.0473494)
(-0.0783905 0.338736 0.0422414)
(-0.103253 0.306762 0.0332429)
(-0.128858 0.275925 0.0229955)
(-0.160017 0.254046 0.0126803)
(-0.171361 0.238459 0.00416778)
(-0.218237 0.229152 -0.0137101)
(-0.235365 0.230354 -0.00393966)
(-0.180813 0.225589 0.00561735)
(-0.192497 0.220505 0.0126174)
(-0.232991 0.21108 0.0253656)
(-0.280733 0.201256 0.0340655)
(-0.326931 0.190144 0.0422121)
(-0.365874 0.171213 0.0376247)
(-0.401597 0.149166 0.026986)
(-0.427155 0.121115 0.0339207)
(-0.443355 0.0876764 0.0351728)
(-0.445229 0.0612482 0.019015)
(-0.430827 0.0463115 0.0138321)
(-0.39502 0.0431131 0.00369603)
(-0.353464 0.0549044 0.000324754)
(-0.325422 0.0990978 -0.0208191)
(-0.246595 0.138078 -0.0258189)
(-0.122431 0.148922 -0.0204661)
(-0.0275728 0.128488 -0.012052)
(0.00495899 0.0655178 0.000205237)
(0.00890874 0.08746 -0.0116307)
(0.0753523 0.191811 -0.0339671)
(0.16583 0.257172 -0.0324872)
(0.206395 0.295311 -0.0174165)
(0.206752 0.323557 -0.0113379)
(0.190504 0.356199 -0.00886594)
(0.167137 0.386605 -0.00613947)
(0.139472 0.408944 0.00542089)
(0.113235 0.42711 0.0115239)
(0.0880943 0.431327 0.0215627)
(0.0665817 0.430147 0.0302035)
(0.0425912 0.414214 0.0497403)
(0.018138 0.385478 0.0530511)
(-0.000521793 0.34737 0.0538218)
(-0.0247512 0.309545 0.0466848)
(-0.0528863 0.273502 0.0411471)
(-0.0784784 0.243348 0.0298122)
(-0.107073 0.219952 0.0187305)
(-0.13897 0.204419 0.00885947)
(-0.154713 0.199384 0.000495928)
(-0.20015 0.191581 -0.0146741)
(-0.210114 0.194537 -0.0053645)
(-0.160162 0.199904 0.00145358)
(-0.171349 0.187307 0.00868173)
(-0.210066 0.175818 0.0209614)
(-0.255111 0.161918 0.0303216)
(-0.303472 0.150005 0.0371741)
(-0.345768 0.130308 0.0317881)
(-0.385952 0.106594 0.0453129)
(-0.421 0.0741967 0.0513759)
(-0.444623 0.0437621 0.0439817)
(-0.448353 0.0170907 0.0528538)
(-0.442279 -0.00584397 0.0399017)
(-0.422308 -0.0106248 0.0371527)
(-0.384357 -0.00296454 0.0262384)
(-0.343509 0.0428849 0.00992324)
(-0.259781 0.0959158 -0.020203)
(-0.138395 0.130992 -0.022112)
(-0.0346403 0.122701 -0.0112823)
(0.00652895 0.0639403 0.000362468)
(0.0092572 0.107816 -0.0102064)
(0.0802108 0.23117 -0.0357827)
(0.171466 0.297068 -0.0346579)
(0.218382 0.325975 -0.0176216)
(0.229832 0.349788 -0.0055006)
(0.218978 0.373999 -0.000505216)
(0.196738 0.394309 0.00301521)
(0.17125 0.407174 0.00382367)
(0.148729 0.41407 0.015041)
(0.123573 0.412062 0.0241347)
(0.0991422 0.399819 0.0331965)
(0.0731503 0.374536 0.0402087)
(0.0476331 0.341167 0.0492892)
(0.0199202 0.300458 0.0537045)
(-0.00290743 0.25669 0.0474905)
(-0.0282121 0.223547 0.0371767)
(-0.0581562 0.19836 0.0261418)
(-0.0862268 0.180147 0.0147363)
(-0.115595 0.169445 0.00672434)
(-0.132785 0.168813 -0.00122485)
(-0.174455 0.1611 -0.0123503)
(-0.172349 0.167555 -0.00392425)
(-0.129458 0.17221 0.0005036)
(-0.144857 0.153373 0.00687794)
(-0.17732 0.137595 0.0187929)
(-0.221566 0.122278 0.0273325)
(-0.26694 0.105769 0.0314058)
(-0.312036 0.0870204 0.04595)
(-0.359222 0.058927 0.0566467)
(-0.399696 0.0309791 0.0571598)
(-0.428961 -0.00140485 0.0706724)
(-0.458982 -0.0396949 0.0503664)
(-0.46721 -0.0799149 0.0357553)
(-0.449245 -0.100597 0.0113349)
(-0.403226 -0.0903909 0.0041699)
(-0.361395 -0.0431878 0.00422033)
(-0.283682 0.0437871 0.00448365)
(-0.15312 0.0960181 -0.0251705)
(-0.0397111 0.109848 -0.0103787)
(0.00582743 0.0612121 -0.000555211)
(0.00879724 0.116703 -0.00928301)
(0.0781904 0.255898 -0.038232)
(0.171595 0.324578 -0.0385932)
(0.225007 0.35119 -0.0199828)
(0.247513 0.365987 -0.00200378)
(0.242928 0.378925 0.00662772)
(0.221426 0.389345 0.0125126)
(0.196552 0.395392 0.0146667)
(0.174454 0.395974 0.017857)
(0.151152 0.38689 0.0212646)
(0.126893 0.367118 0.0301013)
(0.0975389 0.336001 0.0381106)
(0.0672313 0.299543 0.0399911)
(0.0385218 0.257739 0.0436627)
(0.0128159 0.220572 0.0442901)
(-0.00976585 0.183805 0.0338967)
(-0.035497 0.165454 0.0215735)
(-0.0632109 0.149365 0.0116758)
(-0.0873993 0.140585 0.00513261)
(-0.104755 0.1424 -0.00192755)
(-0.138624 0.130089 -0.0091913)
(-0.126071 0.146069 -0.000943674)
(-0.0952884 0.140334 -0.00106532)
(-0.113067 0.117353 0.00629496)
(-0.13968 0.0989191 0.0149643)
(-0.178087 0.0780401 0.0234355)
(-0.221448 0.0628017 0.0334325)
(-0.267384 0.0402729 0.0490522)
(-0.314603 0.0188576 0.0554134)
(-0.360007 -0.0130682 0.069271)
(-0.417116 -0.0558866 0.0534659)
(-0.461536 -0.10673 0.0433368)
(-0.47956 -0.149203 0.0280619)
(-0.466452 -0.181249 0.0145975)
(-0.424971 -0.183598 -0.00806783)
(-0.362236 -0.149157 -0.00668118)
(-0.289544 -0.0451112 -0.00349326)
(-0.177912 0.0538337 -0.012723)
(-0.045617 0.0913111 -0.0176888)
(0.00821079 0.0577237 0.00056301)
(0.00746943 0.123657 -0.00665443)
(0.0770678 0.276828 -0.0372131)
(0.171451 0.350523 -0.0398937)
(0.231354 0.374266 -0.0207611)
(0.261067 0.380974 0.000246835)
(0.26095 0.380819 0.0140175)
(0.243726 0.38313 0.0235137)
(0.222305 0.383191 0.0257511)
(0.201467 0.379201 0.0284266)
(0.175857 0.364525 0.0289999)
(0.148542 0.339867 0.0299409)
(0.11974 0.305037 0.0274371)
(0.088786 0.266268 0.0305035)
(0.0574475 0.225378 0.031158)
(0.0282719 0.189783 0.0339823)
(0.0078951 0.158599 0.0300251)
(-0.0120972 0.134157 0.0166083)
(-0.0392077 0.122572 0.0084708)
(-0.0547064 0.115235 0.00407325)
(-0.0736044 0.113075 -0.00336929)
(-0.0923511 0.102418 -0.00390135)
(-0.0751525 0.125188 0.000781023)
(-0.0648015 0.105025 0.00102141)
(-0.0815593 0.082036 0.00584723)
(-0.104089 0.0589555 0.0135582)
(-0.136226 0.0381803 0.0197886)
(-0.172629 0.0206498 0.0377265)
(-0.214056 0.0012134 0.0459674)
(-0.263995 -0.0251234 0.0584902)
(-0.329012 -0.0648592 0.0512548)
(-0.390181 -0.112697 0.0470028)
(-0.442019 -0.16179 0.0361859)
(-0.475592 -0.210972 0.0236006)
(-0.478911 -0.252093 0.00704235)
(-0.444604 -0.271639 -0.0118637)
(-0.377627 -0.244621 -0.0193196)
(-0.288288 -0.161983 -0.016289)
(-0.182426 -0.0134387 0.00363249)
(-0.0586264 0.0593691 -0.0182351)
(0.00596871 0.048742 -0.0006776)
(0.00505697 0.107992 -0.00685623)
(0.0703192 0.273868 -0.0374631)
(0.165071 0.353676 -0.0393935)
(0.229789 0.37862 -0.0198901)
(0.266848 0.380256 0.00372324)
(0.275293 0.3762 0.0173035)
(0.264692 0.373648 0.0243304)
(0.243612 0.366362 0.0280635)
(0.220758 0.353889 0.0297883)
(0.194672 0.335119 0.0301253)
(0.166937 0.308825 0.0292774)
(0.135252 0.275362 0.0249632)
(0.102449 0.236576 0.0202893)
(0.0718279 0.197533 0.0148315)
(0.0454682 0.164006 0.0169272)
(0.02163 0.138543 0.0187437)
(0.00705669 0.115222 0.0123089)
(-0.0072261 0.0988799 0.00447169)
(-0.0222247 0.0912363 0.000701705)
(-0.0375996 0.0834772 -0.00438982)
(-0.0387196 0.0902029 0.000736994)
(-0.0310801 0.0922879 0.00167895)
(-0.0395999 0.0700076 0.0038127)
(-0.0534693 0.0458728 0.00616996)
(-0.0714187 0.0229194 0.0114072)
(-0.0951304 0.00295954 0.0217414)
(-0.125971 -0.0178167 0.031115)
(-0.168386 -0.0444287 0.0427738)
(-0.225266 -0.0786378 0.0430916)
(-0.284919 -0.119229 0.0441834)
(-0.347105 -0.162712 0.0397999)
(-0.406234 -0.215709 0.0340729)
(-0.449626 -0.270863 0.0227638)
(-0.46925 -0.323847 0.00802486)
(-0.449465 -0.356711 -0.0111697)
(-0.391989 -0.347928 -0.0244448)
(-0.28953 -0.272164 -0.0273812)
(-0.188758 -0.122484 -0.016124)
(-0.0687266 0.0217385 -0.0127659)
(0.00760584 0.0372833 -0.00434081)
(0.00648357 0.108116 -0.000359986)
(0.0704707 0.280171 -0.0296333)
(0.16333 0.364232 -0.0342311)
(0.233915 0.386832 -0.0139966)
(0.280438 0.38328 0.0106736)
(0.297218 0.371111 0.0183256)
(0.287385 0.361828 0.0272763)
(0.2646 0.347579 0.0288395)
(0.241705 0.333061 0.0284574)
(0.215641 0.310459 0.0257362)
(0.187291 0.281844 0.0222557)
(0.155565 0.244985 0.0167706)
(0.121389 0.206259 0.0100299)
(0.0899736 0.167801 0.00609063)
(0.0646283 0.135317 0.00129733)
(0.0450611 0.109387 0.00475164)
(0.0277295 0.0920835 0.00225358)
(0.0147378 0.0781315 -0.0013812)
(0.0105886 0.0764275 -0.00339927)
(0.0106471 0.0714817 -0.00276942)
(0.00527228 0.0761395 0.000711647)
(-0.0035511 0.0583359 0.00374982)
(-0.0155166 0.0373195 0.00571593)
(-0.0297627 0.0131478 0.00748874)
(-0.0432689 -0.00751296 0.0117078)
(-0.0648792 -0.0313398 0.0210246)
(-0.0972288 -0.0573738 0.0291471)
(-0.139241 -0.0883577 0.0316623)
(-0.188661 -0.119081 0.0349848)
(-0.244862 -0.155537 0.0354242)
(-0.305929 -0.198972 0.0355168)
(-0.364935 -0.252655 0.032134)
(-0.41416 -0.312375 0.0245327)
(-0.444572 -0.376707 0.0110691)
(-0.439503 -0.425481 -0.00717525)
(-0.392971 -0.440582 -0.0238618)
(-0.298805 -0.379255 -0.0354371)
(-0.179151 -0.237243 -0.0270423)
(-0.0617588 -0.0420157 -0.00889208)
(-0.00255234 0.0195799 -0.00299676)
(-0.00370287 0.0814292 -0.0112702)
(0.0496184 0.262489 -0.0361608)
(0.144763 0.35705 -0.0421564)
(0.224207 0.383157 -0.0205735)
(0.281456 0.380637 -0.000319389)
(0.310567 0.361359 0.0129371)
(0.31005 0.344255 0.0203392)
(0.288454 0.322666 0.0219529)
(0.262764 0.301733 0.0198109)
(0.231611 0.281529 0.0163713)
(0.199053 0.258766 0.0124974)
(0.163823 0.23101 0.00896242)
(0.130292 0.19735 0.0047568)
(0.100991 0.161024 0.000754959)
(0.0793373 0.129603 -0.00208271)
(0.0634373 0.105063 -0.00131292)
(0.057019 0.0942887 -0.00257465)
(0.0581827 0.0863179 -0.00467705)
(0.0537067 0.0805229 -0.00645029)
(0.0465733 0.064695 -0.00427193)
(0.0341126 0.0470753 -0.00229247)
(0.0173555 0.0254915 0.00141074)
(0.00294077 0.00371743 0.00509391)
(-0.00895027 -0.0189057 0.00829418)
(-0.0228504 -0.0409215 0.0102956)
(-0.045504 -0.0658489 0.0145963)
(-0.0736803 -0.0917275 0.0177706)
(-0.108109 -0.121727 0.0207422)
(-0.152694 -0.153991 0.0225196)
(-0.204607 -0.195056 0.0247263)
(-0.260815 -0.23915 0.0262281)
(-0.318324 -0.29564 0.025914)
(-0.370409 -0.358455 0.0213287)
(-0.409243 -0.431919 0.0114598)
(-0.418557 -0.494245 -0.00574391)
(-0.384876 -0.526069 -0.0211364)
(-0.300349 -0.483786 -0.0448402)
(-0.187406 -0.356142 -0.0397012)
(-0.0620628 -0.135857 -0.0100836)
(0.0017679 0.000877876 0.00123662)
(-0.00314957 0.146126 0.000410642)
(0.0454606 0.342886 -0.0136238)
(0.132984 0.441907 -0.0234618)
(0.215014 0.464517 -0.00502041)
(0.28144 0.45464 0.00142779)
(0.317293 0.421991 0.0163407)
(0.321254 0.389021 0.0228504)
(0.300013 0.365285 0.0253101)
(0.282071 0.356587 0.0222944)
(0.260447 0.345861 0.0166607)
(0.230474 0.327103 0.0096986)
(0.191677 0.298359 0.00332835)
(0.149517 0.260465 -0.00151694)
(0.116672 0.219332 -0.00418619)
(0.09755 0.182547 -0.00700797)
(0.0939117 0.150432 -0.00602878)
(0.0900513 0.125778 -0.00344168)
(0.0812499 0.100628 -0.00877439)
(0.0700682 0.0737056 -0.0127534)
(0.05882 0.0456415 -0.00829534)
(0.0473765 0.0195127 -0.00365869)
(0.0333926 -0.0050229 0.00170346)
(0.0198735 -0.0241015 0.00610729)
(0.00614786 -0.0470887 0.00720853)
(-0.00687282 -0.0720098 0.0080971)
(-0.0273535 -0.0976191 0.00811527)
(-0.0563093 -0.119849 0.0085348)
(-0.0923454 -0.147841 0.00906285)
(-0.135631 -0.174887 0.0116692)
(-0.180855 -0.209606 0.0155737)
(-0.228761 -0.250542 0.0193031)
(-0.27806 -0.307639 0.0213029)
(-0.327587 -0.375694 0.0199281)
(-0.369617 -0.459883 0.0126197)
(-0.385024 -0.542413 -0.00306717)
(-0.363064 -0.607583 -0.0245032)
(-0.302566 -0.606872 -0.0529934)
(-0.193234 -0.476635 -0.0526936)
(-0.051316 -0.258643 -0.0263176)
(0.00875296 -0.0483909 -0.00306071)
(-0.0174902 0.217674 -0.0164143)
(0.0163753 0.455786 -0.0356167)
(0.101523 0.565931 -0.0434146)
(0.185331 0.603479 -0.0268854)
(0.254959 0.593629 -0.0177907)
(0.300331 0.559086 0.00197989)
(0.326648 0.512231 0.00997966)
(0.336304 0.47735 0.0104198)
(0.326097 0.452901 0.00248189)
(0.287395 0.420644 -0.00389354)
(0.240697 0.380326 -0.00835109)
(0.189532 0.333988 -0.0106529)
(0.144826 0.283947 -0.0120964)
(0.115104 0.240403 -0.0133341)
(0.0986354 0.200672 -0.015072)
(0.0906888 0.163189 -0.014799)
(0.0888503 0.122048 -0.0126395)
(0.0864179 0.0879668 -0.00689703)
(0.0776412 0.054762 -0.00922308)
(0.0701788 0.0276983 -0.0080161)
(0.0595117 0.00272464 -0.00576303)
(0.0481101 -0.0209076 0.000442648)
(0.0344449 -0.0411387 0.00247627)
(0.0170722 -0.0645306 0.00500233)
(0.00272976 -0.0914405 0.00755585)
(-0.0130141 -0.12303 0.00808281)
(-0.0365527 -0.149945 0.00538689)
(-0.0645455 -0.179318 0.00276167)
(-0.099403 -0.207705 -0.00127825)
(-0.142485 -0.245957 -0.00454272)
(-0.192088 -0.287581 -0.00516804)
(-0.242227 -0.346615 -0.00429063)
(-0.290688 -0.412152 -0.00242607)
(-0.336475 -0.503318 -0.00424914)
(-0.370113 -0.598697 -0.0145433)
(-0.374138 -0.699314 -0.0291255)
(-0.302096 -0.728319 -0.0519418)
(-0.218314 -0.62681 -0.0722301)
(-0.0802391 -0.350528 -0.0306348)
(0.0171101 -0.0872172 -0.0014422)
(-0.00104106 0.182888 0.00591318)
(0.0322967 0.423638 -0.031786)
(0.102899 0.547825 -0.0437389)
(0.186191 0.602543 -0.0394901)
(0.254718 0.603218 -0.0308287)
(0.300348 0.579287 -0.0171598)
(0.324024 0.534566 -0.00770487)
(0.325925 0.487114 -0.00203919)
(0.310814 0.43496 -0.00553072)
(0.27462 0.388686 -0.00695582)
(0.231665 0.343628 -0.00848919)
(0.184748 0.299223 -0.00890075)
(0.146062 0.256259 -0.00998335)
(0.122549 0.218637 -0.0111256)
(0.107533 0.182603 -0.0123204)
(0.0999013 0.147439 -0.0121708)
(0.096513 0.113357 -0.0111876)
(0.0932612 0.0760989 -0.00997287)
(0.0865439 0.0451841 -0.00604027)
(0.0808496 0.0171929 -0.00463339)
(0.0706512 -0.00787206 -0.00554081)
(0.0598008 -0.0315504 -0.00423432)
(0.0456235 -0.0508211 -0.00167113)
(0.0255452 -0.0723558 0.00236232)
(0.00610022 -0.0945989 0.00684448)
(-0.01083 -0.124716 0.0107772)
(-0.0315131 -0.152745 0.0103065)
(-0.0593582 -0.184136 0.00807374)
(-0.096335 -0.213712 0.00456442)
(-0.132111 -0.257568 0.0026469)
(-0.170063 -0.306085 0.000597529)
(-0.205973 -0.378231 -0.00152337)
(-0.247465 -0.466113 -0.00582779)
(-0.289622 -0.593212 -0.0105364)
(-0.328512 -0.725435 -0.0161665)
(-0.342682 -0.851018 -0.024863)
(-0.296171 -0.907772 -0.0445555)
(-0.192238 -0.857055 -0.0601806)
(-0.0723223 -0.55396 -0.0584132)
(-0.00516248 -0.177391 0.0125079)
(-0.00324433 0.197717 0.000278721)
(0.0263466 0.413055 -0.0295184)
(0.0890272 0.535564 -0.0404113)
(0.163168 0.587998 -0.0380428)
(0.228743 0.590041 -0.0216599)
(0.277439 0.562742 -0.0144255)
(0.309035 0.517396 -0.0043033)
(0.317624 0.470902 0.000938914)
(0.307365 0.421796 -0.000797306)
(0.275116 0.378427 -0.0024242)
(0.229831 0.335701 -0.00434043)
(0.182914 0.292852 -0.0057575)
(0.14747 0.253879 -0.00812695)
(0.126096 0.216594 -0.00989487)
(0.11193 0.180997 -0.0108481)
(0.105102 0.145848 -0.0102347)
(0.0991992 0.111703 -0.010269)
(0.0970418 0.0737922 -0.00813308)
(0.094164 0.0394968 -0.00828167)
(0.0893369 0.0109773 -0.00581518)
(0.0803385 -0.0128489 -0.00535304)
(0.0729609 -0.0367396 -0.00621413)
(0.0607014 -0.0551724 -0.00601307)
(0.0406701 -0.0741821 -0.00290844)
(0.0192018 -0.0920755 0.00181952)
(0.000561281 -0.114722 0.00696656)
(-0.0191546 -0.137235 0.00946757)
(-0.0404733 -0.162736 0.0103681)
(-0.0750886 -0.18185 0.00785167)
(-0.117088 -0.207015 0.0072703)
(-0.165088 -0.239394 0.00925044)
(-0.214894 -0.298632 0.0122852)
(-0.2722 -0.378602 0.0157259)
(-0.317913 -0.504969 0.0177426)
(-0.334562 -0.658475 0.0114566)
(-0.334152 -0.829489 0.0033428)
(-0.293517 -0.952478 -0.0136306)
(-0.198216 -0.974749 -0.0411191)
(-0.0490782 -0.749346 -0.0510712)
(0.0237633 -0.307561 -0.0128202)
(0.00045884 0.18233 -0.000936301)
(0.0316815 0.380347 -0.0230839)
(0.0881693 0.508373 -0.0347793)
(0.156681 0.566125 -0.0334793)
(0.218137 0.578917 -0.0218989)
(0.26234 0.556624 -0.0119901)
(0.295257 0.514231 -0.0017863)
(0.30369 0.464693 0.0033559)
(0.293082 0.412312 0.00183151)
(0.264732 0.363218 -0.000466959)
(0.222778 0.318061 -0.00305102)
(0.181628 0.277254 -0.00506589)
(0.151205 0.242152 -0.00767491)
(0.133174 0.207635 -0.00907972)
(0.121108 0.175572 -0.0100113)
(0.114638 0.142438 -0.00993735)
(0.107106 0.109071 -0.00923801)
(0.100793 0.0738274 -0.00941169)
(0.0996263 0.0369702 -0.0077141)
(0.100574 0.00525585 -0.00846372)
(0.091922 -0.0152461 -0.00871794)
(0.0845693 -0.0380671 -0.00778733)
(0.0745047 -0.0566062 -0.00624848)
(0.0552712 -0.0756853 -0.00522529)