/*--------------------------------*- C++ -*----------------------------------*\
| =========                 |                                                 |
| \\      /  F ield         | OpenFOAM: The Open Source CFD Toolbox           |
|  \\    /   O peration     | Version:  v1806                                 |
|   \\  /    A nd           | Web:      www.OpenFOAM.com                      |
|    \\/     M anipulation  |                                                 |
\*---------------------------------------------------------------------------*/
FoamFile
{
    version     2.0;
    format      ascii;
    class       vectorField;
    location    "0.075";
    object      currentcloudofpoints;
}
// * * * * * * * * * * * * * * * * * * * * * * * * * * * * * * * * * * * * * //


2409
(
(0.960646 1.40404 0.994812)
(0.715428 1.01912 1.02541)
(1.33031 1.3166 0.999035)
(0.984642 1.23093 0.828468)
(0.971345 1.22859 1.16347)
(1.10703 1.10706 1.00025)
(0.891688 1.58184 1.0045)
(0.591218 0.864327 0.992002)
(1.5236 1.45067 0.999386)
(1.12297 1.11261 0.677148)
(1.09102 1.09991 1.28187)
(1.3028 1.30602 1.07098)
(1.22899 1.28117 1.11736)
(1.15031 1.22908 1.13127)
(1.05943 1.19578 1.11453)
(1.31928 1.31379 1.03767)
(1.26747 1.29126 1.09518)
(1.18284 1.26182 1.13201)
(1.11031 1.198 1.11807)
(1.0054 1.22236 1.13136)
(0.743941 1.03782 1.20657)
(0.794299 1.09948 1.26992)
(0.867913 1.15757 1.24883)
(0.909265 1.19083 1.1913)
(0.730528 1.02651 1.15511)
(0.765019 1.06839 1.24214)
(0.836851 1.13278 1.26749)
(0.888011 1.17658 1.21005)
(0.93427 1.20866 1.17511)
(1.29693 1.30903 0.925446)
(1.22656 1.28092 0.880365)
(1.14214 1.2339 0.872658)
(1.05555 1.19333 0.885685)
(1.31536 1.31321 0.959195)
(1.26295 1.29494 0.902124)
(1.18073 1.25969 0.871093)
(1.10172 1.20637 0.882951)
(1.00829 1.21561 0.867898)
(0.909748 1.18625 0.802689)
(0.864335 1.15276 0.768576)
(0.815677 1.10054 0.761289)
(0.740799 1.02307 0.824288)
(0.943501 1.20994 0.815074)
(0.8823 1.16954 0.793163)
(0.842091 1.13147 0.760036)
(0.784489 1.06153 0.791985)
(0.710159 1.01052 0.886666)
(0.97037 1.31017 1.19937)
(1.00261 1.38976 1.23402)
(0.96493 1.41382 1.16891)
(0.948456 1.41227 1.08865)
(0.954781 1.2631 1.17108)
(0.994321 1.35372 1.22464)
(0.984698 1.40834 1.20325)
(0.955031 1.41345 1.1266)
(0.957375 1.40477 1.03802)
(0.950391 1.41276 0.894673)
(0.959209 1.41512 0.809937)
(1.01042 1.39412 0.75143)
(0.975203 1.3072 0.793811)
(0.958891 1.40307 0.948911)
(0.951864 1.41437 0.854525)
(0.984723 1.41265 0.779157)
(1.00494 1.35422 0.761214)
(0.962517 1.25967 0.822795)
(0.706602 1.04796 1.04478)
(0.704946 1.08501 1.04362)
(0.724169 1.14032 1.01673)
(0.809817 1.28046 0.999506)
(0.711843 1.03844 1.04984)
(0.705799 1.07074 1.04299)
(0.715381 1.11699 1.03597)
(0.750597 1.19432 1.00006)
(0.893618 1.34795 1.00016)
(1.09067 1.44375 1.0046)
(1.16785 1.4262 1.00258)
(1.21657 1.38565 0.99837)
(1.28138 1.34923 0.999437)
(1.02731 1.43615 0.996689)
(1.135 1.43584 1.00639)
(1.1906 1.40725 0.99868)
(1.23145 1.36024 0.999725)
(1.31707 1.34085 0.999053)
(0.553138 0.929925 1.19703)
(0.654917 0.94757 1.3075)
(0.786766 0.990992 1.41372)
(0.861535 1.00381 1.45831)
(0.905641 1.00515 1.39845)
(0.9782 1.03982 1.31037)
(1.0461 1.06329 1.26553)
(0.574261 0.885822 1.1163)
(0.596147 0.926338 1.25712)
(0.72087 0.973203 1.36921)
(0.831215 0.998321 1.44261)
(0.88796 1.00474 1.4338)
(0.931831 1.01547 1.35292)
(1.0121 1.05879 1.26288)
(1.07204 1.07765 1.26606)
(1.1588 1.16967 1.3647)
(1.23098 1.18732 1.34655)
(1.28834 1.22747 1.30924)
(1.34631 1.26846 1.28112)
(1.41353 1.30839 1.23776)
(1.47576 1.37303 1.17667)
(1.51465 1.43122 1.09574)
(1.11748 1.13729 1.32946)
(1.19879 1.17637 1.35891)
(1.25936 1.20615 1.3242)
(1.31457 1.24904 1.292)
(1.37654 1.28606 1.26038)
(1.44415 1.33684 1.20737)
(1.497 1.40195 1.13851)
(1.52046 1.4425 1.04826)
(0.564366 0.921962 0.790931)
(0.65803 0.945942 0.691233)
(0.783973 0.97864 0.581395)
(0.860555 1.00399 0.543763)
(0.915222 1.01241 0.592869)
(0.982192 1.03891 0.68257)
(1.06766 1.05694 0.713698)
(0.584007 0.88589 0.877679)
(0.580956 0.964193 0.733885)
(0.728344 0.955983 0.621584)
(0.828447 0.993392 0.559175)
(0.892748 1.00933 0.562232)
(0.939588 1.01888 0.641161)
(1.02554 1.04914 0.720569)
(1.10292 1.08052 0.701413)
(1.51321 1.43089 0.904597)
(1.47642 1.37481 0.823057)
(1.41472 1.3102 0.762759)
(1.34796 1.26801 0.718749)
(1.28911 1.22648 0.690538)
(1.23472 1.18741 0.657456)
(1.17484 1.16068 0.638412)
(1.51894 1.44187 0.951044)
(1.49658 1.40279 0.861947)
(1.44533 1.33933 0.792252)
(1.37814 1.28636 0.740609)
(1.31572 1.24829 0.7063)
(1.26037 1.20575 0.678496)
(1.20541 1.17373 0.646833)
(1.14498 1.14124 0.650885)
(0.900809 1.60519 1.20039)
(0.896902 1.57218 1.29511)
(0.899363 1.49639 1.33339)
(0.954236 1.38627 1.40689)
(0.976958 1.27683 1.4361)
(1.01453 1.20343 1.43534)
(1.06526 1.14456 1.324)
(0.901467 1.61479 1.12078)
(0.901313 1.59022 1.2595)
(0.894718 1.5333 1.31773)
(0.929214 1.44932 1.36758)
(0.966227 1.31985 1.42921)
(0.991389 1.23825 1.42764)
(1.03703 1.17267 1.40552)
(1.06907 1.12511 1.26854)
(0.892085 1.60824 0.797538)
(0.893035 1.57079 0.707166)
(0.907978 1.49483 0.661328)
(0.95688 1.38599 0.593166)
(0.989396 1.27753 0.553838)
(1.00607 1.21314 0.576904)
(1.0578 1.15688 0.655468)
(0.888733 1.60128 0.876291)
(0.891788 1.59334 0.744919)
(0.898513 1.5303 0.680651)
(0.930889 1.4494 0.637883)
(0.976441 1.31997 0.557936)
(0.995804 1.24569 0.57301)
(1.01363 1.18664 0.596564)
(1.09256 1.13182 0.685597)
(0.574283 0.953545 0.998197)
(0.579385 1.01892 1.0072)
(0.602146 1.07874 0.994339)
(0.614287 1.18688 1.00413)
(0.653724 1.2762 1.0074)
(0.703737 1.33488 0.996951)
(0.769549 1.43749 1.00171)
(0.579937 0.912197 0.993243)
(0.575148 0.988123 1.00441)
(0.59016 1.04698 1.00325)
(0.606569 1.12622 0.992298)
(0.633535 1.23604 1.0125)
(0.677234 1.30498 0.999612)
(0.734166 1.37039 0.996656)
(0.818679 1.51718 1.00372)
(1.00317 1.59838 1.00715)
(1.08767 1.61194 1.00531)
(1.16671 1.62561 1.00802)
(1.26077 1.61238 1.00297)
(1.3413 1.5972 1.00024)
(1.40592 1.56764 0.998943)
(1.46862 1.5158 0.999842)
(0.954113 1.59846 1.00773)
(1.04736 1.60058 1.00565)
(1.12801 1.62079 1.00719)
(1.21627 1.6189 1.00559)
(1.30724 1.60207 1.00142)
(1.37678 1.57943 0.999162)
(1.43756 1.53783 0.999385)
(1.49933 1.48433 0.999639)
(1.03768 1.1384 0.836808)
(1.11258 1.09226 0.737678)
(1.01265 1.20787 0.835305)
(1.03477 1.14495 1.15446)
(1.00071 1.20746 1.15362)
(1.07685 1.09654 1.23186)
(0.68527 0.854823 0.998016)
(0.708986 0.962697 0.98336)
(0.607252 0.867279 0.990135)
(1.42555 1.35809 0.998692)
(1.3806 1.3383 0.999468)
(1.47783 1.3863 0.998591)
(1.10846 1.55133 1.31228)
(1.14823 1.6358 1.20689)
(1.13588 1.31088 1.37691)
(1.3441 1.56407 1.19611)
(1.04605 1.63239 1.1479)
(1.17158 1.24096 1.38232)
(1.46225 1.48728 1.15389)
(1.39119 1.50248 1.2507)
(1.05855 1.6259 1.24268)
(1.22713 1.59006 1.2603)
(1.24616 1.60808 1.16602)
(0.998741 1.52067 1.33199)
(1.27032 1.49469 1.30265)
(1.40523 1.54974 1.1525)
(1.16849 1.48291 1.33987)
(1.43045 1.54412 1.07419)
(1.23216 1.2857 1.38143)
(1.37588 1.57615 1.08991)
(0.98511 1.62272 1.22625)
(1.09186 1.21689 1.36124)
(1.04127 1.29572 1.39403)
(1.20776 1.39792 1.35349)
(1.41827 1.39654 1.25702)
(1.14956 1.6308 1.12553)
(0.975525 1.59241 1.29896)
(1.12297 1.39399 1.36991)
(1.36034 1.3423 1.30278)
(1.31707 1.42316 1.32712)
(0.98455 1.63247 1.1387)
(1.11014 1.17819 1.34883)
(1.48493 1.49688 1.06515)
(1.06897 1.4603 1.35122)
(1.01242 1.38638 1.39473)
(1.29986 1.32546 1.34408)
(1.21495 1.61762 1.07992)
(1.32219 1.59291 1.10042)
(1.16055 1.2082 1.37877)
(1.20464 1.22055 1.37414)
(1.09233 1.13226 1.30717)
(1.12516 1.18055 1.3645)
(1.14002 1.21423 1.37064)
(1.23938 1.23636 1.36026)
(1.26963 1.25432 1.33841)
(1.20651 1.26279 1.38196)
(1.29755 1.27447 1.31624)
(1.32493 1.29588 1.30305)
(1.26722 1.30467 1.36007)
(1.35137 1.30423 1.28593)
(1.38405 1.321 1.26224)
(1.32908 1.33524 1.32498)
(1.41515 1.34729 1.24027)
(1.44459 1.38067 1.21063)
(1.38911 1.36303 1.27954)
(1.4732 1.42781 1.16869)
(1.48894 1.45748 1.12301)
(1.44474 1.44029 1.21467)
(1.50329 1.46637 1.0809)
(1.50707 1.47442 1.03172)
(1.47292 1.49147 1.10937)
(1.47683 1.50619 1.03317)
(1.07598 1.61715 1.08204)
(1.03319 1.62067 1.09246)
(1.01682 1.63144 1.14653)
(1.0005 1.61961 1.07519)
(0.946678 1.62223 1.08558)
(1.17034 1.61997 1.07417)
(1.12825 1.61927 1.08008)
(1.09688 1.62839 1.13882)
(1.24189 1.61182 1.04337)
(1.19454 1.61995 1.04609)
(1.18573 1.6223 1.10534)
(1.33317 1.59216 1.04961)
(1.29901 1.59924 1.05467)
(1.27869 1.59979 1.09895)
(1.39113 1.56822 1.0445)
(1.361 1.58223 1.04735)
(1.3515 1.58201 1.09622)
(1.44915 1.52725 1.03811)
(1.41811 1.55341 1.03699)
(1.40412 1.55755 1.08261)
(1.45733 1.517 1.07202)
(1.08361 1.58981 1.28488)
(1.09867 1.62796 1.22836)
(1.12826 1.60403 1.26886)
(1.18444 1.61669 1.23673)
(1.16642 1.5771 1.29187)
(1.10034 1.63613 1.18118)
(1.15081 1.63639 1.16709)
(1.1981 1.62421 1.18597)
(1.23674 1.60301 1.21643)
(1.19947 1.62189 1.14399)
(1.16281 1.27663 1.37346)
(1.18968 1.30499 1.37889)
(1.13367 1.23283 1.36032)
(1.11268 1.26623 1.36917)
(1.17319 1.35657 1.36667)
(1.2171 1.34002 1.37063)
(1.08339 1.30389 1.37949)
(1.0621 1.25213 1.38494)
(1.12417 1.34945 1.37413)
(1.07911 1.34946 1.37979)
(1.16671 1.40106 1.35683)
(1.33639 1.57585 1.15466)
(1.36551 1.56605 1.14769)
(1.29931 1.57812 1.19237)
(1.29216 1.59236 1.14299)
(1.32832 1.49331 1.28048)
(1.31749 1.5288 1.25763)
(1.37183 1.53273 1.22421)
(1.37839 1.55334 1.17658)
(1.40498 1.52718 1.20493)
(1.39138 1.5613 1.12206)
(1.29383 1.56149 1.23825)
(1.25545 1.53434 1.28954)
(1.02364 1.62186 1.2393)
(1.01628 1.6316 1.18799)
(1.05054 1.63262 1.19956)
(0.983563 1.6278 1.18884)
(0.946116 1.61367 1.22067)
(0.945165 1.60152 1.26801)
(0.943596 1.62337 1.17441)
(0.937254 1.58311 1.29886)
(0.933312 1.54593 1.32273)
(0.981961 1.60863 1.26886)
(0.950291 1.51268 1.33316)
(0.968049 1.46323 1.3577)
(0.989053 1.55643 1.32185)
(0.990449 1.31851 1.41524)
(0.984724 1.38563 1.40077)
(0.999794 1.46335 1.35442)
(1.00611 1.28211 1.40882)
(1.02492 1.24284 1.40623)
(1.02514 1.33659 1.39586)
(1.04882 1.20223 1.39932)
(1.07967 1.17956 1.34703)
(1.08758 1.15541 1.31194)
(1.109 1.19523 1.33874)
(1.05154 1.52689 1.32045)
(1.08346 1.50212 1.3281)
(1.03029 1.48806 1.33609)
(1.11645 1.47222 1.34513)
(1.13894 1.51392 1.32657)
(1.03484 1.56791 1.30733)
(1.20114 1.5321 1.31268)
(1.44798 1.5155 1.11685)
(1.04076 1.42746 1.3697)
(1.06059 1.38157 1.38016)
(1.09812 1.426 1.36344)
(1.143 1.44366 1.35358)
(1.23603 1.61199 1.12679)
(1.43512 1.51709 1.15868)
(1.43151 1.48934 1.20996)
(1.40453 1.4485 1.26594)
(1.41843 1.54276 1.11546)
(1.35012 1.45748 1.29516)
(1.28831 1.46146 1.31353)
(1.3725 1.40527 1.29882)
(1.02268 1.60533 1.27835)
(1.22106 1.4882 1.32188)
(1.18663 1.44183 1.34564)
(1.23384 1.44615 1.33314)
(1.25864 1.41143 1.34243)
(1.25396 1.36335 1.35646)
(1.30671 1.37227 1.34266)
(1.34302 1.38147 1.32327)
(0.784315 1.22847 1.44111)
(0.629459 1.38293 1.25087)
(0.574623 1.1755 1.24078)
(0.614153 1.11999 1.26639)
(0.703883 1.39373 1.30118)
(0.89302 1.22619 1.48223)
(0.570608 1.04123 1.25321)
(0.817051 1.54912 1.26624)
(0.966457 1.11409 1.44053)
(0.671891 1.32069 1.30887)
(0.723589 1.14933 1.36776)
(0.707906 1.47408 1.25381)
(0.815994 1.30614 1.42632)
(0.916655 1.10703 1.4847)
(0.916805 1.29168 1.46111)
(0.836393 1.39593 1.38176)
(0.691464 1.06122 1.33641)
(0.995708 1.16276 1.45023)
(0.549383 1.07669 1.18638)
(0.609813 1.33787 1.15002)
(0.946735 1.16959 1.4685)
(0.796643 1.4645 1.30645)
(0.958333 1.22458 1.44441)
(0.586844 1.24511 1.1368)
(0.841665 1.12442 1.4577)
(0.81011 1.07037 1.43453)
(0.645767 1.23966 1.30592)
(0.781084 1.17281 1.43549)
(0.873497 1.06744 1.4766)
(0.870878 1.17167 1.4808)
(0.555034 1.23683 1.20749)
(0.59533 1.30809 1.23507)
(0.558995 0.970255 1.15637)
(1.0385 1.11342 1.27374)
(0.573654 1.15144 1.11983)
(0.767467 1.51241 1.11812)
(0.685085 1.38329 1.09732)
(0.556598 1.07541 1.22777)
(0.570921 1.10998 1.2351)
(0.601102 1.08129 1.26174)
(0.544526 1.02696 1.21488)
(0.553348 1.028 1.17909)
(0.651449 1.08855 1.29485)
(0.634243 1.04156 1.28531)
(0.549337 0.989981 1.22944)
(0.604036 0.989345 1.27291)
(0.550492 0.963974 1.17752)
(0.666599 1.00691 1.32066)
(0.983053 1.05856 1.3512)
(1.02118 1.084 1.27366)
(0.913231 1.06089 1.45674)
(0.934746 1.06825 1.43978)
(0.942094 1.11256 1.47442)
(1.0361 1.09552 1.24564)
(1.05498 1.11037 1.24672)
(1.01448 1.09236 1.3476)
(0.665636 1.42964 1.25238)
(0.710757 1.4303 1.28179)
(0.672076 1.39223 1.28104)
(0.760266 1.4648 1.28614)
(0.752707 1.42146 1.30625)
(0.75637 1.34845 1.35916)
(0.769744 1.38516 1.34202)
(0.828888 1.34793 1.40784)
(0.686509 1.35501 1.30477)
(0.746268 1.31581 1.37149)
(0.809022 1.42752 1.33541)
(0.654663 1.35345 1.28084)
(0.596898 1.14885 1.2545)
(0.558028 1.1293 1.21771)
(0.552874 1.11075 1.1512)
(0.545504 1.16504 1.18597)
(0.560207 1.02883 1.11391)
(0.564328 0.98433 1.11487)
(0.572389 0.932931 1.08319)
(0.571044 1.07697 1.08192)
(0.765293 1.50682 1.26651)
(0.807275 1.50269 1.29249)
(0.735015 1.51658 1.21361)
(0.792369 1.55615 1.21593)
(0.636598 1.40803 1.19951)
(0.677521 1.45981 1.19175)
(0.719945 1.43914 1.10303)
(0.875734 1.29149 1.45404)
(0.886101 1.3363 1.42912)
(0.904294 1.25737 1.46649)
(0.859947 1.2546 1.46911)
(0.804002 1.26282 1.4397)
(0.84706 1.22129 1.47427)
(0.731256 1.2765 1.37803)
(0.896309 1.03987 1.45891)
(0.896649 1.0869 1.47638)
(0.932405 1.13975 1.47165)
(0.959088 1.14224 1.46336)
(0.901469 1.14294 1.47497)
(0.913262 1.17418 1.47624)
(0.88622 1.11681 1.47047)
(0.860636 1.09872 1.46339)
(0.857271 1.14889 1.46642)
(0.93395 1.32851 1.4352)
(0.90724 1.39041 1.40367)
(0.949747 1.28652 1.44638)
(0.963882 1.25169 1.4354)
(0.93641 1.26004 1.44748)
(0.926713 1.22958 1.45234)
(0.873672 1.44095 1.36062)
(0.849601 1.47625 1.32283)
(1.02527 1.14416 1.39563)
(1.00673 1.1818 1.44404)
(0.983214 1.18593 1.44615)
(0.987028 1.21083 1.44102)
(1.05143 1.12688 1.29431)
(1.01199 1.12414 1.38845)
(0.980639 1.13666 1.43823)
(0.97201 1.16064 1.45058)
(0.954147 1.19293 1.44629)
(0.640304 1.1698 1.29413)
(0.657256 1.13893 1.30472)
(0.610199 1.21368 1.2697)
(0.686111 1.19504 1.34113)
(0.554849 1.19646 1.16426)
(0.557501 1.20462 1.22212)
(0.599005 1.24726 1.25579)
(0.71282 1.11014 1.35117)
(0.857652 1.55714 1.28451)
(0.857272 1.58075 1.2369)
(0.830794 1.57544 1.172)
(0.819926 1.53923 1.06909)
(0.84291 1.51255 1.30492)
(0.883043 1.19896 1.48036)
(0.834905 1.1929 1.47082)
(0.720703 1.23953 1.37769)
(0.663414 1.27554 1.31323)
(0.784365 1.19905 1.44118)
(0.718236 1.21168 1.37621)
(0.829821 1.16945 1.46298)
(0.578118 0.895617 1.08274)
(0.58681 1.11136 1.06461)
(0.600716 1.15078 1.05923)
(0.643636 1.31158 1.07554)
(0.625299 1.26323 1.08405)
(0.613989 1.20584 1.07648)
(0.583703 1.19609 1.12794)
(0.593828 1.29174 1.14308)
(0.697104 1.34313 1.04046)
(0.669366 1.31995 1.04301)
(0.647085 1.36965 1.12918)
(0.766306 1.44749 1.05451)
(0.731306 1.37893 1.04621)
(0.735303 1.02579 1.38057)
(0.841586 1.03751 1.45649)
(0.801842 1.03201 1.4258)
(0.753875 1.06884 1.3908)
(0.869219 1.03521 1.46906)
(0.846608 1.06902 1.45802)
(0.921281 1.20072 1.46661)
(0.768273 1.10808 1.40202)
(0.613134 1.34485 1.24369)
(0.638356 1.31887 1.275)
(0.618762 1.27384 1.26781)
(0.827276 1.09873 1.44338)
(0.788238 1.13166 1.42253)
(0.757937 1.16159 1.4053)
(0.815416 1.14702 1.44855)
(0.588689 1.32526 1.19654)
(0.607206 1.36515 1.20657)
(0.560438 1.24158 1.17338)
(0.569645 1.27988 1.18901)
(0.575491 1.27298 1.22065)
(0.705077 1.18759 0.630456)
(0.743819 1.32921 0.653629)
(0.631266 1.15284 0.694553)
(0.594343 1.11434 0.752673)
(0.664417 1.43591 0.752115)
(0.908667 1.19928 0.511423)
(0.762395 1.50479 0.737126)
(0.970873 1.18255 0.528562)
(0.617905 1.2129 0.719607)
(0.649372 1.35702 0.712149)
(0.852638 1.10758 0.53397)
(0.846761 1.39673 0.617815)
(0.843083 1.2411 0.52827)
(0.683359 1.25494 0.673589)
(0.854971 1.1797 0.522964)
(0.722314 1.41722 0.692717)
(0.946159 1.24307 0.516145)
(0.651554 1.04053 0.681658)
(0.958866 1.11224 0.570217)
(0.563258 1.04922 0.756376)
(0.590872 1.12957 0.862114)
(0.604129 1.3397 0.833907)
(0.571589 1.22666 0.852843)
(0.568291 1.05668 0.828833)
(0.809308 1.47057 0.680554)
(0.574155 1.27961 0.753909)
(0.752122 1.09083 0.588039)
(0.547781 1.16971 0.796661)
(0.90819 1.29819 0.524069)
(0.700756 1.4287 0.896908)
(0.913707 1.1137 0.517548)
(0.57221 0.967234 0.841509)
(0.808795 1.56757 0.812309)
(0.783593 1.1728 0.55391)
(0.84141 1.31034 0.567314)
(1.04565 1.11389 0.693271)
(0.653991 1.23377 0.694452)
(0.703664 1.22402 0.643943)
(0.66651 1.20491 0.672804)
(0.671684 1.17462 0.658998)
(0.629792 1.18389 0.703501)
(0.748308 1.17684 0.588343)
(0.749027 1.21876 0.59898)
(0.692356 1.1216 0.634597)
(0.731577 1.13454 0.602458)
(0.772372 1.13279 0.569336)
(0.93685 1.15872 0.527568)
(0.942945 1.18995 0.528093)
(0.960487 1.15158 0.539873)
(0.925484 1.22288 0.516146)
(0.958247 1.21228 0.535292)
(0.937894 1.11422 0.533149)
(0.911449 1.15695 0.520928)
(0.882845 1.19015 0.517133)
(0.8497 1.21105 0.52658)
(0.878894 1.22097 0.515406)
(0.898634 1.24495 0.512687)
(0.888344 1.14966 0.522684)
(1.04738 1.13498 0.667135)
(1.08894 1.10716 0.709164)
(1.06243 1.08495 0.727777)
(0.742025 1.45472 0.707159)
(0.696407 1.42498 0.711805)
(0.71432 1.46951 0.740677)
(0.768484 1.43865 0.684182)
(0.785704 1.48343 0.702931)
(0.726209 1.49891 0.799774)
(0.682347 1.45458 0.820292)
(0.851134 1.51561 0.689385)
(0.82891 1.52794 0.714136)
(0.786548 1.53872 0.770519)
(0.852481 1.56615 0.741617)
(0.74808 1.51394 0.850257)
(0.97914 1.14949 0.569791)
(0.994537 1.10466 0.64022)
(0.975786 1.22934 0.549776)
(0.987084 1.19928 0.550077)
(0.992538 1.16684 0.573137)
(0.591851 1.24382 0.743646)
(0.622362 1.26189 0.726389)
(0.586976 1.16282 0.751699)
(0.575772 1.19731 0.758509)
(0.550672 1.22262 0.78053)
(0.984719 1.06266 0.65968)
(1.03167 1.08163 0.716487)
(0.942115 1.06915 0.572032)
(0.719758 1.28816 0.65771)
(0.655821 1.29263 0.710108)
(0.687281 1.33504 0.697797)
(0.616331 1.31679 0.730833)
(0.686597 1.38516 0.7013)
(0.655711 1.39557 0.72092)
(0.725809 1.36801 0.683086)
(0.610063 1.36515 0.747095)
(0.625162 1.39603 0.790313)
(0.566074 1.31388 0.77905)
(0.822866 1.17566 0.536042)
(0.853831 1.14437 0.532295)
(0.819218 1.14007 0.542262)
(0.888134 1.11135 0.526713)
(0.894328 1.06355 0.536707)
(0.863995 1.05524 0.540984)
(0.810469 1.09934 0.55428)
(0.824348 1.04816 0.558002)
(0.919679 1.06499 0.547091)
(0.803924 1.36201 0.624025)
(0.781217 1.4026 0.662564)
(0.825072 1.43363 0.653842)
(0.911753 1.39007 0.594931)
(0.880622 1.4427 0.63809)
(0.862129 1.48106 0.66685)
(0.88367 1.33897 0.566629)
(0.936336 1.3298 0.549603)
(0.845942 1.35238 0.590478)
(0.803144 1.32561 0.601812)
(0.877079 1.30081 0.540937)
(0.811844 1.28151 0.574945)
(0.785788 1.24969 0.581369)
(0.81827 1.20822 0.543718)
(0.931901 1.26853 0.513504)
(0.877037 1.26899 0.523008)
(0.844784 1.27007 0.542823)
(0.968362 1.25924 0.537724)
(0.957467 1.28861 0.529993)
(0.639394 1.10008 0.686113)
(0.61573 1.08984 0.719949)
(0.606611 1.13222 0.729033)
(0.587059 1.08346 0.754573)
(0.607665 1.05641 0.72673)
(0.655335 0.990115 0.687671)
(0.720862 1.00352 0.620114)
(0.591109 1.01512 0.727825)
(0.699025 1.06528 0.633097)
(0.775002 1.03429 0.584666)
(0.657699 1.383 0.868602)
(0.575877 1.13853 0.775294)
(0.568578 1.05243 0.784177)
(0.575861 1.09096 0.78283)
(0.563891 1.11393 0.806987)
(0.848479 1.58856 0.799407)
(0.845712 1.57945 0.890808)
(0.577569 1.05392 0.909104)
(0.570245 1.01593 0.904967)
(0.570593 0.970245 0.918606)
(0.577769 0.91932 0.912672)
(0.570977 1.0144 0.829542)
(0.612196 1.09242 0.919208)
(0.595451 1.06861 0.928941)
(0.571051 1.0916 0.853467)
(0.620661 1.19447 0.901626)
(0.618457 1.15256 0.880531)
(0.583336 1.17876 0.852976)
(0.623566 1.25879 0.914328)
(0.642274 1.29565 0.920986)
(0.579403 1.28114 0.844267)
(0.706172 1.36399 0.949663)
(0.678856 1.32234 0.951965)
(0.738321 1.41918 0.947469)
(0.788852 1.52577 0.912618)
(0.566232 0.94748 0.813115)
(0.553231 0.99508 0.765952)
(0.559999 1.00919 0.785292)
(0.55078 1.14785 0.831274)
(0.538083 1.19181 0.827073)
(0.539645 1.25021 0.805973)
(1.1854 1.61774 0.766705)
(1.10553 1.60459 0.713501)
(1.41147 1.54065 0.819082)
(1.11442 1.4002 0.618337)
(1.00248 1.62802 0.801168)
(1.46808 1.47969 0.849873)
(1.17818 1.2454 0.614837)
(1.18102 1.34768 0.623477)
(1.08955 1.61905 0.808095)
(1.14856 1.51063 0.67683)
(1.03652 1.49247 0.664743)
(1.18873 1.61308 0.877115)
(1.21757 1.45823 0.667381)
(1.1101 1.29776 0.619563)
(1.26941 1.55076 0.725807)
(1.08767 1.22599 0.640162)
(1.42559 1.43304 0.755621)
(1.04823 1.27631 0.609945)
(1.03264 1.59844 0.890067)
(1.43823 1.53986 0.923549)
(1.36161 1.59157 0.900409)
(1.33485 1.49153 0.71157)
(1.25869 1.28426 0.630937)
(1.00105 1.59624 0.708105)
(1.10438 1.605 0.901953)
(1.34391 1.57583 0.798752)
(1.31555 1.31519 0.666682)
(1.26784 1.38934 0.646801)
(0.965525 1.6099 0.872791)
(1.48705 1.49213 0.934924)
(1.12193 1.18091 0.644794)
(1.27293 1.60597 0.827548)
(1.29061 1.60953 0.921068)
(1.36234 1.36078 0.694804)
(0.968549 1.50292 0.662884)
(1.02837 1.36141 0.605214)
(1.47841 1.50303 0.966626)
(1.50713 1.47214 0.967715)
(1.50282 1.46354 0.91934)
(1.13629 1.61947 0.778841)
(1.10356 1.62695 0.762254)
(1.14974 1.61374 0.736268)
(1.12292 1.54828 0.682174)
(1.17743 1.56788 0.701021)
(1.19044 1.61014 0.809295)
(1.14213 1.60567 0.823898)
(1.21081 1.52299 0.694962)
(1.23238 1.58798 0.74049)
(1.23029 1.60905 0.790044)
(1.23631 1.60692 0.846497)
(1.27643 1.59295 0.775779)
(1.01261 1.59295 0.946075)
(1.0574 1.59648 0.94694)
(0.926703 1.59931 0.927179)
(0.97743 1.59614 0.945104)
(1.00006 1.60284 0.883827)
(1.09278 1.60819 0.951077)
(1.13127 1.62024 0.953118)
(1.07067 1.59663 0.894705)
(1.17098 1.62298 0.935836)
(1.22329 1.61883 0.941072)
(1.14686 1.60889 0.882042)
(1.32063 1.60235 0.95989)
(1.27573 1.61121 0.958663)
(1.24372 1.61141 0.899293)
(1.35484 1.59221 0.947307)
(1.38909 1.57247 0.946822)
(1.33122 1.59858 0.908942)
(1.42371 1.55043 0.960923)
(1.45314 1.52335 0.960737)
(1.40386 1.56121 0.908246)
(1.46213 1.51189 0.927092)
(1.11157 1.14661 0.661416)
(1.09461 1.16493 0.665487)
(1.14357 1.17701 0.634425)
(0.947644 1.61742 0.750464)
(0.95033 1.62171 0.794164)
(0.984164 1.6177 0.828998)
(0.932327 1.61584 0.828841)
(0.949976 1.58484 0.705911)
(1.0041 1.62639 0.752881)
(1.06063 1.60491 0.838326)
(1.01652 1.61122 0.840619)
(1.0474 1.62066 0.805238)
(1.05667 1.62707 0.757257)
(1.44077 1.50625 0.82803)
(1.42258 1.48865 0.777818)
(1.44974 1.45518 0.799789)
(1.45054 1.39979 0.79495)
(1.47577 1.42591 0.834467)
(1.45465 1.5106 0.8833)
(1.47751 1.48576 0.892589)
(1.42655 1.53763 0.868477)
(1.49112 1.45378 0.879621)
(0.954237 1.54203 0.6789)
(0.956219 1.45108 0.643058)
(0.940461 1.50007 0.662287)
(0.983414 1.54539 0.678308)
(1.00424 1.31182 0.583481)
(0.994327 1.37099 0.599523)
(0.995651 1.43889 0.647281)
(1.02704 1.24149 0.605097)
(1.01334 1.27702 0.592176)
(1.03547 1.31451 0.602554)
(1.07174 1.19059 0.649244)
(1.03657 1.21445 0.616075)
(1.06475 1.24993 0.625012)
(1.11247 1.20099 0.653123)
(1.19905 1.4053 0.648387)
(1.16749 1.43601 0.649743)
(1.14412 1.37368 0.623209)
(1.10384 1.34258 0.61431)
(1.14505 1.32879 0.621228)
(1.07811 1.286 0.618901)
(1.07526 1.33609 0.61163)
(1.07151 1.3845 0.617611)
(1.08659 1.50129 0.672985)
(1.08077 1.4504 0.649861)
(1.13039 1.46492 0.65904)
(1.18543 1.48166 0.676979)
(1.03208 1.43933 0.647883)
(1.05108 1.59763 0.710268)
(1.06242 1.53791 0.676341)
(1.01788 1.53903 0.676471)
(1.14922 1.27594 0.624787)
(1.18403 1.29548 0.620138)
(1.21992 1.26641 0.618848)
(1.22003 1.31832 0.622313)
(1.10292 1.26152 0.630087)
(1.1401 1.239 0.635221)
(1.15362 1.21412 0.630626)
(1.21215 1.22247 0.624428)
(1.25272 1.234 0.650911)
(1.17422 1.20459 0.624541)
(1.22503 1.36896 0.638951)
(1.23994 1.42614 0.658002)
(1.26159 1.33435 0.636245)
(1.09773 1.60268 0.842768)
(1.23948 1.495 0.69492)
(1.00242 1.49798 0.665059)
(1.28591 1.60363 0.871832)
(1.30092 1.51633 0.721501)
(1.27121 1.47273 0.686396)
(1.29608 1.43926 0.671916)
(1.346 1.53066 0.749513)
(1.31039 1.56361 0.758572)
(1.31059 1.59307 0.812788)
(1.34731 1.42797 0.687204)
(1.39373 1.39014 0.722504)
(1.38241 1.46136 0.723685)
(1.38624 1.33127 0.738837)
(1.42112 1.36481 0.764622)
(1.38116 1.51259 0.757462)
(1.31817 1.37691 0.662619)
(1.337 1.33778 0.68066)
(1.29416 1.35186 0.649234)
(1.35413 1.31232 0.714666)
(1.33148 1.29135 0.701638)
(1.38816 1.56742 0.85892)
(1.35519 1.58299 0.847843)
(1.3247 1.59356 0.861445)
(1.3807 1.554 0.805171)
(1.28778 1.29937 0.650379)
(1.28017 1.25363 0.668983)
(1.30377 1.26996 0.686506)
(0.894044 1.25796 1.2642)
(0.743545 1.14583 1.22425)
(0.75296 1.20874 1.17674)
(0.936026 1.33559 1.26851)
(0.800525 1.28165 1.14479)
(0.847946 1.30854 1.2872)
(0.825069 1.20227 1.2831)
(0.796845 1.26074 1.24341)
(0.825303 1.33034 1.21841)
(0.920034 1.2594 1.20165)
(0.711515 1.09318 1.13326)
(0.886902 1.37673 1.26142)
(0.86527 1.36895 1.16572)
(0.715718 1.05761 1.15542)
(0.879263 1.35228 1.08801)
(0.92149 1.37069 1.03245)
(0.912764 1.38463 1.086)
(0.904473 1.39042 1.12374)
(0.911697 1.39774 1.16234)
(0.869155 1.36018 1.12795)
(0.782184 1.17963 1.26244)
(0.809836 1.23834 1.27049)
(0.776932 1.20783 1.2366)
(0.760585 1.19325 1.20321)
(0.785296 1.24565 1.21116)
(0.734728 1.15943 1.16331)
(0.726266 1.12357 1.18203)
(0.725616 1.10005 1.19155)
(0.713148 1.07708 1.14202)
(0.809251 1.15022 1.27612)
(0.764975 1.12453 1.25488)
(0.739202 1.09227 1.22051)
(0.728033 1.05273 1.18629)
(0.804022 1.28145 1.19903)
(0.816794 1.30816 1.1798)
(0.777585 1.24804 1.16422)
(0.767505 1.22288 1.11513)
(0.7463 1.18887 1.13641)
(0.845124 1.34932 1.19353)
(0.835108 1.32828 1.15682)
(0.810921 1.27767 1.08879)
(0.838793 1.31782 1.12151)
(0.852868 1.3185 1.05286)
(0.900572 1.22197 1.22019)
(0.911134 1.22353 1.19223)
(0.911115 1.26352 1.23402)
(0.931038 1.2369 1.17007)
(0.931032 1.30378 1.23397)
(0.911934 1.30128 1.26435)
(0.935698 1.27984 1.19115)
(0.953757 1.32488 1.22424)
(0.845122 1.26018 1.28321)
(0.821611 1.29068 1.26848)
(0.816785 1.30205 1.23104)
(0.835293 1.33191 1.25439)
(0.70957 1.06644 1.10041)
(0.710904 1.09438 1.09656)
(0.71218 1.05211 1.11016)
(0.729075 1.15151 1.13172)
(0.879072 1.20316 1.25182)
(0.864686 1.23156 1.27758)
(0.882072 1.28892 1.28387)
(0.850812 1.17815 1.27241)
(0.895763 1.32603 1.28625)
(0.966331 1.36534 1.25556)
(0.926469 1.39999 1.21206)
(0.946856 1.38987 1.25246)
(0.917039 1.35929 1.2778)
(0.881743 1.37949 1.20505)
(0.719747 1.0362 1.12514)
(0.855483 1.36119 1.23812)
(0.864212 1.34456 1.27781)
(1.06688 1.43835 1.13036)
(1.20703 1.34371 1.06912)
(1.21343 1.36797 1.04502)
(1.15924 1.36553 1.10536)
(1.1721 1.39728 1.17946)
(1.11375 1.33971 1.19773)
(1.20652 1.39874 1.11935)
(1.18258 1.42032 1.06886)
(1.08378 1.36618 1.23364)
(1.28423 1.3429 1.04497)
(1.1515 1.44095 1.14664)
(1.1031 1.42293 1.17569)
(1.11451 1.4458 1.07712)
(1.03976 1.44016 1.05357)
(1.04077 1.30233 1.20836)
(1.20096 1.39222 1.05366)
(1.20553 1.38432 1.0772)
(1.19207 1.41486 1.09675)
(1.16192 1.43394 1.1086)
(1.18232 1.42399 1.13457)
(1.19198 1.36946 1.08193)
(1.16718 1.34937 1.08226)
(1.19167 1.38133 1.11035)
(1.20691 1.35691 1.05868)
(1.17871 1.38677 1.14165)
(1.19174 1.40007 1.1461)
(1.16825 1.42083 1.16159)
(0.996632 1.42937 1.06518)
(1.00197 1.42919 1.0206)
(1.02412 1.42552 1.13761)
(1.01136 1.4298 1.10101)
(1.05059 1.43836 1.09069)
(1.20803 1.31472 1.08171)
(1.25812 1.32481 1.06794)
(1.24003 1.34028 1.05615)
(1.29806 1.33084 1.05701)
(1.31969 1.33695 1.02485)
(1.06188 1.28303 1.16337)
(1.08347 1.2972 1.14527)
(1.10609 1.31826 1.11848)
(1.14902 1.31357 1.09404)
(1.13979 1.37117 1.14735)
(1.03467 1.27211 1.16455)
(0.991817 1.27122 1.17478)
(1.08072 1.31128 1.21007)
(1.04282 1.37928 1.22041)
(1.02641 1.3429 1.22026)
(1.063 1.33233 1.2278)
(1.00154 1.31211 1.20115)
(1.09633 1.40288 1.19994)
(1.05234 1.40683 1.19134)
(1.10649 1.35131 1.22569)
(1.12929 1.39261 1.20524)
(1.14071 1.41511 1.18075)
(1.14842 1.37902 1.18845)
(1.06714 1.44233 1.02876)
(1.04452 1.42035 1.16289)
(1.08573 1.43033 1.14741)
(1.0901 1.44261 1.10361)
(1.08321 1.44282 1.06611)
(1.12625 1.44263 1.11203)
(1.11101 1.4394 1.13524)
(1.13188 1.43058 1.15869)
(1.28289 1.34555 1.02255)
(1.23219 1.34954 1.03975)
(1.23382 1.35285 1.02128)
(1.10677 1.4421 1.03941)
(1.14531 1.43511 1.03944)
(1.19708 1.39805 1.02751)
(1.17433 1.4203 1.0346)
(1.14937 1.4349 1.07449)
(1.2114 1.37436 1.02163)
(1.08834 1.37181 0.780714)
(1.21657 1.33066 0.927402)
(1.13431 1.42601 0.91176)
(1.08988 1.32068 0.820011)
(1.14521 1.4118 0.853992)
(1.19844 1.36713 0.904093)
(1.08043 1.41932 0.801029)
(1.155 1.37069 0.857014)
(1.05841 1.44729 0.846041)
(1.13369 1.33019 0.900196)
(1.25418 1.35309 0.956384)
(1.03181 1.29325 0.794511)
(1.19984 1.39783 0.951432)
(1.06394 1.44291 0.942704)
(0.999878 1.43494 0.867766)
(1.01723 1.4341 0.828609)
(1.01913 1.43297 0.969251)
(1.01191 1.43713 0.916541)
(1.05143 1.44687 0.891513)
(1.08002 1.43578 0.828348)
(1.03154 1.4272 0.799631)
(1.04696 1.41046 0.775719)
(1.03203 1.34222 0.7729)
(1.05805 1.32972 0.773884)
(0.998732 1.30284 0.800539)
(1.0627 1.30073 0.797615)
(1.0948 1.34686 0.791958)
(1.15427 1.39004 0.854928)
(1.12286 1.37947 0.822187)
(1.11761 1.39844 0.837142)
(1.12328 1.35809 0.840405)
(1.05742 1.3852 0.771582)
(1.08589 1.39772 0.79558)
(1.11314 1.41544 0.840048)
(1.08074 1.4411 0.976324)
(1.11257 1.43345 0.854931)
(1.10197 1.43878 0.883356)
(1.14086 1.41953 0.882015)
(1.097 1.43619 0.927727)
(0.997919 1.26452 0.822896)
(1.02807 1.26314 0.841274)
(1.04772 1.2724 0.851182)
(1.16313 1.35004 0.910896)
(1.14213 1.35362 0.885238)
(1.17361 1.36766 0.887564)
(1.10768 1.33598 0.867071)
(1.17563 1.38738 0.878224)
(1.16621 1.32505 0.917919)
(1.18431 1.34708 0.930062)
(1.21493 1.30791 0.909676)
(1.16109 1.30207 0.901722)
(1.10899 1.29776 0.887187)
(1.07534 1.28666 0.867393)
(1.20388 1.35862 0.941722)
(1.22969 1.34362 0.944429)
(1.27493 1.33662 0.94563)
(1.25994 1.32233 0.92594)
(1.12564 1.43237 0.979307)
(1.20962 1.39218 0.976122)
(1.17947 1.41065 0.975131)
(1.16358 1.40952 0.936509)
(1.14511 1.42177 0.961918)
(1.27038 1.35101 0.975859)
(1.2299 1.36499 0.97908)
(1.2197 1.37092 0.959117)
(1.19958 1.38288 0.92517)
(1.30277 1.33952 0.971955)
(1.17359 1.39739 0.905386)
(0.784436 1.26299 0.865973)
(0.678279 1.11976 0.883906)
(0.854962 1.3026 0.714092)