/*--------------------------------*- C++ -*----------------------------------*\
| =========                 |                                                 |
| \\      /  F ield         | OpenFOAM: The Open Source CFD Toolbox           |
|  \\    /   O peration     | Version:  v1806                                 |
|   \\  /    A nd           | Web:      www.OpenFOAM.com                      |
|    \\/     M anipulation  |                                                 |
\*---------------------------------------------------------------------------*/
FoamFile
{
    version     2.0;
    format      ascii;
    class       volScalarField;
    location    "0.115";
    object      p;
}
// * * * * * * * * * * * * * * * * * * * * * * * * * * * * * * * * * * * * * //

dimensions      [0 2 -2 0 0 0 0];


internalField   nonuniform List<scalar> 
64000
(
-3.14364e-05
-0.124488
-0.264778
-0.339835
-0.369046
-0.383296
-0.392918
-0.404508
-0.418446
-0.455698
-0.48501
-0.567541
-0.608273
-0.775338
-0.905713
-1.11293
-1.24955
-1.561
-1.67613
-2.14503
-2.23031
-2.74385
-2.88553
-3.1738
-3.2873
-3.50387
-3.61741
-3.79378
-3.9446
-4.06897
-4.31315
-4.58524
-4.84199
-5.08542
-5.30617
-5.4728
-5.60748
-5.69508
-5.76385
-5.78799
-0.132352
-0.2595
-0.322522
-0.35723
-0.370299
-0.376339
-0.379338
-0.38311
-0.388874
-0.413054
-0.432191
-0.50458
-0.571675
-0.690684
-0.801288
-0.984712
-1.12991
-1.47967
-1.59767
-2.05162
-2.12285
-2.61332
-2.80895
-3.08315
-3.1935
-3.41447
-3.54655
-3.75119
-3.91454
-4.12727
-4.26425
-4.53581
-4.79252
-5.02471
-5.25234
-5.41757
-5.56147
-5.66013
-5.74126
-5.77693
-0.291417
-0.33676
-0.356259
-0.365206
-0.369406
-0.364649
-0.36366
-0.361406
-0.343212
-0.370951
-0.385706
-0.45448
-0.522043
-0.653258
-0.816053
-1.02828
-1.17595
-1.48581
-1.61926
-2.12544
-2.25491
-2.78411
-3.05342
-3.37806
-3.52649
-3.77865
-3.93074
-4.14542
-4.29202
-4.46676
-4.60893
-4.79266
-4.89748
-5.1199
-5.2996
-5.44133
-5.5618
-5.65151
-5.72545
-5.76517
-0.404267
-0.411513
-0.412154
-0.389869
-0.366631
-0.349019
-0.329257
-0.299007
-0.304247
-0.302994
-0.344498
-0.399222
-0.529482
-0.661451
-0.803774
-1.01102
-1.20376
-1.53613
-1.73067
-2.26603
-2.42846
-2.97141
-3.30414
-3.65123
-3.82756
-4.0829
-4.23431
-4.42876
-4.55524
-4.69301
-4.80253
-4.91006
-5.02029
-5.15589
-5.32934
-5.47133
-5.58322
-5.64676
-5.71257
-5.75325
-0.447082
-0.435625
-0.423605
-0.384662
-0.360804
-0.331553
-0.304092
-0.282932
-0.276112
-0.292673
-0.342013
-0.442108
-0.553402
-0.68203
-0.872408
-1.1041
-1.32118
-1.68073
-1.86292
-2.43817
-2.63355
-3.1718
-3.52071
-3.88191
-4.06829
-4.31969
-4.46203
-4.63846
-4.7498
-4.86876
-4.9488
-5.04885
-5.11162
-5.21948
-5.41065
-5.51084
-5.58473
-5.65387
-5.70141
-5.74386
-0.502412
-0.47347
-0.45361
-0.410539
-0.360773
-0.32812
-0.326438
-0.267633
-0.310107
-0.347162
-0.419019
-0.493714
-0.604252
-0.754435
-0.914514
-1.14805
-1.36666
-1.68247
-1.95314
-2.48623
-2.74756
-3.25539
-3.62497
-3.94923
-4.14251
-4.38544
-4.52631
-4.69925
-4.80017
-4.93123
-5.00399
-5.09297
-5.16604
-5.27604
-5.49858
-5.52497
-5.5841
-5.63977
-5.69045
-5.73047
-0.52026
-0.494881
-0.484357
-0.475681
-0.4447
-0.413838
-0.433912
-0.417856
-0.441971
-0.442334
-0.475217
-0.549242
-0.637007
-0.783783
-0.940275
-1.16803
-1.37626
-1.75735
-1.92776
-2.52264
-2.82256
-3.24877
-3.60555
-3.9121
-4.11017
-4.35457
-4.51031
-4.69712
-4.82022
-4.95463
-5.03448
-5.11538
-5.1727
-5.25534
-5.47173
-5.51458
-5.54501
-5.60732
-5.65498
-5.69674
-0.547054
-0.526752
-0.515942
-0.522494
-0.493888
-0.540963
-0.476749
-0.489686
-0.489527
-0.493306
-0.520872
-0.563281
-0.630865
-0.738744
-0.872294
-1.07443
-1.28055
-1.59884
-1.88429
-2.24165
-2.72004
-3.05535
-3.4585
-3.76312
-3.99683
-4.24558
-4.43425
-4.63956
-4.79268
-4.95015
-5.04483
-5.1255
-5.19843
-5.25495
-5.45499
-5.51135
-5.52959
-5.57183
-5.62695
-5.66679
-0.573689
-0.536721
-0.545183
-0.559749
-0.558937
-0.614191
-0.53956
-0.555351
-0.55737
-0.537863
-0.523565
-0.538474
-0.552454
-0.62687
-0.704045
-0.861707
-1.03149
-1.30213
-1.62182
-1.9152
-2.48761
-2.77215
-3.2145
-3.5512
-3.82234
-4.08314
-4.30345
-4.53016
-4.72389
-4.90635
-5.01311
-5.1086
-5.18067
-5.21639
-5.34264
-5.48561
-5.46073
-5.5033
-5.55049
-5.594
-0.606955
-0.559479
-0.583439
-0.60964
-0.655069
-0.65473
-0.636246
-0.584091
-0.551155
-0.498263
-0.527585
-0.441723
-0.425328
-0.426222
-0.456233
-0.546321
-0.671953
-0.866802
-1.16343
-1.3742
-1.99147
-2.28186
-2.91353
-3.26588
-3.60279
-3.87672
-4.13613
-4.39638
-4.62794
-4.8333
-4.99673
-5.08031
-5.14875
-5.20108
-5.29884
-5.44126
-5.43458
-5.44229
-5.4787
-5.52457
-0.631375
-0.582565
-0.615982
-0.670625
-0.715166
-0.72102
-0.68481
-0.61454
-0.543054
-0.466483
-0.371765
-0.288075
-0.270647
-0.193227
-0.160671
-0.21134
-0.302469
-0.476141
-0.758781
-0.921019
-1.59339
-1.85643
-2.58163
-2.94306
-3.31966
-3.61442
-3.90472
-4.20715
-4.47807
-4.7132
-4.87993
-5.00668
-5.05498
-5.08587
-5.13623
-5.29848
-5.29321
-5.29738
-5.33594
-5.38199
-0.657744
-0.610667
-0.654862
-0.72958
-0.763421
-0.760203
-0.723385
-0.614812
-0.510093
-0.380311
-0.248727
-0.107935
0.0172726
0.0912996
0.162993
0.174533
0.0988459
-0.0552769
-0.339557
-0.500794
-1.19184
-1.45582
-2.1946
-2.5597
-2.97622
-3.28446
-3.63252
-3.95733
-4.27569
-4.55475
-4.78092
-4.89574
-5.08869
-5.13447
-5.16149
-5.1461
-5.18766
-5.1702
-5.17103
-5.23193
-0.690539
-0.643926
-0.70378
-0.763735
-0.806803
-0.789597
-0.697818
-0.567956
-0.445321
-0.253907
-0.0654779
0.12664
0.310181
0.464956
0.559415
0.601132
0.571088
0.410405
0.142647
-0.0541191
-0.734617
-1.03192
-1.70682
-2.09743
-2.54887
-2.88594
-3.24992
-3.63035
-3.98978
-4.3398
-4.64656
-4.86041
-4.83896
-4.8875
-4.89673
-5.03491
-4.92623
-4.9465
-4.95286
-5.00728
-0.711213
-0.669469
-0.713419
-0.766746
-0.796108
-0.788857
-0.657812
-0.493006
-0.306799
-0.0795742
0.138805
0.409252
0.647977
0.863193
1.03108
1.07707
1.0885
0.938827
0.676205
0.439314
-0.215542
-0.521395
-1.10652
-1.52116
-2.00931
-2.39338
-2.83644
-3.23187
-3.65681
-4.11894
-4.36054
-4.52061
-4.62658
-4.67472
-4.70228
-4.71293
-4.8362
-4.65341
-4.64185
-4.71418
-0.758461
-0.71281
-0.748998
-0.775733
-0.79213
-0.761136
-0.600074
-0.414009
-0.181756
0.105329
0.410538
0.735068
1.03025
1.31712
1.54125
1.65619
1.67338
1.53979
1.30501
0.99812
0.437951
0.135943
-0.382713
-0.828189
-1.36013
-1.78585
-2.26361
-2.7437
-3.36404
-3.65986
-3.9183
-4.15296
-4.29278
-4.36684
-4.39523
-4.40355
-4.41905
-4.5113
-4.39157
-4.44484
-0.750125
-0.69972
-0.713561
-0.72231
-0.711287
-0.66672
-0.51359
-0.304564
-0.0163166
0.322212
0.705557
1.11143
1.50979
1.85907
2.14588
2.30562
2.35995
2.27066
2.05771
1.61289
1.29782
0.866105
0.409909
-0.0595454
-0.612594
-1.12818
-1.63825
-2.39917
-2.75064
-3.10657
-3.45725
-3.72431
-3.91622
-4.02695
-4.05727
-4.04949
-3.99864
-4.0015
-3.85102
-3.93572
-0.742828
-0.695399
-0.69428
-0.677138
-0.649364
-0.581062
-0.414408
-0.175147
0.156039
0.563156
1.02484
1.53225
2.02469
2.47318
2.82055
3.02872
3.13615
3.08451
2.89924
2.57333
2.24219
1.80088
1.31998
0.844831
0.285909
-0.260798
-1.08042
-1.51537
-1.94877
-2.40799
-2.80784
-3.14581
-3.40365
-3.56098
-3.64054
-3.63702
-3.61082
-3.59888
-3.79075
-3.6275
-0.686533
-0.608907
-0.581623
-0.538397
-0.505099
-0.428721
-0.267079
0.00590657
0.403672
0.910624
1.51005
2.13663
2.76735
3.27178
3.70668
4.01682
4.26706
4.37168
4.18685
3.88448
3.34698
2.84871
2.37898
1.88686
1.29298
0.565606
-0.0141943
-0.541437
-1.1197
-1.6208
-2.09492
-2.48442
-2.78515
-2.98168
-3.08277
-3.0743
-3.01426
-2.97616
-2.95374
-2.91424
-0.462932
-0.402166
-0.340723
-0.285843
-0.210104
-0.11641
0.0601099
0.320863
0.736542
1.34464
2.13064
3.00671
3.85895
4.54938
5.05919
5.42483
5.66475
5.7801
5.62747
5.34083
4.83903
4.2623
3.7902
3.24056
2.51266
1.75662
1.16357
0.530109
-0.0519321
-0.589549
-1.16723
-1.65275
-2.06036
-2.331
-2.51765
-2.65638
-2.62002
-2.44301
-2.48739
-2.69395
-0.589637
-0.515411
-0.43384
-0.338374
-0.276395
-0.149833
-0.060441
0.22371
0.865403
1.72019
2.73325
3.795
4.80631
5.5555
6.1484
6.60529
6.96264
7.1772
7.17587
6.88776
6.54091
5.95375
5.20512
4.79027
4.01406
3.34072
2.75132
2.11948
1.29718
0.488957
-0.183978
-0.704634
-1.12466
-1.39454
-1.54536
-1.52122
-1.49388
-1.64937
-1.57037
-1.68618
-0.366054
-0.298243
-0.19816
-0.0830545
0.038477
0.209482
0.413253
0.665483
1.38761
2.31826
3.44154
4.63327
5.73364
6.58326
7.29248
7.84672
8.24675
8.51259
8.64571
8.4953
8.0828
7.34784
6.5436
5.9397
5.31487
4.73903
4.12341
3.5384
2.7677
1.95159
1.15563
0.490003
-0.134382
-0.541665
-0.823388
-0.902773
-0.879472
-0.811951
-0.780826
-0.700102
-0.283477
-0.176105
-0.0481008
0.122542
0.317867
0.547813
0.83133
1.12784
1.87816
2.88421
4.11683
5.45311
6.59703
7.54111
8.34292
8.97809
9.42131
9.71539
9.93187
9.86054
9.48406
8.78983
7.94679
7.03726
6.45064
5.83772
5.19039
4.59545
3.96532
3.35638
2.73621
2.20898
1.66712
1.20751
0.76578
0.472361
0.244473
0.0653233
-0.0699529
-0.186122
-0.222948
-0.0852314
0.0350834
0.236134
0.461386
0.735299
1.07745
1.45432
2.21884
3.33518
4.70587
6.09938
7.28285
8.31331
9.19609
9.90876
10.4489
10.7413
10.973
10.9867
10.6452
10.0264
9.01258
8.10956
7.39652
6.78025
6.08348
5.43781
4.7513
4.10848
3.42985
2.8612
2.35097
2.06661
1.98328
2.01448
2.02814
2.06341
2.07012
2.06735
-0.13827
0.00736376
0.166397
0.410241
0.668412
1.00461
1.38097
1.84897
2.59236
3.7429
5.14871
6.53178
7.74411
8.83933
9.78583
10.5883
11.1786
11.5456
11.7292
11.8913
11.5275
10.921
9.9079
9.04393
8.2361
7.58205
6.92193
6.26348
5.55717
4.91652
4.23896
3.69095
3.18606
2.89707
2.65924
2.5668
2.48917
2.48801
2.43436
2.21331
-0.119424
-0.0189278
0.194173
0.454758
0.735679
1.11096
1.5024
1.99098
2.76433
3.91773
5.29638
6.67027
7.88194
8.97369
9.93808
10.7898
11.4736
11.9618
12.2134
12.3609
12.0603
11.3852
10.526
9.86439
8.99952
8.13539
7.57532
6.91863
6.1939
5.54904
4.85548
4.28474
3.72596
3.39448
3.11207
3.00512
2.90185
2.92464
2.96491
2.86087
-0.115685
-0.0194933
0.201256
0.499172
0.778418
1.18043
1.58541
2.13035
2.88782
3.96346
5.19628
6.4335
7.5684
8.62341
9.61321
10.519
11.3413
11.9178
12.1775
12.1199
12.0873
11.6704
10.9659
10.4014
9.61029
8.7546
7.91714
7.37029
6.70185
6.09899
5.46924
4.97956
4.4689
4.15972
3.83274
3.68284
3.49935
3.45276
3.3869
3.19537
-0.213884
-0.113518
0.0755183
0.408682
0.683591
1.05882
1.43325
2.02467
2.74378
3.71564
4.80179
5.90418
6.9463
7.93917
8.87443
9.76827
10.539
11.1181
11.31
11.5914
11.8732
11.6598
11.141
10.6118
9.89694
9.16246
8.34625
7.57881
7.02628
6.43276
5.7922
5.24228
4.65574
4.34082
4.01958
3.93277
3.81216
3.82242
3.85542
3.86657
-0.305487
-0.194705
-0.0774448
0.291627
0.549736
0.880924
1.16929
1.78307
2.45039
3.28978
4.21117
5.17281
6.0846
6.95912
7.77184
8.61985
9.2584
9.71572
9.87355
10.5305
11.2735
11.3596
11.1109
10.5961
9.96568
9.31047
8.58534
7.73244
7.23535
6.6058
5.81936
5.24553
4.68192
4.35454
3.92545
3.72341
3.45188
3.42912
3.38183
3.35237
-0.519117
-0.430859
-0.294375
-0.0274585
0.270741
0.543705
0.867497
1.34559
1.90896
2.62075
3.39393
4.19676
4.96405
5.69077
6.36212
7.05513
7.61218
8.09232
8.67144
9.29311
10.3145
10.3837
10.6612
10.3876
9.88007
9.31472
8.69079
7.98726
7.57723
6.98565
6.28494
5.86308
5.3476
5.07555
4.64618
4.47267
4.14965
4.11953
3.98908
3.99445
-0.698627
-0.62896
-0.4968
-0.319398
-0.0425368
0.157875
0.484504
0.873158
1.33633
1.91976
2.5285
3.18448
3.80643
4.39996
4.94688
5.46349
6.06957
6.74338
7.59948
8.04554
9.21896
9.47372
9.86157
9.88766
9.59292
9.23499
8.78905
8.19042
7.83123
7.26632
6.69323
6.34835
5.87605
5.64241
5.21684
5.09037
4.75758
4.81333
4.71366
4.82451
-1.02549
-0.970931
-0.869542
-0.726021
-0.531533
-0.348101
-0.0734928
0.241534
0.606874
1.08516
1.55998
2.08591
2.58209
3.09986
3.58052
4.03891
4.63724
5.47776
6.23975
6.66926
7.94794
8.32596
8.86266
9.12895
9.06829
8.95598
8.70732
8.25577
7.7509
7.39607
6.8706
6.62301
6.16117
6.0665
5.60879
5.59842
5.28581
5.46213
5.41838
5.61472
-1.24578
-1.2152
-1.1714
-1.05308
-0.946206
-0.712243
-0.553509
-0.315054
-0.0568003
0.315893
0.688262
1.085
1.4981
1.93993
2.37618
2.79003
3.34502
4.3245
4.96522
5.34733
6.67254
7.12584
7.8671
8.28068
8.45643
8.41461
8.61829
7.99769
7.76881
7.36656
6.9792
6.81415
6.40576
6.36912
6.00495
6.08577
5.74639
6.08715
6.07371
6.48064
-1.64915
-1.63944
-1.5976
-1.50788
-1.52607
-1.30028
-1.15232
-1.00516
-0.807936
-0.524833
-0.244397
0.142599
0.461263
0.791075
1.12609
1.56399
2.30222
3.01203
3.63691
4.04871
5.37453
5.88838
6.89647
7.33153
7.71582
7.81031
8.22807
7.69528
7.51783
7.26366
6.86697
6.86385
6.43035
6.54071
6.1339
6.43842
6.09978
6.57842
6.65077
7.33012
-1.84534
-1.82616
-1.82953
-1.7704
-1.72752
-1.6864
-1.56521
-1.47854
-1.41209
-1.17142
-0.973262
-0.761562
-0.541574
-0.291252
0.219559
0.870165
1.31616
1.8585
2.4785
2.92107
4.21094
4.79223
5.96642
6.49485
7.0411
7.29037
7.81306
7.42628
7.24232
7.14918
6.82042
6.84921
6.52892
6.66743
6.31631
6.74118
6.44252
7.22036
7.23115
8.37146
-2.27279
-2.29696
-2.26601
-2.27018
-2.19758
-2.20171
-2.10438
-2.06144
-2.01337
-1.89359
-1.87904
-1.68061
-1.34178
-0.842549
-0.488117
-0.105269
0.272509
0.699846
1.38706
1.89357
3.13172
3.76702
5.06808
5.70137
6.40191
6.81658
7.40693
7.14346
6.94196
6.96256
6.66582
6.78279
6.39068
6.74237
6.23465
6.84154
6.44076
7.58786
7.61706
9.36884
-2.41219
-2.36141
-2.40073
-2.37548
-2.36888
-2.35448
-2.36169
-2.27662
-2.42717
-2.37398
-2.22294
-1.99083
-1.84726
-1.55374
-1.26003
-0.875829
-0.561496
-0.123049
0.519411
1.09212
2.29603
2.97625
4.12293
5.06676
5.91132
6.68411
7.04748
6.91186
6.6882
6.75608
6.50452
6.77765
6.33033
6.80525
6.38152
7.07265
6.61073
8.23271
8.12899
11.0202
-2.78547
-2.86711
-2.84331
-2.8669
-2.80046
-2.7611
-2.74416
-2.74038
-2.68635
-2.62365
-2.63729
-2.54185
-2.42263
-2.22187
-1.99122
-1.61487
-1.26209
-0.811943
-0.163056
0.491664
1.67493
2.44674
3.5647
4.58316
5.46723
6.35403
6.71676
6.72156
6.52657
6.57848
6.312
6.63698
6.17514
6.80004
6.19657
7.18031
6.44447
8.41356
8.57492
12.7687
-3.48078
-2.99739
-3.0533
-2.78351
-2.85429
-2.69891
-2.77222
-2.54477
-2.78317
-2.73533
-2.79885
-2.75049
-2.69693
-2.53707
-2.36127
-2.03717
-1.72557
-1.18005
-0.602954
0.196553
1.41253
2.20662
3.28146
4.33853
5.23212
6.15248
6.42104
6.55476
6.36732
6.45381
6.19437
6.5658
6.17939
6.92688
6.37428
7.74591
7.10081
9.80957
9.93199
17.4171
-3.44942
-3.70845
-3.52371
-3.48988
-3.09511
-3.11168
-2.94899
-2.81365
-2.77655
-2.82162
-2.95889
-2.94062
-2.88428
-2.74191
-2.58863
-2.32514
-2.01254
-1.5074
-0.878521
-0.0315085
1.14459
1.99619
3.08609
4.18323
5.0582
6.04159
6.28868
6.51335
6.34054
6.4019
6.13318
6.49517
6.019
6.83045
6.22939
7.69514
7.00198
10.6194
12.089
22.067
-6.11199
-3.33703
-3.67675
-3.21763
-3.11665
-2.91343
-2.93008
-2.7692
-2.83943
-2.87631
-2.94821
-2.9596
-2.93688
-2.81712
-2.69704
-2.45978
-2.22452
-1.74016
-1.02878
-0.0521922
1.15907
2.10342
3.21909
4.33094
5.08022
5.94995
6.04672
6.27787
6.12322
6.24476
6.04657
6.5579
6.16869
7.0137
6.61156
8.54207
8.78766
14.7451
19.7903
35.0137
-0.133264
-0.261573
-0.329935
-0.373015
-0.388243
-0.399897
-0.402217
-0.417005
-0.422343
-0.468289
-0.474401
-0.578703
-0.651811
-0.801256
-0.922752
-1.14968
-1.27156
-1.60151
-1.71022
-2.25667
-2.31661
-2.7853
-3.00229
-3.28075
-3.39824
-3.61447
-3.73232
-3.93053
-4.08316
-4.28538
-4.40722
-4.67307
-4.93057
-5.14708
-5.35856
-5.51444
-5.66317
-5.75606
-5.82189
-5.82717
-0.273516
-0.333985
-0.370011
-0.390077
-0.388889
-0.391935
-0.384505
-0.39378
-0.376709
-0.415041
-0.425999
-0.515933
-0.586854
-0.704555
-0.816489
-1.02288
-1.17184
-1.50569
-1.62998
-2.1314
-2.28909
-2.72983
-2.96716
-3.25378
-3.38276
-3.61959
-3.75328
-3.96251
-4.12778
-4.32549
-4.50351
-4.70147
-4.90151
-5.09899
-5.3205
-5.47516
-5.61424
-5.70401
-5.7772
-5.80252
-0.36346
-0.387672
-0.393269
-0.393602
-0.383883
-0.379348
-0.361609
-0.357134
-0.352847
-0.39777
-0.399952
-0.467523
-0.534058
-0.665986
-0.811449
-1.05134
-1.20993
-1.53247
-1.69497
-2.23513
-2.45592
-2.94483
-3.26643
-3.60397
-3.75869
-4.01564
-4.16301
-4.36835
-4.51333
-4.67134
-4.78765
-4.91596
-5.05701
-5.23008
-5.36733
-5.49272
-5.61493
-5.69452
-5.76378
-5.79275
-0.445535
-0.446867
-0.439571
-0.411134
-0.382825
-0.35762
-0.349086
-0.334024
-0.308309
-0.315829
-0.340667
-0.40715
-0.513548
-0.675811
-0.828591
-1.06491
-1.2546
-1.60571
-1.82009
-2.3833
-2.67925
-3.19393
-3.55479
-3.90003
-4.06552
-4.31432
-4.4547
-4.63217
-4.7485
-4.86453
-4.9499
-5.02611
-5.10708
-5.22457
-5.40185
-5.52143
-5.65382
-5.69217
-5.75433
-5.78479
-0.476028
-0.47473
-0.436887
-0.412777
-0.37963
-0.357544
-0.341399
-0.301001
-0.282151
-0.301539
-0.344112
-0.450633
-0.5685
-0.721838
-0.899407
-1.15277
-1.36948
-1.73677
-1.98816
-2.51445
-2.82618
-3.33932
-3.71774
-4.05163
-4.21139
-4.44897
-4.60483
-4.79761
-4.88858
-4.98583
-5.04055
-5.11651
-5.18164
-5.29022
-5.45713
-5.55813
-5.64171
-5.70067
-5.75003
-5.77518
-0.526697
-0.495546
-0.473436
-0.446052
-0.374247
-0.366529
-0.347759
-0.30856
-0.310981
-0.354497
-0.420869
-0.504642
-0.616611
-0.775786
-0.946493
-1.19341
-1.42211
-1.77184
-2.03338
-2.55689
-2.90808
-3.39148
-3.7708
-4.09619
-4.27527
-4.49704
-4.63643
-4.77948
-4.89233
-5.00126
-5.07151
-5.16464
-5.20902
-5.34376
-5.52689
-5.58601
-5.65
-5.69887
-5.74232
-5.77532
-0.543886
-0.528067
-0.519247
-0.494995
-0.433527
-0.431281
-0.453337
-0.427071
-0.438414
-0.447146
-0.479586
-0.558014
-0.650638
-0.790201
-0.941115
-1.17124
-1.41157
-1.78314
-2.0411
-2.54118
-2.91112
-3.33733
-3.68938
-4.01045
-4.19514
-4.43548
-4.59403
-4.77246
-4.86978
-4.98789
-5.05841
-5.1269
-5.19478
-5.29449
-5.5278
-5.57585
-5.61452
-5.66812
-5.71012
-5.74514
-0.578359
-0.563924
-0.561457
-0.561554
-0.507625
-0.562856
-0.526332
-0.499965
-0.503599
-0.509662
-0.528056
-0.569617
-0.638759
-0.748394
-0.869333
-1.07886
-1.29066
-1.61673
-1.8975
-2.30202
-2.73798
-3.12708
-3.49168
-3.83054
-4.0646
-4.32207
-4.52859
-4.71114
-4.85608
-4.96542
-5.05671
-5.13956
-5.20861
-5.2903
-5.49561
-5.59264
-5.61462
-5.65748
-5.69259
-5.72787
-0.612003
-0.595411
-0.603856
-0.61707
-0.564647
-0.657177
-0.577843
-0.594853
-0.563673
-0.549989
-0.529991
-0.535604
-0.553384
-0.620986
-0.695604
-0.850379
-1.02195
-1.29971
-1.60836
-1.9665
-2.43945
-2.82086
-3.23105
-3.60341
-3.88837
-4.16925
-4.40274
-4.61484
-4.77458
-4.91514
-5.00438
-5.16703
-5.23201
-5.26473
-5.38115
-5.52992
-5.55127
-5.57965
-5.62175
-5.65544
-0.661791
-0.633615
-0.663373
-0.675897
-0.664315
-0.666392
-0.705593
-0.644575
-0.588423
-0.551024
-0.486501
-0.453156
-0.420971
-0.41557
-0.444037
-0.534633
-0.656518
-0.863323
-1.13494
-1.44984
-1.96153
-2.35109
-2.92421
-3.32101
-3.67721
-3.981
-4.25326
-4.47363
-4.69752
-4.92416
-5.09204
-5.17142
-5.2473
-5.30688
-5.41398
-5.51161
-5.52637
-5.54448
-5.55986
-5.59668
-0.690981
-0.667669
-0.699981
-0.741772
-0.749003
-0.761358
-0.734068
-0.654018
-0.58253
-0.540655
-0.386835
-0.30794
-0.217632
-0.167934
-0.123801
-0.190385
-0.280778
-0.463601
-0.720138
-0.986723
-1.50922
-1.9033
-2.5955
-3.0018
-3.4053
-3.72507
-4.02631
-4.3187
-4.61419
-4.83548
-5.02411
-5.08656
-5.13543
-5.13966
-5.24773
-5.40097
-5.36731
-5.39995
-5.42157
-5.45506
-0.726653
-0.70682
-0.756827
-0.819729
-0.816055
-0.788482
-0.76907
-0.661826
-0.550749
-0.409956
-0.259353
-0.169035
0.021097
0.146842
0.223869
0.211189
0.122833
-0.0481828
-0.311204
-0.578925
-1.10722
-1.49353
-2.20078
-2.62587
-3.06289
-3.39202
-3.7451
-4.07745
-4.44671
-4.75398
-4.93604
-5.16365
-5.2042
-5.26434
-5.29201
-5.39809
-5.31022
-5.25345
-5.26424
-5.30459
-0.774743
-0.75444
-0.827475
-0.882229
-0.899753
-0.841629
-0.738775
-0.554837
-0.574594
-0.284921
-0.103581
0.109721
0.262557
0.491784
0.653568
0.654901
0.593263
0.416249
0.152643
-0.138041
-0.667076
-1.04614
-1.70933
-2.16838
-2.65726
-3.01411
-3.36031
-3.90464
-4.24763
-4.61142
-4.85023
-4.88549
-4.94747
-4.91704
-4.92779
-5.01601
-5.16764
-5.05505
-5.06504
-5.08995
-0.809604
-0.789867
-0.855462
-0.911544
-0.930853
-0.864031
-0.72022
-0.528093
-0.33739
-0.056275
0.0190924
0.394971
0.621587
0.834153
1.10383
1.17132
1.11793
0.944769
0.671775
0.350786
-0.160146
-0.525799
-1.09969
-1.57582
-2.103
-2.51166
-3.14821
-3.51781
-3.89142
-4.26236
-4.46799
-4.65473
-4.7423
-4.78067
-4.71813
-4.74628
-4.79814
-4.76672
-4.68529
-4.78992
-0.863876
-0.834306
-0.88562
-0.918733
-0.933919
-0.864958
-0.692145
-0.483339
-0.257682
0.0891207
0.39711
0.782528
0.962564
1.31685
1.549
1.72817
1.72365
1.55434
1.29177
0.924613
0.481823
0.133621
-0.364127
-0.84899
-1.44083
-1.88184
-2.54341
-3.04023
-3.61572
-3.79017
-4.0824
-4.29596
-4.43191
-4.4851
-4.45318
-4.41722
-4.4691
-4.5964
-4.54926
-4.51112
-0.863251
-0.822228
-0.854205
-0.869356
-0.856907
-0.754015
-0.606526
-0.373976
-0.0797033
0.2772
0.646192
1.13588
1.54047
1.89328
2.14746
2.3342
2.42498
2.27877
2.01539
1.63811
1.29794
0.903515
0.450731
-0.0251859
-0.695476
-1.41772
-1.93505
-2.60345
-2.88644
-3.27517
-3.61189
-3.88266
-4.06482
-4.16114
-4.15183
-4.105
-4.05768
-4.05978
-3.98505
-3.97455
-0.847895
-0.832273
-0.845541
-0.841234
-0.791543
-0.660347
-0.521297
-0.25894
0.0776393
0.501514
0.951547
1.51395
2.06734
2.5344
2.92493
3.02667
3.24499
3.1567
2.96204
2.65885
2.28589
1.87218
1.40105
0.913738
0.258111
-0.55837
-1.19355
-1.62756
-2.12312
-2.56952
-2.97516
-3.30821
-3.55661
-3.69856
-3.74428
-3.72158
-3.67592
-3.65053
-3.80876
-3.82831
-0.786811
-0.732672
-0.711322
-0.694464
-0.58924
-0.477367
-0.340505
-0.0637641
0.339825
0.862871
1.47369
2.13459
2.79636
3.36654
3.81107
4.12547
4.39022
4.45039
4.28974
3.98278
3.52567
3.04185
2.5176
1.95863
1.41106
0.679263
-0.0393063
-0.682864
-1.26061
-1.77358
-2.2501
-2.64241
-2.94333
-3.13455
-3.20411
-3.2241
-3.12592
-3.01194
-3.01279
-3.04302
-0.60047
-0.562781
-0.537103
-0.470605
-0.323396
-0.206685
-0.087346
0.18446
0.624602
1.25882
2.07177
2.95678
3.82676
4.56248
5.13231
5.55914
5.86226
5.9541
5.82243
5.5075
5.02724
4.45089
3.8606
3.33814
2.69005
1.97679
1.24664
0.542731
-0.129548
-0.739318
-1.32105
-1.80457
-2.20524
-2.4605
-2.61137
-2.63997
-2.59358
-2.47632
-2.5192
-2.55722
-0.72281
-0.635152
-0.578783
-0.510427
-0.36614
-0.28953
-0.183393
0.141671
0.812754
1.68721
2.72423
3.81784
4.88511
5.69773
6.34211
6.87599
7.31359
7.51397
7.41608
7.08561
6.65491
6.01294
5.30283
4.91638
4.08224
3.44917
2.78043
2.0595
1.23687
0.478788
-0.199413
-0.756972
-1.20706
-1.49103
-1.61991
-1.65179
-1.6346
-1.59815
-1.65709
-1.72618
-0.53341
-0.442547
-0.357873
-0.248003
-0.0615388
0.0407215
0.210446
0.544874
1.31018
2.27942
3.44137
4.68195
5.86378
6.78737
7.55496
8.17162
8.63892
8.94882
9.0529
8.70123
8.21462
7.55349
6.93699
6.17849
5.41905
4.82311
4.22149
3.588
2.80181
2.01341
1.23348
0.555014
-0.0805083
-0.538399
-0.846074
-0.923736
-0.939234
-0.830378
-0.802157
-0.835795
-0.376427
-0.286962
-0.162048
-0.00152106
0.18919
0.423913
0.672586
1.01913
1.7965
2.84708
4.13546
5.53576
6.78153
7.79262
8.64701
9.32785
9.82968
10.2003
10.4322
10.3211
9.74182
9.02331
8.42293
7.46686
6.67724
5.98072
5.30447
4.70815
4.0169
3.342
2.68215
2.14658
1.63409
1.20199
0.814525
0.542437
0.350001
0.242509
0.0882961
-0.207844
-0.310314
-0.201927
-0.0474779
0.142304
0.369372
0.664262
0.976214
1.3803
2.16972
3.33014
4.75718
6.24613
7.52947
8.62071
9.54082
10.2746
10.8414
11.2396
11.6114
11.5878
11.2698
10.5433
9.63308
8.71922
7.80519
7.02388
6.26056
5.5783
4.88202
4.21196
3.50441
2.91674
2.3851
2.05993
1.9236
1.93549
1.93246
1.993
2.02823
1.99218
-0.205776
-0.0694497
0.115669
0.345754
0.604864
0.951315
1.31356
1.79232
2.57363
3.76906
5.24275
6.72621
8.04133
9.19285
10.166
10.9728
11.6512
12.1664
12.5752
12.699
12.3235
11.6782
10.6502
9.52928
8.73129
7.94713
7.16619
6.43278
5.68953
5.01865
4.33079
3.76863
3.24508
2.94312
2.72791
2.63399
2.56609
2.56396
2.59712
2.37824
-0.157864
-0.0626815
0.170823
0.430971
0.707177
1.05983
1.47693
2.01476
2.81613
3.99922
5.43561
6.88672
8.21197
9.39038
10.4078
11.333
12.1466
12.7742
13.1515
13.2274
12.8942
12.3253
11.3308
10.4196
9.43155
8.54364
7.87568
7.14511
6.36261
5.66879
4.94781
4.36136
3.79879
3.45824
3.16475
3.04819
2.94155
2.98388
3.03856
2.97482
-0.156279
-0.066784
0.180907
0.496385
0.793333
1.1687
1.59081
2.16632
2.95714
4.06869
5.37161
6.71773
7.98445
9.13129
10.1955
11.1913
12.0627
12.7143
13.0698
12.909
12.7577
12.4815
11.7399
11.0461
10.0963
9.2471
8.23486
7.72847
6.90316
6.24587
5.59141
5.07697
4.5516
4.2394
3.90179
3.74625
3.55129
3.48791
3.47058
3.32887
-0.245826
-0.146417
0.0460497
0.387143
0.682637
1.07784
1.51103
2.06827
2.82617
3.82836
4.9776
6.17874
7.32543
8.41192
9.45325
10.4411
11.2873
11.9008
12.1064
11.9552
12.359
12.2954
11.7723
11.1968
10.4958
9.54545
8.75829
7.79786
7.11007
6.47202
5.81664
5.28829
4.71896
4.40494
4.05061
3.94475
3.78628
3.82264
3.83931
3.8579
-0.338397
-0.21529
-0.087035
0.269558
0.555435
0.892678
1.28334
1.83734
2.52254
3.38948
4.36279
5.38762
6.37757
7.33507
8.26778
9.16141
9.87675
10.3712
10.4749
10.7172
11.8217
11.7652
11.532
11.1042
10.4954
9.81535
8.85702
8.11072
7.16114
6.69178
5.84671
5.35855
4.75636
4.43456
3.99153
3.80488
3.48519
3.45483
3.44912
3.40482
-0.557769
-0.437729
-0.319728
-0.0494088
0.25976
0.549476
0.886816
1.37228
1.95423
2.67861
3.48447
4.33449
5.15359
5.9494
6.70979
7.42482
8.00984
8.4327
8.80781
9.4666
10.6982
10.8603
10.9587
10.7731
10.3329
9.77375
9.07015
8.31711
7.46736
7.06841
6.35413
5.91186
5.32066
5.02851
4.57553
4.40581
4.04772
4.08993
3.98359
4.01389
-0.73015
-0.617947
-0.523871
-0.334428
-0.0553711
0.196558
0.481344
0.87607
1.32931
1.91829
2.55304
3.23176
3.89216
4.53545
5.1292
5.68273
6.1987
6.74903
7.44766
8.39364
9.44106
9.82477
10.1016
10.1512
9.98323
9.66213
9.10874
8.47316
7.78979
7.37345
6.7217
6.39934
5.84789
5.592
5.12954
5.01673
4.63252
4.78098
4.6528
4.7915
-1.06111
-0.969271
-0.887308
-0.758908
-0.557135
-0.319229
-0.0868877
0.217254
0.562531
1.01563
1.50606
2.05504
2.58239
3.12277
3.61882
4.09595
4.62147
5.26893
6.15779
6.93249
8.07469
8.64197
9.06139
9.30153
9.39219
9.31402
8.97333
8.40547
7.74492
7.3636
6.99582
6.67055
6.16619
6.06115
5.5076
5.51538
5.10879
5.40035
5.26972
5.58669
-1.27071
-1.22616
-1.16981
-1.06566
-0.985179
-0.731861
-0.582749
-0.357841
-0.132876
0.222422
0.58683
1.00237
1.43854
1.89098
2.34346
2.83466
3.36349
4.06578
5.06846
5.47155
6.70461
7.39629
8.00785
8.40081
8.71494
8.80494
8.72357
8.2239
7.71358
7.37503
7.06977
6.85557
6.4134
6.35361
5.94556
5.979
5.52009
5.9721
5.79004
6.31746
-1.67533
-1.68132
-1.59396
-1.54921
-1.51554
-1.3553
-1.20097
-1.06924
-0.946843
-0.634551
-0.349901
0.00795287
0.312723
0.7284
1.16216
1.65697
2.17908
2.79658
3.49654
4.06592
5.3196
6.01723
6.90818
7.44637
7.92761
8.18989
8.27309
7.89861
7.51169
7.31176
6.92505
6.92951
6.43896
6.55932
5.97697
6.35233
5.78763
6.34679
6.12449
6.95042
-1.86877
-1.86377
-1.86041
-1.78541
-1.79148
-1.74572
-1.63541
-1.55425
-1.5106
-1.3269
-1.08837
-0.852622
-0.528376
-0.302982
0.100126
0.597903
1.11942
1.80238
2.3137
2.88781
4.12514
4.91974
5.92167
6.58223
7.18781
7.62307
7.83422
7.60701
7.27876
7.15003
6.85315
6.89348
6.54859
6.68148
6.22539
6.52617
6.07818
6.84469
6.33347
7.69433
-2.30945
-2.33701
-2.31406
-2.32243
-2.23261
-2.28205
-2.18936
-2.13488
-2.12956
-2.06575
-1.95751
-1.69864
-1.54332
-1.31517
-1.02482
-0.583001
0.0192794
0.568379
1.19438
1.81552
2.9889
3.78932
4.97568
5.75807
6.48894
7.0878
7.393
7.30119
7.00637
6.98624
6.69068
6.82007
6.38137
6.72159
6.13988
6.69651
5.95913
6.89726
6.42153
8.32286
-2.42473
-2.44168
-2.48538
-2.42604
-2.41002
-2.44096
-2.47293
-2.37703
-2.49008
-2.44439
-2.38483
-2.40225
-2.44669
-2.09415
-1.676
-1.27281
-0.75222
-0.348926
0.296107
0.975498
2.10676
2.86937
4.14997
5.1124
5.94485
6.69916
7.00258
7.03994
6.78202
6.80503
6.53175
6.77513
6.33813
6.81065
6.21122
6.97783
6.12012
7.44681
6.44474
9.72623
-2.81448
-2.95892
-2.89569
-2.94713
-2.87736
-2.86772
-2.88255
-2.79448
-2.86721
-2.85253
-2.91556
-2.91463
-2.74019
-2.51219
-2.239
-1.9205
-1.61522
-0.951708
-0.357922
0.406349
1.61057
2.35091
3.58591
4.6092
5.44833
6.32186
6.6653
6.81273
6.57126
6.62659
6.33854
6.63568
6.1101
6.73035
6.04371
7.01299
6.06383
7.7206
6.60965
11.6668
-3.44459
-3.00776
-3.10344
-2.84784
-2.94103
-2.79901
-2.95596
-2.79238
-2.99248
-3.01296
-3.10702
-3.01957
-3.01066
-2.84658
-2.67235
-2.32376
-2.07632
-1.54161
-0.807404
0.0392734
1.21701
2.20062
3.25638
4.28188
5.16223
6.1317
6.41301
6.63562
6.42099
6.49802
6.20549
6.58993
6.11916
6.84919
6.24094
7.52329
6.85056
9.26734
9.23593
17.1201
-3.25981
-3.72221
-3.59311
-3.61384
-3.32275
-3.23525
-3.16946
-3.03031
-3.12491
-3.17455
-3.31976
-3.2932
-3.16425
-3.01494
-2.86996
-2.64536
-2.36016
-1.83663
-1.32531
-0.249409
0.942388
1.88907
2.84474
4.05302
4.94193
5.96893
6.2529
6.56122
6.33393
6.41419
6.09945
6.4851
5.95872
6.82384
6.1683
7.6464
7.13936
10.762
12.8855
24.5061
-6.02081
-3.27767
-3.58574
-3.19922
-3.14911
-3.00825
-3.05404
-2.92496
-3.04452
-3.12323
-3.2704
-3.28264
-3.25717
-3.13411
-3.04221
-2.81894
-2.57156
-2.02782
-1.3877
-0.230551
1.02888
2.04014
3.06691
4.2047
4.99167
5.89921
6.0281
6.31265
6.15251
6.24015
6.00595
6.5587
6.14752
7.04502
6.62615
8.59966
9.18824
15.3819
22.8657
41.094
-0.307548
-0.349987
-0.379854
-0.398931
-0.406651
-0.404219
-0.413243
-0.414791
-0.426098
-0.444677
-0.498773
-0.573373
-0.66855
-0.802198
-0.951378
-1.1364
-1.29692
-1.64351
-1.77683
-2.27333
-2.29212
-2.86372
-3.0858
-3.36524
-3.46659
-3.63898
-3.73446
-3.90878
-4.06487
-4.2729
-4.44747
-4.69714
-4.93318
-5.19271
-5.42402
-5.58866
-5.71456
-5.80207
-5.87659
-5.89917
-0.371208
-0.393005
-0.410496
-0.416237
-0.408436
-0.392745
-0.39452
-0.379374
-0.387576
-0.415589
-0.444721
-0.500086
-0.570181
-0.691766
-0.817828
-1.02497
-1.19877
-1.52663
-1.67443
-2.19532
-2.34405
-2.83468
-3.13821
-3.44124
-3.55588
-3.74004
-3.85081
-4.03877
-4.20867
-4.42197
-4.60799
-4.83005
-5.05154
-5.17082
-5.40961
-5.54446
-5.67825
-5.76691
-5.83954
-5.86689
-0.415173
-0.420877
-0.421024
-0.402219
-0.403502
-0.366185
-0.385715
-0.365555
-0.341317
-0.352798
-0.37807
-0.448742
-0.532777
-0.674208
-0.844923
-1.08322
-1.25212
-1.58262
-1.76786
-2.35496
-2.58312
-3.15971
-3.51382
-3.87571
-4.02478
-4.23558
-4.3439
-4.52873
-4.63375
-4.77513
-4.92674
-5.0622
-5.20315
-5.35546
-5.50873
-5.57809
-5.69218
-5.76667
-5.82959
-5.85973
-0.468405
-0.461028
-0.45812
-0.436029
-0.404402
-0.372904
-0.348595
-0.304542
-0.28977
-0.294422
-0.331532