/*--------------------------------*- C++ -*----------------------------------*\
| =========                 |                                                 |
| \\      /  F ield         | OpenFOAM: The Open Source CFD Toolbox           |
|  \\    /   O peration     | Version:  v1806                                 |
|   \\  /    A nd           | Web:      www.OpenFOAM.com                      |
|    \\/     M anipulation  |                                                 |
\*---------------------------------------------------------------------------*/
FoamFile
{
    version     2.0;
    format      ascii;
    class       volVectorField;
    location    "0.112";
    object      U;
}
// * * * * * * * * * * * * * * * * * * * * * * * * * * * * * * * * * * * * * //

dimensions      [0 1 -1 0 0 0 0];


internalField   nonuniform List<vector> 
64000
(
(-0.011497 -0.0139458 -0.00985466)
(0.0169972 -0.013287 -0.00730419)
(0.0234484 -0.00456036 6.00221e-05)
(0.0285206 -0.00365827 0.00120799)
(0.0300486 -0.00256315 0.00153447)
(0.0310237 -0.0031246 0.00188423)
(0.0314393 -0.00405445 0.00186002)
(0.0294975 -0.00477723 0.00238286)
(0.0293515 -0.00586344 0.00305309)
(0.0242914 -0.00574195 0.00430366)
(0.0187877 -0.00723139 0.00275028)
(0.00944218 -0.00718563 0.00848373)
(-0.0025436 -0.012195 0.00599252)
(-0.0256594 -0.0175995 0.00420552)
(-0.0501226 -0.0185987 0.00413806)
(-0.0852634 -0.0194692 0.00280401)
(-0.107176 -0.00234304 0.000717234)
(-0.151968 -0.00490605 -0.00340798)
(-0.144294 -0.00878768 0.00307041)
(-0.208373 -0.025931 -0.012262)
(-0.17848 -0.018882 -0.0173922)
(-0.0860413 -0.0217735 -0.0369899)
(-0.103652 -0.00483978 -0.0223774)
(-0.102425 -0.00182879 -0.0366888)
(-0.125169 0.00437925 -0.0474063)
(-0.118664 0.0122605 -0.0577836)
(-0.108289 0.022692 -0.0620946)
(-0.0711256 0.0329935 -0.0592109)
(-0.037492 0.040746 -0.0544396)
(0.00676535 0.0515285 -0.0412958)
(0.051153 0.0500396 -0.0324487)
(0.0889702 0.0395429 -0.0258138)
(0.104441 0.0295551 -0.0128059)
(0.101866 0.0155347 -0.00558912)
(0.0877501 0.00671884 0.00084575)
(0.0695723 -0.00132084 0.00337624)
(0.0506592 -0.0055097 0.00421188)
(0.0305649 -0.00517966 0.00504469)
(0.0163038 -0.003829 0.00529958)
(0.00244097 -0.00246262 0.00340183)
(-0.00815903 0.00348345 -0.00599579)
(0.00870397 -0.0175203 -0.00594478)
(0.0242965 -0.0112222 -0.00252144)
(0.0359394 -0.00767094 -0.000959113)
(0.0423946 -0.00310789 -0.00166243)
(0.0434907 -0.00117432 -0.00182047)
(0.0430806 0.00231948 -0.00381386)
(0.0370792 0.00399169 -0.00293457)
(0.0311818 0.00734148 -0.00835598)
(0.0146125 0.0146759 -0.00357138)
(-0.00600083 0.0220794 -0.00797607)
(-0.0398891 0.0314369 0.000398978)
(-0.0840948 0.0401943 -0.00375517)
(-0.135247 0.0582945 -0.00653582)
(-0.19103 0.0731869 -0.0117689)
(-0.246943 0.0827071 -0.0171089)
(-0.315047 0.0911512 -0.043907)
(-0.418812 0.0928785 -0.0596797)
(-0.460044 0.100085 -0.0777081)
(-0.55121 0.101508 -0.0958786)
(-0.499204 0.129364 -0.0887288)
(-0.376002 0.145567 -0.124341)
(-0.376307 0.192758 -0.131222)
(-0.362093 0.214236 -0.143693)
(-0.358461 0.238434 -0.155741)
(-0.318946 0.25943 -0.162608)
(-0.273376 0.280569 -0.164095)
(-0.200397 0.295622 -0.152529)
(-0.127429 0.302219 -0.133025)
(-0.0539282 0.305635 -0.109496)
(0.00863576 0.291455 -0.0764468)
(0.0723758 0.260058 -0.0461186)
(0.109733 0.21232 -0.0387223)
(0.122163 0.160102 -0.0258391)
(0.11699 0.109854 -0.0125499)
(0.0984693 0.0701362 -0.00507818)
(0.078942 0.0418405 -0.000809046)
(0.0544039 0.0268424 0.00012505)
(0.0324825 0.0170517 0.00135943)
(0.00796352 0.00884896 0.00125538)
(-0.000504857 -0.00356574 0.00135492)
(0.0154194 -0.022894 -0.00243679)
(0.0322513 -0.0176001 -0.00325843)
(0.0438121 -0.00561341 -0.00432776)
(0.0471773 0.00304293 -0.00611211)
(0.0456906 0.0135032 -0.00770366)
(0.0395483 0.0277721 -0.00882311)
(0.0248734 0.0408286 -0.0107516)
(0.0115138 0.0647977 -0.00228864)
(-0.0163391 0.0857727 -0.00418083)
(-0.0536934 0.113065 -0.00811512)
(-0.10395 0.142652 -0.0126446)
(-0.156041 0.178895 -0.0174371)
(-0.230043 0.208025 -0.0316465)
(-0.319843 0.229323 -0.0371718)
(-0.41632 0.244698 -0.0435874)
(-0.494715 0.250043 -0.0608919)
(-0.581442 0.266919 -0.0800683)
(-0.616095 0.299565 -0.098132)
(-0.692937 0.336665 -0.115698)
(-0.625364 0.373627 -0.0999543)
(-0.474883 0.408671 -0.124228)
(-0.452924 0.464663 -0.122064)
(-0.427078 0.493891 -0.122789)
(-0.414631 0.525723 -0.126524)
(-0.370474 0.546467 -0.12561)
(-0.32439 0.561055 -0.120893)
(-0.257519 0.56333 -0.105173)
(-0.193877 0.553334 -0.0825091)
(-0.127462 0.532326 -0.0592549)
(-0.073586 0.500186 -0.0393393)
(-0.0284509 0.451645 -0.0276771)
(0.00416844 0.379135 -0.0170488)
(0.027204 0.305823 -0.00847412)
(0.0408033 0.226819 -0.0104694)
(0.0473156 0.1625 -0.0108032)
(0.04777 0.115798 -0.00702266)
(0.0385796 0.0792174 -0.00494582)
(0.0274162 0.0533452 -0.00147919)
(0.00801099 0.0277689 0.00109914)
(0.00126978 -0.00893255 0.00216529)
(0.0181264 -0.0249974 -0.00158653)
(0.0385713 -0.0124893 -0.00418658)
(0.0459982 0.0040419 -0.00767921)
(0.0442036 0.0276444 -0.00815223)
(0.0412982 0.0511572 -0.00938837)
(0.0289107 0.0853035 -0.00927925)
(0.0119764 0.116728 -0.0050047)
(-0.0127848 0.162531 -0.0106976)
(-0.0571091 0.201032 -0.0127506)
(-0.102646 0.245247 -0.0175237)
(-0.161872 0.283411 -0.0236787)
(-0.239529 0.313465 -0.0291457)
(-0.330153 0.329625 -0.0299805)
(-0.411532 0.352003 -0.0333131)
(-0.489162 0.375075 -0.0376906)
(-0.552628 0.407188 -0.0539615)
(-0.626087 0.436411 -0.0643018)
(-0.646992 0.482244 -0.0748793)
(-0.712925 0.531196 -0.0787271)
(-0.632972 0.561794 -0.0406662)
(-0.461065 0.589251 -0.0455281)
(-0.426261 0.628397 -0.0367213)
(-0.399741 0.633312 -0.0292572)
(-0.38816 0.6463 -0.0279748)
(-0.352738 0.645608 -0.0236097)
(-0.318407 0.638118 -0.0201518)
(-0.268056 0.618058 -0.0120495)
(-0.222011 0.591601 0.000189382)
(-0.176142 0.557352 0.00751608)
(-0.146618 0.515275 0.0121433)
(-0.120391 0.469189 0.0108659)
(-0.096544 0.408855 0.00483498)
(-0.0734043 0.347016 -0.00293703)
(-0.0493302 0.268266 -0.00639517)
(-0.0189623 0.20153 -0.0107741)
(0.00147288 0.147635 -0.0109178)
(0.00960801 0.112072 -0.00812817)
(0.0172029 0.0792036 -0.00364557)
(0.00642436 0.0404285 0.00085078)
(0.000926459 -0.00972076 0.000404731)
(0.0232201 -0.014794 -0.00383589)
(0.0454983 0.00231918 -0.00833793)
(0.0545529 0.035054 -0.00882612)
(0.0525577 0.0722583 -0.00892355)
(0.0463948 0.117342 -0.0150018)
(0.0287419 0.173108 -0.012894)
(0.00260581 0.229034 -0.00588601)
(-0.0279643 0.285509 -0.0085777)
(-0.0794025 0.33279 -0.0109059)
(-0.136234 0.371522 -0.0142105)
(-0.211093 0.394689 -0.016651)
(-0.284221 0.415034 -0.017192)
(-0.353905 0.439846 -0.0204037)
(-0.419621 0.470351 -0.0224933)
(-0.488216 0.503351 -0.0234158)
(-0.539405 0.534038 -0.0287019)
(-0.595382 0.565306 -0.0273045)
(-0.595509 0.623209 -0.0208701)
(-0.646666 0.67313 -0.0283573)
(-0.568236 0.699006 0.0109032)
(-0.389975 0.708881 0.0178754)
(-0.35206 0.718115 0.0322465)
(-0.334843 0.687685 0.0366253)
(-0.335934 0.671505 0.0360521)
(-0.319635 0.644013 0.0416186)
(-0.304975 0.612275 0.0427381)
(-0.273412 0.574122 0.0467087)
(-0.24805 0.532172 0.0398202)
(-0.221826 0.490908 0.0310224)
(-0.203318 0.44495 0.0206847)
(-0.192552 0.410882 0.0136734)
(-0.183018 0.372024 0.00660785)
(-0.173652 0.340868 -0.00553588)
(-0.150192 0.278164 -0.0144226)
(-0.100812 0.209233 -0.0150815)
(-0.049692 0.161855 -0.0139835)
(-0.015307 0.132169 -0.0119797)
(0.00354817 0.0982725 -0.00632247)
(0.00354842 0.0508432 0.000929413)
(0.00504457 -0.00294956 -0.000260069)
(0.0280109 0.00206464 -0.00647943)
(0.0588498 0.0294089 -0.00738347)
(0.069941 0.0797765 -0.0097143)
(0.0653133 0.136865 -0.0146635)
(0.0638962 0.199899 -0.0184308)
(0.0448634 0.274158 -0.0147698)
(0.0120903 0.326556 -0.00561998)
(-0.0345001 0.371765 -0.00761449)
(-0.101962 0.406577 -0.00983843)
(-0.16823 0.436947 -0.0119246)
(-0.231177 0.464778 -0.0116568)
(-0.286809 0.49814 -0.0100947)
(-0.343318 0.528911 -0.00666141)
(-0.389417 0.556961 -0.00127686)
(-0.440337 0.585996 0.00457441)
(-0.472502 0.616324 0.00853361)
(-0.499356 0.647821 0.0105368)
(-0.489731 0.697237 0.00741567)
(-0.53219 0.739323 0.00947981)
(-0.457238 0.758385 0.0454744)
(-0.298737 0.718712 0.0560007)
(-0.27901 0.697743 0.0691212)
(-0.283528 0.635538 0.0772145)
(-0.298461 0.5972 0.0777736)
(-0.301528 0.553477 0.076155)
(-0.302643 0.511688 0.0732773)
(-0.291107 0.468256 0.0661064)
(-0.278567 0.421041 0.0639578)
(-0.266199 0.38118 0.0419381)
(-0.257237 0.336871 0.0298174)
(-0.245672 0.305666 0.013798)
(-0.231283 0.278507 0.00387759)
(-0.235694 0.266878 -0.00754485)
(-0.237182 0.242637 -0.0184405)
(-0.172334 0.19394 -0.015242)
(-0.090226 0.162804 -0.0157188)
(-0.0387775 0.137388 -0.0123312)
(-0.0040877 0.10597 -0.00714973)
(0.00262786 0.0545573 0.00153998)
(0.00499668 0.00349454 -0.00169849)
(0.0370311 0.0173581 -0.00978107)
(0.0796943 0.0577833 -0.0108767)
(0.102852 0.112973 -0.0130344)
(0.0994922 0.179593 -0.0185738)
(0.0962316 0.252083 -0.0217839)
(0.0569215 0.314957 -0.0162109)
(-0.00401944 0.345083 -0.000983281)
(-0.0506192 0.388111 -0.00661615)
(-0.105453 0.42541 -0.00687546)
(-0.150746 0.468603 -0.00669459)
(-0.198894 0.51159 -0.00444393)
(-0.242449 0.551565 -0.000439054)
(-0.287097 0.584596 0.00398191)
(-0.323505 0.617535 0.0128467)
(-0.357509 0.642612 0.017649)
(-0.374832 0.67104 0.0251201)
(-0.395911 0.686515 0.0281019)
(-0.371089 0.705901 0.030188)
(-0.395093 0.718851 0.0168841)
(-0.381147 0.739127 0.0421443)
(-0.252865 0.631707 0.0588587)
(-0.226526 0.592929 0.0669887)
(-0.248074 0.526027 0.0756734)
(-0.274284 0.488461 0.0744652)
(-0.294975 0.449488 0.0726926)
(-0.31235 0.416094 0.0682851)
(-0.317942 0.38081 0.0599537)
(-0.318288 0.343808 0.0457958)
(-0.3185 0.308788 0.0287141)
(-0.315536 0.2753 0.0148189)
(-0.307165 0.246549 0.000944691)
(-0.291305 0.225059 -0.00600745)
(-0.283262 0.209626 -0.0137187)
(-0.285634 0.219771 -0.0211693)
(-0.224231 0.194774 -0.0216473)
(-0.125116 0.169176 -0.0222047)
(-0.0540926 0.148475 -0.017227)
(-0.0093603 0.115767 -0.010876)
(0.00256507 0.0600093 -8.24004e-05)
(0.0062372 0.0104025 -0.00426175)
(0.0448241 0.0369324 -0.0136399)
(0.0983426 0.0853117 -0.0140696)
(0.123997 0.141715 -0.0122384)
(0.127508 0.201341 -0.0135761)
(0.112722 0.272058 -0.0162175)
(0.0522521 0.302682 -0.00549458)
(0.00724957 0.350978 0.00187025)
(-0.0203176 0.395515 -0.0024822)
(-0.0686531 0.450248 -0.00048075)
(-0.107263 0.494087 0.00038672)
(-0.147324 0.532369 0.00665455)
(-0.182386 0.563822 0.0125026)
(-0.212641 0.589837 0.0213353)
(-0.235269 0.614618 0.025766)
(-0.262065 0.628344 0.0306625)
(-0.275709 0.640433 0.0341582)
(-0.293356 0.635679 0.0334471)
(-0.284331 0.637654 0.031225)
(-0.295112 0.601246 0.0158772)
(-0.329279 0.619564 0.0205277)
(-0.249477 0.518371 0.040959)
(-0.203317 0.463725 0.0441229)
(-0.233837 0.417275 0.0549226)
(-0.266891 0.388615 0.0569471)
(-0.300301 0.362736 0.0575605)
(-0.327756 0.33938 0.0579123)
(-0.345845 0.312884 0.0492078)
(-0.357936 0.286185 0.0379758)
(-0.364381 0.255788 0.0147217)
(-0.365934 0.224065 0.00409752)
(-0.355919 0.198679 -0.00531097)
(-0.340088 0.185541 -0.0129245)
(-0.319169 0.174432 -0.0157609)
(-0.324675 0.194886 -0.0251414)
(-0.274405 0.198271 -0.0213352)
(-0.159961 0.174555 -0.0227169)
(-0.0727761 0.157428 -0.0173013)
(-0.0144308 0.122511 -0.0104622)
(0.00327248 0.0635298 0.000817453)
(0.00495811 0.0253316 -0.00709974)
(0.0533221 0.0693608 -0.0177273)
(0.118671 0.124728 -0.0194865)
(0.150513 0.180906 -0.0142533)
(0.158191 0.241485 -0.0156775)
(0.125153 0.290974 -0.0154508)
(0.0739301 0.326986 -0.00660021)
(0.0370112 0.386561 0.00121506)
(0.012272 0.423028 0.0077547)
(-0.018817 0.465018 0.00666513)
(-0.0565629 0.497813 0.0114223)
(-0.0878449 0.52632 0.0159135)
(-0.112434 0.546034 0.0252145)
(-0.134054 0.557934 0.0315365)
(-0.154501 0.560827 0.0347687)
(-0.177066 0.553854 0.0352731)
(-0.194317 0.545692 0.0341523)
(-0.216653 0.524325 0.0293423)
(-0.234069 0.510552 0.022735)
(-0.242015 0.467933 0.0100225)
(-0.293004 0.470899 -0.00197084)
(-0.268255 0.421405 0.0156861)
(-0.209523 0.355985 0.0227027)
(-0.230622 0.33717 0.0321285)
(-0.267908 0.318401 0.0384186)
(-0.30801 0.302916 0.0425272)
(-0.344745 0.287393 0.0470075)
(-0.371171 0.265845 0.0413244)
(-0.393091 0.243911 0.024036)
(-0.410157 0.210614 0.00615501)
(-0.412076 0.18523 -0.00341019)
(-0.398461 0.161843 -0.0110301)
(-0.382589 0.147765 -0.0145797)
(-0.351956 0.147073 -0.0250116)
(-0.340512 0.159331 -0.0276534)
(-0.305419 0.193923 -0.0307796)
(-0.196387 0.177776 -0.0260178)
(-0.0887517 0.167411 -0.0244848)
(-0.0198321 0.132719 -0.013398)
(0.00417742 0.0702403 -0.00131655)
(0.00749425 0.0421879 -0.00978247)
(0.0625767 0.107204 -0.0257176)
(0.13727 0.166808 -0.0249779)
(0.176253 0.220964 -0.0164839)
(0.175817 0.273611 -0.0164666)
(0.144901 0.306311 -0.0177721)
(0.107576 0.354911 -0.00695761)
(0.0762111 0.40093 0.00431306)
(0.0481139 0.440606 0.0115921)
(0.0217662 0.4652 0.0219358)
(-0.00104879 0.487865 0.0218105)
(-0.0275942 0.500148 0.0299791)
(-0.0521284 0.503753 0.0361334)
(-0.072842 0.496367 0.0420159)
(-0.0927375 0.477928 0.0433055)
(-0.117042 0.452332 0.0403112)
(-0.140703 0.426879 0.0344427)
(-0.167547 0.396062 0.0263698)
(-0.19654 0.374622 0.0174986)
(-0.211718 0.349246 0.00671499)
(-0.266817 0.339685 -0.0113283)
(-0.283314 0.330724 -0.00106984)
(-0.222424 0.287626 0.0108725)
(-0.224624 0.284445 0.0170069)
(-0.266037 0.270319 0.0278018)
(-0.308797 0.262409 0.0345062)
(-0.350902 0.245561 0.043316)
(-0.385708 0.230287 0.0353099)
(-0.416542 0.201746 0.0250593)
(-0.431931 0.174845 0.00757506)
(-0.437622 0.14697 0.007767)
(-0.431219 0.123067 0.0152637)
(-0.411237 0.104086 0.0105622)
(-0.382719 0.103894 0.00788107)
(-0.361479 0.116488 -0.0158956)
(-0.32943 0.163308 -0.0261729)
(-0.227383 0.173622 -0.0253486)
(-0.107503 0.166146 -0.0209522)
(-0.0259348 0.139012 -0.0125961)
(0.00496739 0.0734897 -6.92652e-05)
(0.00847922 0.0666352 -0.0122224)
(0.0717421 0.151357 -0.0317127)
(0.155546 0.214332 -0.0309175)
(0.198755 0.263466 -0.0194626)
(0.195598 0.300373 -0.0133924)
(0.171194 0.336286 -0.0167934)
(0.1475 0.376633 -0.00603904)
(0.117223 0.414321 0.000726674)
(0.0933085 0.443001 0.00846746)
(0.0663792 0.463679 0.0226572)
(0.0404294 0.470512 0.0343924)
(0.0191995 0.468067 0.0440434)
(0.000674405 0.456059 0.0484131)
(-0.0234195 0.429413 0.0483907)
(-0.0507536 0.402224 0.0486973)
(-0.0778482 0.366217 0.0429525)
(-0.107806 0.336265 0.0337867)
(-0.140578 0.307008 0.0230606)
(-0.173667 0.285799 0.0134307)
(-0.195883 0.272411 0.00227651)
(-0.247223 0.260383 -0.0126548)
(-0.271343 0.263201 -0.00674883)
(-0.215881 0.255062 0.00487474)
(-0.213488 0.249251 0.00987609)
(-0.253305 0.23791 0.0222384)
(-0.299338 0.227199 0.0301156)
(-0.34671 0.213769 0.0382848)
(-0.385706 0.192711 0.0338587)
(-0.420656 0.168215 0.0209293)
(-0.444608 0.138099 0.0294727)
(-0.459549 0.102581 0.0310542)
(-0.459379 0.0742822 0.0162591)
(-0.443976 0.0563456 0.0115552)
(-0.408818 0.0534519 0.00162718)
(-0.370049 0.0660991 -0.0023063)
(-0.339412 0.115442 -0.0245338)
(-0.253001 0.152225 -0.0283886)
(-0.125667 0.162894 -0.0230971)
(-0.0296025 0.142893 -0.0143572)
(0.00428983 0.0786227 -0.00171223)
(0.00993339 0.0864818 -0.012957)
(0.077675 0.191361 -0.0356935)
(0.168937 0.25664 -0.0341527)
(0.211653 0.294873 -0.0187705)
(0.21529 0.323667 -0.0121353)
(0.201894 0.357856 -0.00924685)
(0.182135 0.390412 -0.00795786)
(0.156762 0.414465 0.00381796)
(0.13079 0.434912 0.00996785)
(0.105718 0.44227 0.0202307)
(0.084349 0.444209 0.0285391)
(0.0592102 0.431545 0.04892)
(0.0308441 0.408037 0.0536006)
(0.0107422 0.371726 0.0562988)
(-0.015669 0.335085 0.0485397)
(-0.0499102 0.302801 0.04239)
(-0.0814586 0.275001 0.0304429)
(-0.117812 0.252649 0.0186804)
(-0.151788 0.238152 0.00941713)
(-0.179554 0.233305 -0.00192911)
(-0.23003 0.224364 -0.0133152)
(-0.245648 0.226572 -0.00769882)
(-0.195377 0.235007 0.000699104)
(-0.193647 0.220803 0.00561139)
(-0.231939 0.207449 0.0175464)
(-0.275548 0.192213 0.0262802)
(-0.325698 0.178367 0.0331083)
(-0.367918 0.156037 0.0258599)
(-0.407803 0.129792 0.0393197)
(-0.441978 0.0942704 0.0453519)
(-0.463502 0.0594971 0.037436)
(-0.467056 0.0316704 0.0464843)
(-0.458962 0.0102407 0.0380146)
(-0.436156 0.0051085 0.0362494)
(-0.395875 0.0130327 0.0251019)
(-0.354174 0.0584711 0.00380542)
(-0.267268 0.113668 -0.0244028)
(-0.140208 0.147544 -0.0247529)
(-0.036297 0.139382 -0.013737)
(0.00556104 0.079421 -0.0015143)
(0.010266 0.107784 -0.0119232)
(0.0822884 0.231544 -0.0379562)
(0.17459 0.297822 -0.03692)
(0.224199 0.327348 -0.0197636)
(0.239193 0.351688 -0.0070963)
(0.232985 0.376371 -0.00144156)
(0.214216 0.399831 0.00199686)
(0.189853 0.414303 0.00266133)
(0.16906 0.423452 0.0113678)
(0.144921 0.424378 0.0228399)
(0.120132 0.41489 0.0316196)
(0.0930066 0.39346 0.0392188)
(0.0654162 0.363794 0.0473124)
(0.0335149 0.328133 0.0548526)
(0.00718484 0.286898 0.0508923)
(-0.0219263 0.254637 0.0389016)
(-0.05951 0.233187 0.0268665)
(-0.0960625 0.215872 0.0146876)
(-0.128209 0.206574 0.00685401)
(-0.157852 0.204718 -0.00386316)
(-0.205177 0.197663 -0.011362)
(-0.205911 0.202895 -0.00530992)
(-0.16271 0.214362 -0.000176655)
(-0.169484 0.193304 0.00359046)
(-0.200947 0.175438 0.0145865)
(-0.243447 0.157748 0.0225522)
(-0.291466 0.137811 0.0268953)
(-0.337464 0.116845 0.0366768)
(-0.384599 0.0858763 0.0485287)
(-0.425326 0.0518062 0.0478442)
(-0.451153 0.0208442 0.0677999)
(-0.473017 -0.0173011 0.0503923)
(-0.479232 -0.0557898 0.0338076)
(-0.463221 -0.077164 0.0107703)
(-0.420206 -0.0669753 0.00382996)
(-0.373779 -0.0218377 0.00620881)
(-0.289088 0.0619544 -0.00172002)
(-0.157053 0.117882 -0.0296699)
(-0.0414702 0.131467 -0.0134292)
(0.00503402 0.0813897 -0.00294983)
(0.0096216 0.116218 -0.0114753)
(0.0803853 0.256038 -0.0408375)
(0.175358 0.325665 -0.0414961)
(0.231378 0.3533 -0.0229357)
(0.257064 0.368932 -0.00473304)
(0.258014 0.382187 0.00520638)
(0.241298 0.394533 0.0110582)
(0.217839 0.402266 0.0136217)
(0.197318 0.405666 0.0166678)
(0.174511 0.399625 0.0208993)
(0.151245 0.383554 0.0255515)
(0.121633 0.356535 0.0373134)
(0.0885457 0.323915 0.0384396)
(0.0569985 0.286582 0.0419593)
(0.0249511 0.254715 0.0467083)
(-0.00240561 0.219918 0.0373127)
(-0.0340415 0.203507 0.0225657)
(-0.0718205 0.189159 0.0116962)
(-0.100113 0.182275 0.00485427)
(-0.129755 0.182031 -0.00481393)
(-0.169003 0.172249 -0.00856282)
(-0.155922 0.189422 -0.00160362)
(-0.125702 0.190263 -0.0016923)
(-0.13991 0.164971 0.0035587)
(-0.166072 0.144039 0.0108526)
(-0.204418 0.119477 0.0185045)
(-0.249568 0.100071 0.0212779)
(-0.295108 0.0735011 0.0394418)
(-0.346115 0.0447565 0.0458257)
(-0.386182 0.0157751 0.067167)
(-0.434492 -0.0249211 0.0508475)
(-0.478315 -0.0774498 0.040015)
(-0.49515 -0.124001 0.0251369)
(-0.480984 -0.156847 0.0124374)
(-0.438694 -0.15972 -0.00865381)
(-0.378342 -0.121852 -0.00734312)
(-0.296468 -0.0213068 -0.00102122)
(-0.175979 0.0733306 -0.0163566)
(-0.0474612 0.114076 -0.0193893)
(0.00700682 0.0790381 -0.00126044)
(0.00835978 0.12411 -0.00905203)
(0.0796499 0.278338 -0.0399006)
(0.176205 0.353068 -0.0427138)
(0.239044 0.377876 -0.0236556)
(0.271684 0.385715 -0.00282998)
(0.277335 0.38616 0.0116587)
(0.265034 0.388947 0.0214625)
(0.245611 0.390214 0.0239407)
(0.227784 0.389103 0.0262614)
(0.203974 0.377857 0.0281921)
(0.177242 0.358371 0.0291564)
(0.147355 0.327861 0.0280996)
(0.114608 0.294386 0.0268252)
(0.0804893 0.258139 0.0302743)
(0.0452094 0.226892 0.0334883)
(0.0178327 0.201055 0.0325271)
(-0.00982614 0.177566 0.0184383)
(-0.0455721 0.16834 0.00874954)
(-0.0674655 0.163846 0.00353088)
(-0.0978528 0.156263 -0.0060928)
(-0.119354 0.154808 -0.00321156)
(-0.100825 0.177717 0.000549141)
(-0.0937396 0.161948 0.00106125)
(-0.111191 0.136314 0.00415886)
(-0.133944 0.110656 0.00995159)
(-0.166106 0.0842326 0.0143814)
(-0.205678 0.0618491 0.0283597)
(-0.251361 0.0350859 0.0369749)
(-0.294196 0.0108208 0.0538881)
(-0.349698 -0.0253583 0.047691)
(-0.411714 -0.0779451 0.042675)
(-0.46143 -0.130272 0.0323985)
(-0.492119 -0.181569 0.0199619)
(-0.493917 -0.223964 0.00378222)
(-0.458579 -0.243548 -0.0137902)
(-0.390433 -0.216034 -0.0200221)
(-0.301624 -0.128284 -0.0183063)
(-0.187153 0.0146624 0.00281151)
(-0.0569235 0.0890809 -0.0244384)
(0.00515141 0.0770369 -0.00225416)
(0.00607618 0.108588 -0.00963908)
(0.0734311 0.275826 -0.0403598)
(0.170621 0.356803 -0.0423433)
(0.238401 0.382798 -0.0228704)
(0.278273 0.385334 0.000784851)
(0.291711 0.382259 0.0155663)
(0.286476 0.379762 0.0218842)
(0.269233 0.373964 0.02609)
(0.25016 0.364357 0.0277519)
(0.226712 0.349273 0.0283377)
(0.200707 0.32804 0.0272354)
(0.168756 0.300597 0.0250512)
(0.133412 0.268611 0.020289)
(0.0989767 0.234905 0.0139595)
(0.0669555 0.205967 0.0148957)
(0.0351035 0.184519 0.0201751)
(0.011814 0.164975 0.0142442)
(-0.0107605 0.150914 0.00462684)
(-0.0374061 0.146105 -0.000962214)
(-0.058621 0.139247 -0.00432624)
(-0.0598267 0.153968 0.000980088)
(-0.0562775 0.154958 0.00243024)
(-0.0683122 0.13368 0.00424571)
(-0.0856506 0.107332 0.00608183)
(-0.106111 0.0819688 0.00817526)
(-0.132141 0.0548825 0.0123278)
(-0.166588 0.0294807 0.0227094)
(-0.201733 0.00371856 0.0371962)
(-0.251387 -0.0266393 0.0390899)
(-0.31232 -0.0745468 0.03948)
(-0.372393 -0.122703 0.0353527)
(-0.42807 -0.179173 0.0297144)
(-0.468108 -0.237458 0.0186905)
(-0.484594 -0.292343 0.00433307)
(-0.4623 -0.326103 -0.0142267)
(-0.402453 -0.316657 -0.0266177)
(-0.297192 -0.239917 -0.0298515)
(-0.190756 -0.086063 -0.0181002)
(-0.0685999 0.0475665 -0.0168792)
(0.00666676 0.0673879 -0.00570554)
(0.00760256 0.110594 -0.00270188)
(0.0741112 0.284298 -0.0328397)
(0.169976 0.369303 -0.0376002)
(0.243678 0.392728 -0.0174179)
(0.293116 0.389371 0.00784746)
(0.314826 0.377514 0.0159258)
(0.310394 0.368399 0.0245719)
(0.292388 0.355954 0.0264711)
(0.274681 0.345133 0.0259099)
(0.252532 0.327624 0.0230782)
(0.22698 0.305796 0.0196758)
(0.195806 0.275613 0.0154605)
(0.159078 0.24444 0.01018)
(0.122615 0.211404 0.00658077)
(0.0898587 0.184166 0.00253348)
(0.0625334 0.163011 0.00413698)
(0.0359721 0.153322 0.00517147)
(0.0134782 0.147598 0.000419418)
(0.00162378 0.149667 -0.00194112)
(-0.00472225 0.150751 -0.000944499)
(-0.0148341 0.150777 0.00246329)
(-0.029233 0.130716 0.00522802)
(-0.045716 0.108956 0.00714571)
(-0.0640508 0.083148 0.00808984)
(-0.0827275 0.0582903 0.00941442)
(-0.106682 0.0320024 0.0141961)
(-0.13426 0.00581897 0.0254689)
(-0.171996 -0.0233191 0.0276901)
(-0.222459 -0.0623946 0.0297697)
(-0.277663 -0.104285 0.0305355)
(-0.335658 -0.152294 0.0306118)
(-0.390913 -0.209861 0.0275003)
(-0.435564 -0.272382 0.0203195)
(-0.462024 -0.338551 0.0072609)
(-0.453293 -0.388442 -0.0103048)
(-0.403688 -0.403452 -0.0268461)
(-0.307064 -0.341113 -0.0385205)
(-0.190426 -0.198476 -0.029765)
(-0.064558 -0.00623354 -0.00966166)
(0.00263303 0.0540167 -0.00924344)
(-0.00234003 0.0886667 -0.0146078)
(0.0536547 0.27104 -0.0394614)
(0.151641 0.366958 -0.0453304)
(0.233705 0.393078 -0.0240742)
(0.293246 0.391658 -0.00202395)
(0.327285 0.372367 0.0120902)
(0.33351 0.355416 0.0182425)
(0.319222 0.3345 0.0196703)
(0.300684 0.316748 0.0174325)
(0.275367 0.30412 0.0142775)
(0.246177 0.293099 0.0109374)
(0.211439 0.278462 0.00863854)
(0.174043 0.256997 0.00544648)
(0.138544 0.229138 0.00316691)
(0.110542 0.203859 0.000674368)
(0.0890811 0.184882 0.00174687)
(0.077468 0.180168 0.00157412)
(0.0665359 0.178632 -0.00260662)
(0.0483018 0.174937 -0.00421315)
(0.0269774 0.159402 -0.00231304)
(0.00620964 0.139918 0.00241296)
(-0.0107917 0.113265 0.00612327)
(-0.0281277 0.0889161 0.0085902)
(-0.0469288 0.063349 0.0101367)
(-0.0642152 0.0370401 0.012308)
(-0.0851764 0.00972395 0.0148032)
(-0.11262 -0.0166044 0.0152663)
(-0.14799 -0.0530201 0.0156224)
(-0.192642 -0.0907432 0.0175502)
(-0.242066 -0.136063 0.0197886)
(-0.294675 -0.185567 0.0213436)
(-0.347048 -0.24681 0.0210752)
(-0.393636 -0.313636 0.0165918)
(-0.427392 -0.389805 0.00697231)
(-0.43202 -0.45393 -0.00959519)
(-0.393703 -0.489498 -0.0253514)
(-0.305965 -0.445467 -0.0501868)
(-0.191986 -0.31377 -0.0426641)
(-0.0645485 -0.0877123 -0.0116813)
(0.00125423 0.0385218 0.000142211)
(-0.00194264 0.155966 -0.00300581)
(0.0504973 0.353821 -0.0167742)
(0.141127 0.453609 -0.0278882)
(0.226088 0.476151 -0.00839889)
(0.294992 0.466354 -0.00116926)
(0.334574 0.434134 0.0147726)
(0.344525 0.397735 0.0189472)
(0.331247 0.37437 0.0215351)
(0.325556 0.374288 0.0188898)
(0.31632 0.375411 0.0136044)
(0.294668 0.37052 0.00711202)
(0.257045 0.35633 0.00061312)
(0.207895 0.330905 -0.00400822)
(0.163993 0.297991 -0.00541865)
(0.134431 0.267383 -0.00638849)
(0.12287 0.240818 -0.00341721)
(0.110732 0.219593 0.00172277)
(0.0885504 0.196337 -0.0046382)
(0.0635538 0.173748 -0.00816158)
(0.0419385 0.146825 -0.00419988)
(0.0203987 0.123685 -0.000654506)
(0.000132721 0.0962382 0.00466096)
(-0.0157629 0.0710879 0.00811671)
(-0.0353051 0.0445767 0.0106276)
(-0.0529503 0.0206596 0.0120053)
(-0.0719039 -0.00661921 0.0119707)
(-0.100088 -0.0296895 0.00958979)
(-0.136924 -0.0613175 0.00826578)
(-0.179154 -0.0957164 0.00891228)
(-0.223516 -0.139804 0.0113548)
(-0.26903 -0.188056 0.0146245)
(-0.313371 -0.249879 0.0167417)
(-0.356473 -0.321445 0.0157078)
(-0.392388 -0.407452 0.00894145)
(-0.40505 -0.490779 -0.00597417)
(-0.376377 -0.554212 -0.0242358)
(-0.305123 -0.55447 -0.0544211)
(-0.194597 -0.428319 -0.056019)
(-0.0573157 -0.210222 -0.0288416)
(0.00500233 -0.00268712 -0.000901054)
(-0.0163722 0.229676 -0.0205374)
(0.02104 0.46926 -0.039507)
(0.109718 0.579519 -0.048103)
(0.195776 0.61858 -0.031742)
(0.26786 0.609249 -0.0212979)
(0.31441 0.576731 -0.00292769)
(0.346967 0.529545 0.00513792)
(0.37562 0.493926 0.00662536)
(0.384088 0.478008 -0.000840289)
(0.356717 0.454634 -0.00668061)
(0.316264 0.423915 -0.0103033)
(0.264272 0.387067 -0.0113818)
(0.209381 0.344462 -0.0112186)
(0.167154 0.306672 -0.0104293)
(0.141564 0.274083 -0.0105587)
(0.125203 0.243846 -0.00785286)
(0.114529 0.207622 -0.00319696)
(0.100954 0.178126 0.00302781)
(0.0776904 0.152959 -0.00187576)
(0.0547586 0.130014 -0.0043139)
(0.0317804 0.104017 -0.0016134)
(0.0110757 0.0784523 0.0029161)
(-0.00611588 0.0511078 0.0072543)
(-0.023333 0.0240689 0.0106576)
(-0.0391695 -0.000185374 0.00961798)
(-0.054993 -0.0277068 0.0108308)
(-0.0796919 -0.0539303 0.00567853)
(-0.115086 -0.0821126 0.000406881)
(-0.155716 -0.11611 -0.00428179)
(-0.196294 -0.163918 -0.006707)
(-0.237805 -0.213461 -0.00708506)
(-0.279096 -0.278719 -0.00716031)
(-0.319256 -0.350267 -0.00598667)
(-0.357226 -0.444974 -0.00794187)
(-0.382304 -0.5415 -0.0176048)
(-0.381875 -0.639158 -0.0343131)
(-0.313267 -0.668103 -0.0587074)
(-0.227537 -0.568695 -0.0748639)
(-0.0842074 -0.290439 -0.0348211)
(0.015735 -0.0231112 -0.00361367)
(0.00152853 0.195114 0.0025872)
(0.0391357 0.437733 -0.0358525)
(0.113168 0.56283 -0.0482035)
(0.199576 0.619421 -0.0443503)
(0.270697 0.622861 -0.0341575)
(0.318831 0.6017 -0.0231659)
(0.345525 0.562358 -0.0162025)
(0.364338 0.514912 -0.00693244)
(0.371336 0.464985 -0.00923007)
(0.348607 0.423175 -0.00929209)
(0.314636 0.385054 -0.00951648)
(0.266899 0.34928 -0.00836543)
(0.217626 0.311045 -0.0069234)
(0.18282 0.280673 -0.00566039)
(0.158842 0.252529 -0.00504468)
(0.140957 0.224903 -0.00296771)
(0.126599 0.195194 -1.69243e-05)
(0.113126 0.160858 0.00261301)
(0.0922219 0.134702 0.00621117)
(0.0671384 0.110489 0.00189483)
(0.0408212 0.0872922 -0.000530658)
(0.017617 0.0605888 0.00232043)
(-0.000666606 0.0347334 0.0086413)
(-0.0168084 0.00680113 0.0110483)
(-0.0331313 -0.0172479 0.0114666)
(-0.0504699 -0.0457032 0.0144094)
(-0.0732033 -0.0742151 0.0135811)
(-0.108138 -0.103324 0.00929308)
(-0.154874 -0.127204 0.00474139)
(-0.192116 -0.167078 0.00404928)
(-0.224329 -0.213795 0.00253309)
(-0.253372 -0.286819 1.5147e-05)
(-0.285572 -0.37888 -0.00502414)
(-0.316347 -0.513319 -0.0118398)
(-0.345263 -0.654674 -0.0184962)
(-0.350526 -0.789062 -0.0272073)
(-0.298888 -0.851562 -0.0490827)
(-0.192828 -0.802836 -0.0637121)
(-0.0704782 -0.503476 -0.0625577)
(-0.00383229 -0.130517 0.0094286)
(-0.000198958 0.207659 -0.0023448)
(0.0343478 0.42443 -0.0327139)
(0.100978 0.547326 -0.0434399)
(0.17905 0.601249 -0.0413948)
(0.247715 0.605431 -0.0246666)
(0.299634 0.58022 -0.0183424)
(0.334174 0.538191 -0.00963174)
(0.358388 0.495046 -0.00291617)
(0.371586 0.446757 -0.00401122)
(0.355634 0.40891 -0.00434786)
(0.321001 0.373644 -0.00470794)
(0.271204 0.336565 -0.00412878)
(0.224273 0.300685 -0.00342903)
(0.193541 0.269857 -0.00303799)
(0.170487 0.240552 -0.00255735)
(0.151644 0.210853 -0.000866799)
(0.132195 0.18184 0.000721485)
(0.119269 0.146107 0.00524429)
(0.102775 0.114 0.00623816)
(0.0796301 0.0889321 0.00894321)
(0.0515587 0.0682869 0.00365131)
(0.0264263 0.0440654 0.00285163)
(0.00726035 0.0219446 0.00870297)
(-0.00785561 -0.00387084 0.00950798)
(-0.0227371 -0.0261651 0.0114184)
(-0.0400909 -0.0518358 0.0132455)
(-0.0603123 -0.0759751 0.0142466)
(-0.0828028 -0.102261 0.0138131)
(-0.1215 -0.116737 0.00828206)
(-0.165095 -0.134804 0.00615685)
(-0.210132 -0.162992 0.00729118)
(-0.257444 -0.218874 0.0103609)
(-0.313522 -0.29495 0.0148819)
(-0.356846 -0.418614 0.0181344)
(-0.3662 -0.567181 0.0132047)
(-0.356791 -0.735108 0.00532894)
(-0.31089 -0.85888 -0.0111482)
(-0.210988 -0.884385 -0.0376898)
(-0.0555539 -0.662288 -0.0485566)
(0.0224255 -0.226322 -0.0144212)
(0.00447765 0.191952 -0.00335227)
(0.0406618 0.390715 -0.026318)
(0.100929 0.519827 -0.0370678)
(0.17449 0.578891 -0.0360486)
(0.239284 0.593094 -0.0245295)
(0.287105 0.573172 -0.0142747)
(0.323932 0.532766 -0.00518621)
(0.346405 0.487445 0.000631112)
(0.36008 0.43409 -0.000481756)
(0.351831 0.388449 -0.00163186)
(0.319113 0.347388 -0.00256183)
(0.272832 0.30741 -0.0016856)
(0.232519 0.274436 -0.00122496)
(0.206372 0.244216 -0.000733422)
(0.184278 0.216021 -0.000461048)
(0.166354 0.187187 0.000658889)
(0.14452 0.159402 0.00211131)
(0.125014 0.128705 0.00408281)
(0.110979 0.0922261 0.0101921)
(0.0935425 0.0657396 0.0097208)
(0.0650143 0.0468322 0.0106324)
(0.0384637 0.0273695 0.00649869)
(0.0178066 0.00857597 0.0088573)
(0.00177844 -0.0131738 0.00986504)
(-0.013123 -0.0340189 0.0112818)
(-0.0300318 -0.0591489 0.0116082)
(-0.0494434 -0.0802952 0.0120911)