/*--------------------------------*- C++ -*----------------------------------*\
| =========                 |                                                 |
| \\      /  F ield         | OpenFOAM: The Open Source CFD Toolbox           |
|  \\    /   O peration     | Version:  v1806                                 |
|   \\  /    A nd           | Web:      www.OpenFOAM.com                      |
|    \\/     M anipulation  |                                                 |
\*---------------------------------------------------------------------------*/
FoamFile
{
    version     2.0;
    format      ascii;
    class       volVectorField;
    location    "0.112";
    object      U_0;
}
// * * * * * * * * * * * * * * * * * * * * * * * * * * * * * * * * * * * * * //

dimensions      [0 1 -1 0 0 0 0];


internalField   nonuniform List<vector> 
64000
(
(-0.0114726 -0.0139223 -0.00982578)
(0.0170602 -0.0132864 -0.0072789)
(0.0235984 -0.00456526 5.63829e-05)
(0.028672 -0.00365653 0.00119503)
(0.0301957 -0.00255776 0.00152681)
(0.0311427 -0.00311432 0.00187459)
(0.0315197 -0.00403928 0.00185949)
(0.0295383 -0.00475379 0.00237319)
(0.0293354 -0.00583422 0.00307162)
(0.0242273 -0.00569364 0.00429684)
(0.0186423 -0.00719289 0.00277398)
(0.00925702 -0.00712257 0.00849554)
(-0.00285763 -0.0121902 0.00596061)
(-0.0261606 -0.01756 0.00418088)
(-0.050753 -0.0185314 0.00414024)
(-0.086004 -0.0193772 0.00276413)
(-0.108125 -0.00216084 0.000734748)
(-0.152998 -0.00487219 -0.00342668)
(-0.145473 -0.00878265 0.00315843)
(-0.209729 -0.0260461 -0.0124891)
(-0.17956 -0.0188256 -0.0174338)
(-0.0867814 -0.0217394 -0.0370441)
(-0.104393 -0.00481369 -0.0224168)
(-0.103078 -0.00181004 -0.0367403)
(-0.125832 0.00440081 -0.047455)
(-0.119333 0.0122875 -0.0578089)
(-0.108891 0.0227104 -0.0621104)
(-0.0717021 0.0329981 -0.0592307)
(-0.0379404 0.0407267 -0.0544762)
(0.00627266 0.0514432 -0.0414011)
(0.0505579 0.0500575 -0.0324515)
(0.0884063 0.0395401 -0.0258463)
(0.103947 0.0295581 -0.0128576)
(0.101406 0.0155432 -0.00563333)
(0.0873604 0.00673062 0.000795426)
(0.0692572 -0.00130557 0.00332325)
(0.050431 -0.00549512 0.00413848)
(0.0303958 -0.00516584 0.00496635)
(0.0162064 -0.00381484 0.00522514)
(0.00240895 -0.00244914 0.00335479)
(-0.0081609 0.00340757 -0.00599526)
(0.00879398 -0.017534 -0.00590135)
(0.0245053 -0.0112384 -0.00251864)
(0.036127 -0.00767043 -0.000971251)
(0.0425585 -0.00308316 -0.0016587)
(0.0436206 -0.00114546 -0.00182455)
(0.0431759 0.00235275 -0.00381052)
(0.0371379 0.00403694 -0.00293938)
(0.0311961 0.00741944 -0.00835792)
(0.0145651 0.0147806 -0.00358245)
(-0.00611992 0.0222234 -0.00796865)
(-0.0400994 0.031624 0.000425469)
(-0.0844301 0.040354 -0.00376744)
(-0.135681 0.0585715 -0.00653184)
(-0.191612 0.0733903 -0.0117609)
(-0.247586 0.0828933 -0.017122)
(-0.316088 0.0913293 -0.0439831)
(-0.420063 0.0930478 -0.0596879)
(-0.461436 0.100234 -0.0777166)
(-0.55257 0.101496 -0.0959893)
(-0.500338 0.12956 -0.0888563)
(-0.376987 0.145727 -0.124401)
(-0.377287 0.192925 -0.131309)
(-0.363 0.214394 -0.143755)
(-0.359327 0.238611 -0.155799)
(-0.31983 0.259607 -0.162645)
(-0.274166 0.280733 -0.164118)
(-0.201145 0.295751 -0.152545)
(-0.128062 0.302314 -0.133049)
(-0.0544372 0.305624 -0.10954)
(0.0081198 0.291478 -0.0765677)
(0.0717955 0.260103 -0.0461678)
(0.109236 0.212462 -0.038791)
(0.121702 0.16018 -0.0258925)
(0.1166 0.109947 -0.0126084)
(0.0981417 0.0702168 -0.00513847)
(0.0786862 0.0419144 -0.000869144)
(0.0542102 0.0269118 6.84204e-05)
(0.0323649 0.0171186 0.00131141)
(0.0079227 0.00891125 0.00121276)
(-0.000478643 -0.00369023 0.00135855)
(0.0155399 -0.0229445 -0.00242918)
(0.032457 -0.0176816 -0.00326144)
(0.044028 -0.00563864 -0.00433403)
(0.0473629 0.00305487 -0.00611246)
(0.0458227 0.0135331 -0.0077072)
(0.0396514 0.0278476 -0.00879664)
(0.0249692 0.0409729 -0.0107502)
(0.0115722 0.0649495 -0.00223027)
(-0.0163196 0.086012 -0.00421707)
(-0.0537355 0.113333 -0.00811528)
(-0.104105 0.143032 -0.012658)
(-0.156263 0.179197 -0.0174309)
(-0.230503 0.208342 -0.0316928)
(-0.320575 0.229594 -0.0371267)
(-0.417106 0.244952 -0.0435564)
(-0.495727 0.250204 -0.0608601)
(-0.582556 0.267232 -0.0800489)
(-0.617482 0.299822 -0.0981361)
(-0.69426 0.336863 -0.115766)
(-0.626436 0.373865 -0.100055)
(-0.475814 0.408897 -0.124265)
(-0.453872 0.464906 -0.122124)
(-0.427957 0.494145 -0.122818)
(-0.415446 0.525979 -0.126543)
(-0.371313 0.546729 -0.125612)
(-0.325145 0.561303 -0.120885)
(-0.258243 0.563568 -0.105157)
(-0.194505 0.553539 -0.0825169)
(-0.128041 0.532521 -0.0592748)
(-0.0741119 0.500289 -0.0393959)
(-0.0288933 0.451823 -0.027719)
(0.003699 0.379329 -0.0171811)
(0.0266852 0.306021 -0.00858904)
(0.0404024 0.226978 -0.01049)
(0.0469572 0.162611 -0.0108502)
(0.0474984 0.115898 -0.00708169)
(0.038377 0.0793263 -0.00499694)
(0.0272861 0.0534501 -0.00152575)
(0.00796186 0.0278716 0.00106193)
(0.00128664 -0.00900917 0.00215034)
(0.0182186 -0.0250479 -0.00158178)
(0.0388043 -0.012528 -0.00417778)
(0.0462842 0.00405029 -0.00766863)
(0.0444286 0.027676 -0.00814246)
(0.0414987 0.0512225 -0.00936643)
(0.0291299 0.0854673 -0.00929522)
(0.0121243 0.116955 -0.00505862)
(-0.0126585 0.162814 -0.0106732)
(-0.057025 0.201386 -0.0127602)
(-0.102611 0.245617 -0.0175026)
(-0.162045 0.283783 -0.0237152)
(-0.239928 0.313791 -0.0290913)
(-0.33062 0.329981 -0.0299591)
(-0.412191 0.352376 -0.0332856)
(-0.489946 0.375498 -0.0376762)
(-0.553636 0.407578 -0.0539363)
(-0.627223 0.436788 -0.0642848)
(-0.648398 0.482558 -0.0748723)
(-0.714193 0.531398 -0.0787722)
(-0.633943 0.562015 -0.0407896)
(-0.461913 0.589457 -0.0455916)
(-0.427172 0.628644 -0.036789)
(-0.400592 0.633583 -0.0292789)
(-0.388949 0.646566 -0.0279844)
(-0.353558 0.645893 -0.0235998)
(-0.319147 0.638404 -0.0201372)
(-0.268785 0.618367 -0.0120331)
(-0.222646 0.591921 0.000182572)
(-0.176735 0.557687 0.00749392)
(-0.147149 0.515593 0.01212)
(-0.12089 0.469519 0.0108361)
(-0.0970358 0.40911 0.00479364)
(-0.0739201 0.347301 -0.00299538)
(-0.0498215 0.268424 -0.00643902)
(-0.0193621 0.201657 -0.0108161)
(0.00120648 0.147763 -0.0109786)
(0.00941629 0.112192 -0.00817581)
(0.0170671 0.0793433 -0.00368636)
(0.00637155 0.0405546 0.000816186)
(0.000954745 -0.00981571 0.000393614)
(0.0233562 -0.0148285 -0.00385999)
(0.045757 0.00227588 -0.00830416)
(0.0548405 0.0350511 -0.00883935)
(0.0528037 0.0722994 -0.00890708)
(0.0466667 0.117429 -0.0150686)
(0.0290168 0.173176 -0.0129866)
(0.00283156 0.229331 -0.00590632)
(-0.0277702 0.285826 -0.00854442)
(-0.0792933 0.333086 -0.0108856)
(-0.136268 0.371805 -0.0141748)
(-0.211295 0.394897 -0.0166285)
(-0.284461 0.415371 -0.0171613)
(-0.354345 0.440235 -0.020453)
(-0.420317 0.47079 -0.0224639)
(-0.488993 0.503827 -0.0233983)
(-0.540424 0.534472 -0.0286524)
(-0.596456 0.56588 -0.027245)
(-0.596907 0.623507 -0.0208796)
(-0.647986 0.673349 -0.0283274)
(-0.569157 0.69916 0.010826)
(-0.390765 0.709068 0.0178043)
(-0.35295 0.718337 0.0321848)
(-0.335662 0.687983 0.0366165)
(-0.336681 0.671783 0.0360527)
(-0.320411 0.644317 0.0416412)
(-0.305674 0.61258 0.0427297)
(-0.274083 0.574472 0.0466725)
(-0.24864 0.532544 0.0397745)
(-0.222406 0.49129 0.0309828)
(-0.203852 0.445326 0.0206541)
(-0.193065 0.41124 0.0136532)
(-0.183534 0.372351 0.00656914)
(-0.174267 0.341158 -0.00558878)
(-0.150754 0.278314 -0.0144696)
(-0.101201 0.209391 -0.0151239)
(-0.0499712 0.162024 -0.0140386)
(-0.0154964 0.132322 -0.0120195)
(0.0034287 0.0984388 -0.00637202)
(0.00349091 0.050992 0.000892605)
(0.00511623 -0.00310679 -0.000267895)
(0.028148 0.00194931 -0.00646671)
(0.05911 0.0292329 -0.00732683)
(0.0703139 0.0795692 -0.00973281)
(0.0656337 0.136714 -0.0146741)
(0.0641303 0.199789 -0.0185263)
(0.0452972 0.274091 -0.0148009)
(0.0124849 0.326598 -0.00569717)
(-0.0343776 0.371802 -0.00756386)
(-0.101916 0.406675 -0.00980361)
(-0.16828 0.437119 -0.0118827)
(-0.231297 0.465046 -0.0116292)
(-0.287055 0.498541 -0.0100615)
(-0.343696 0.529288 -0.00663147)
(-0.38997 0.557475 -0.00123857)
(-0.441062 0.586513 0.00460783)
(-0.473337 0.616881 0.00855891)
(-0.500506 0.648351 0.0104318)
(-0.491332 0.697766 0.00740836)
(-0.533618 0.739654 0.00942835)
(-0.458204 0.758638 0.0454068)
(-0.29949 0.718927 0.0558921)
(-0.27989 0.69804 0.0690529)
(-0.284305 0.63592 0.077181)
(-0.299192 0.597548 0.0777501)
(-0.302273 0.553843 0.0761432)
(-0.303303 0.512038 0.0732555)
(-0.291751 0.468634 0.0660912)
(-0.279164 0.421409 0.0639402)
(-0.266792 0.381559 0.0419281)
(-0.2578 0.337238 0.029818)
(-0.246235 0.306034 0.0137744)
(-0.231852 0.278835 0.00387653)
(-0.23638 0.267183 -0.00757623)
(-0.237805 0.242864 -0.0184552)
(-0.172709 0.19415 -0.0152825)
(-0.0904911 0.16303 -0.0157726)
(-0.0389645 0.137617 -0.0123812)
(-0.00420292 0.106194 -0.00720459)
(0.00258133 0.0547607 0.00148992)
(0.0050722 0.00335291 -0.00167877)
(0.0371515 0.0171804 -0.00979387)
(0.0798578 0.0575896 -0.0108682)
(0.103163 0.112686 -0.0130105)
(0.0998342 0.179281 -0.0185181)
(0.0965863 0.251704 -0.0218119)
(0.0573458 0.314944 -0.0162386)
(-0.00369067 0.344834 -0.00092531)
(-0.050363 0.388056 -0.00654468)
(-0.105209 0.425488 -0.00682651)
(-0.150615 0.468871 -0.00664811)
(-0.198874 0.51199 -0.00440739)
(-0.242582 0.552094 -0.000409172)
(-0.287407 0.585217 0.00402849)
(-0.324024 0.618244 0.0129057)
(-0.35819 0.643349 0.0177103)
(-0.375828 0.671813 0.0251348)
(-0.396906 0.687163 0.0281132)
(-0.372579 0.706718 0.0300081)
(-0.396833 0.719849 0.0168256)
(-0.382248 0.739855 0.0420855)
(-0.253659 0.632246 0.0587443)
(-0.227403 0.593493 0.0669071)
(-0.248872 0.52663 0.0756166)
(-0.275017 0.48896 0.0744075)
(-0.295715 0.449986 0.0726304)
(-0.31301 0.416518 0.0682075)
(-0.318581 0.381225 0.0598861)
(-0.318878 0.344184 0.0457505)
(-0.319087 0.309156 0.0287036)
(-0.316096 0.275663 0.0148206)
(-0.307736 0.246919 0.000960429)
(-0.291902 0.225417 -0.00600775)
(-0.283982 0.209978 -0.0137326)
(-0.286299 0.220112 -0.021201)
(-0.224617 0.195055 -0.0217022)
(-0.125363 0.169456 -0.0222751)
(-0.0542728 0.148774 -0.0172922)
(-0.00946101 0.116045 -0.0109468)
(0.00252449 0.0602671 -0.000146536)
(0.00627406 0.010226 -0.00427472)
(0.0449067 0.0367462 -0.0136605)
(0.0984891 0.0851341 -0.0140847)
(0.124255 0.141523 -0.0122491)
(0.127733 0.201122 -0.0135508)
(0.113262 0.271865 -0.016233)
(0.0528151 0.302711 -0.00555599)
(0.00758695 0.351004 0.001936)
(-0.0198858 0.395623 -0.00244805)
(-0.0683048 0.450498 -0.000451515)
(-0.106997 0.494472 0.000416785)
(-0.147168 0.532882 0.00669364)
(-0.182384 0.564501 0.0125342)
(-0.212812 0.590666 0.0213709)
(-0.235668 0.615608 0.0258075)
(-0.262682 0.629462 0.0306918)
(-0.27661 0.641644 0.0341651)
(-0.294444 0.63706 0.0334293)
(-0.285536 0.638793 0.0311861)
(-0.296772 0.602925 0.015667)
(-0.330812 0.620757 0.0204858)
(-0.250467 0.519399 0.0408499)
(-0.204256 0.46457 0.0440515)
(-0.234719 0.418138 0.0548391)
(-0.267702 0.389283 0.0568606)
(-0.301087 0.363401 0.0574513)
(-0.328468 0.339928 0.0577812)
(-0.346514 0.313399 0.0490973)
(-0.358555 0.286623 0.0379087)
(-0.364971 0.256193 0.0146958)
(-0.366492 0.224452 0.00409937)
(-0.356496 0.199048 -0.00530326)
(-0.340687 0.185905 -0.0129009)
(-0.319875 0.174829 -0.0157696)
(-0.325363 0.195352 -0.0251761)
(-0.274836 0.19866 -0.0214098)
(-0.160189 0.174935 -0.0228066)
(-0.0729484 0.157834 -0.0173939)
(-0.0145348 0.122893 -0.0105399)
(0.00324784 0.0638836 0.00074044)
(0.0050089 0.0251343 -0.00712334)
(0.05342 0.0692109 -0.0177735)
(0.11882 0.124586 -0.0195291)
(0.150777 0.180786 -0.0142958)
(0.158518 0.241342 -0.0156368)
(0.125758 0.291091 -0.01554)
(0.0745442 0.326955 -0.00663286)
(0.0373907 0.386761 0.00118501)
(0.0127554 0.423302 0.00780807)
(-0.0182956 0.465387 0.00669197)
(-0.05615 0.498197 0.0114503)
(-0.0874945 0.526959 0.0159557)
(-0.112219 0.546844 0.0252446)
(-0.134015 0.558953 0.0315645)
(-0.154693 0.562051 0.0347758)
(-0.177511 0.555304 0.0352754)
(-0.195045 0.547323 0.0341402)
(-0.217732 0.526202 0.0293077)
(-0.23525 0.51245 0.022712)
(-0.24379 0.47015 0.0098197)
(-0.294806 0.47269 -0.00194124)
(-0.269446 0.423161 0.0156098)
(-0.210601 0.357065 0.0226176)
(-0.231628 0.338261 0.0320114)
(-0.268826 0.319231 0.0382954)
(-0.308849 0.303726 0.0423701)
(-0.345535 0.288078 0.0468386)
(-0.371893 0.266458 0.0411844)
(-0.393759 0.244427 0.0239221)
(-0.410778 0.211067 0.00611201)
(-0.412669 0.185625 -0.00341546)
(-0.399062 0.162245 -0.0111234)
(-0.383162 0.148182 -0.014643)
(-0.352574 0.147512 -0.0250871)
(-0.341175 0.159843 -0.027697)
(-0.305884 0.194413 -0.0308546)
(-0.196597 0.178235 -0.0261249)
(-0.088907 0.167904 -0.0245913)
(-0.0199248 0.133215 -0.0134921)
(0.00415623 0.0706928 -0.00140575)
(0.00754856 0.0420082 -0.00983383)
(0.0626756 0.107072 -0.0257846)
(0.137433 0.166699 -0.0250391)
(0.176496 0.220855 -0.0164948)
(0.176269 0.273573 -0.0164499)
(0.14554 0.306382 -0.0178194)
(0.108197 0.354899 -0.00703626)
(0.0768356 0.401126 0.00421833)
(0.0487375 0.440986 0.0115398)
(0.0222537 0.465687 0.0218907)
(-0.000490948 0.488492 0.0218951)
(-0.0269866 0.500927 0.0299962)
(-0.0517212 0.504555 0.0361566)
(-0.072568 0.497445 0.0420437)
(-0.0926931 0.479224 0.0432996)
(-0.117249 0.453838 0.0402807)
(-0.14118 0.428557 0.0344111)
(-0.168389 0.397925 0.026317)
(-0.197417 0.37661 0.0174823)
(-0.213489 0.351541 0.00641636)
(-0.268824 0.341707 -0.0113067)
(-0.285025 0.332833 -0.00121373)
(-0.224022 0.288879 0.0108033)
(-0.225761 0.285704 0.0168569)
(-0.267126 0.271329 0.0276498)
(-0.309714 0.263393 0.0343026)
(-0.351796 0.246404 0.0431207)
(-0.386516 0.23104 0.0351406)
(-0.417301 0.202364 0.0249188)
(-0.432632 0.175419 0.00737252)
(-0.438225 0.147482 0.00758979)
(-0.431784 0.123587 0.0151862)
(-0.41181 0.104638 0.0104997)
(-0.38334 0.104467 0.00784303)
(-0.362119 0.117122 -0.0160298)
(-0.329907 0.163958 -0.026265)
(-0.227592 0.174266 -0.0254745)
(-0.107611 0.166793 -0.0210788)
(-0.0260139 0.13966 -0.0127049)
(0.00495274 0.0740853 -0.000170045)
(0.00853091 0.0665072 -0.0122909)
(0.07185 0.15128 -0.0318029)
(0.155698 0.214285 -0.0310009)
(0.199082 0.263428 -0.0195323)
(0.196101 0.300444 -0.0133709)
(0.171814 0.336327 -0.0168678)
(0.148231 0.376698 -0.00610666)
(0.118002 0.414531 0.000656111)
(0.0940974 0.443353 0.00839046)
(0.0671531 0.46418 0.0225917)
(0.0411601 0.47132 0.0343734)
(0.019762 0.468949 0.0440315)
(0.00120371 0.45709 0.0485397)
(-0.0228802 0.430543 0.0484365)
(-0.0505174 0.403487 0.0487472)
(-0.0779213 0.367713 0.0429256)
(-0.108193 0.337852 0.0337498)
(-0.141366 0.30866 0.0230194)
(-0.174437 0.287493 0.0134474)
(-0.197592 0.274194 0.0020557)
(-0.249205 0.262106 -0.0125305)
(-0.273293 0.265021 -0.0068597)
(-0.217786 0.256511 0.00479571)
(-0.214727 0.250647 0.00969757)
(-0.254507 0.239145 0.0220513)
(-0.300336 0.228358 0.0298836)
(-0.347717 0.214793 0.0380592)
(-0.386639 0.193636 0.0336521)
(-0.421507 0.169011 0.0206236)
(-0.445343 0.138813 0.0292495)
(-0.460212 0.103225 0.0308492)
(-0.459965 0.0748918 0.016129)
(-0.444525 0.0568383 0.0114631)
(-0.409379 0.0539699 0.00159063)
(-0.370652 0.0666943 -0.00240747)
(-0.339865 0.116233 -0.0246958)
(-0.253202 0.153029 -0.0285203)
(-0.125788 0.163695 -0.0232401)
(-0.0296733 0.143723 -0.0144833)
(0.0042753 0.0793796 -0.00182495)
(0.00998362 0.0863575 -0.0130368)
(0.077782 0.19131 -0.0357969)
(0.169115 0.256627 -0.0342585)
(0.212015 0.294919 -0.0188426)
(0.215821 0.323701 -0.012154)
(0.202522 0.357917 -0.00926245)
(0.182927 0.390565 -0.00804578)
(0.157678 0.414717 0.00374346)
(0.131723 0.435259 0.00986853)
(0.106684 0.442809 0.0201746)
(0.0852995 0.444965 0.0285045)
(0.0600444 0.432486 0.0488725)
(0.0315146 0.409314 0.0536014)
(0.0112548 0.373071 0.0563913)
(-0.0152878 0.336483 0.0486644)
(-0.0498138 0.304378 0.0423997)
(-0.0817923 0.276709 0.0304)
(-0.118566 0.254356 0.0186208)
(-0.152549 0.239923 0.00940806)
(-0.18126 0.234978 -0.00216485)
(-0.231984 0.226067 -0.0131765)
(-0.247614 0.228267 -0.00778952)
(-0.197363 0.236754 0.00064425)
(-0.194994 0.222449 0.00541103)
(-0.233278 0.208941 0.0173395)
(-0.276673 0.193603 0.026031)
(-0.326825 0.179615 0.0328712)
(-0.368968 0.157152 0.0256607)
(-0.408801 0.13081 0.0390225)
(-0.442876 0.0951548 0.0450602)
(-0.464247 0.0602666 0.0371858)
(-0.467792 0.0323313 0.0461416)
(-0.459657 0.0110389 0.0378955)
(-0.436706 0.00595323 0.0361572)
(-0.396273 0.0139075 0.0250334)
(-0.354452 0.0593197 0.00350454)
(-0.267463 0.114658 -0.0246371)
(-0.140258 0.148528 -0.0248977)
(-0.0363482 0.140367 -0.0138786)
(0.00552687 0.0803527 -0.00162791)
(0.0103229 0.107727 -0.0120167)
(0.08242 0.231584 -0.0380716)
(0.17482 0.297926 -0.0370506)
(0.224575 0.327495 -0.0198675)
(0.239715 0.351813 -0.00717018)
(0.233729 0.376487 -0.0014923)
(0.215149 0.400087 0.00195554)
(0.190833 0.41464 0.00266172)
(0.170146 0.423928 0.0111402)
(0.14612 0.425026 0.0227749)
(0.121273 0.415691 0.0315467)
(0.0940968 0.394511 0.0391479)
(0.0663393 0.365088 0.0472908)
(0.0341574 0.329685 0.0548563)
(0.00763388 0.288622 0.0510799)
(-0.021716 0.256345 0.0389461)
(-0.059782 0.235086 0.0268079)
(-0.096805 0.217761 0.0146218)
(-0.129022 0.208535 0.00679264)
(-0.159589 0.206462 -0.00410454)
(-0.207117 0.199549 -0.0112726)
(-0.207804 0.204722 -0.00537334)
(-0.164632 0.216493 -0.000245701)
(-0.17099 0.195264 0.0033748)
(-0.202418 0.177253 0.0143357)
(-0.244689 0.159398 0.0222539)
(-0.29276 0.139289 0.0266035)
(-0.338658 0.118199 0.0360829)
(-0.38573 0.0870623 0.0480985)
(-0.42636 0.0528154 0.0474815)
(-0.45208 0.0217747 0.0674622)
(-0.473599 -0.0162777 0.0503695)
(-0.479598 -0.0546091 0.0336946)
(-0.463711 -0.0759501 0.0107335)
(-0.42082 -0.0657234 0.00382668)
(-0.374126 -0.0206544 0.00631847)
(-0.289152 0.0630108 -0.00203059)
(-0.157153 0.119144 -0.0299127)
(-0.041522 0.132727 -0.013596)
(0.00501234 0.0825865 -0.00308554)
(0.00969526 0.116125 -0.0115684)
(0.0805611 0.256063 -0.0409462)
(0.175623 0.325763 -0.0416243)
(0.231765 0.353439 -0.0230623)
(0.257571 0.369081 -0.00485714)
(0.258784 0.382323 0.00511907)
(0.242325 0.394767 0.0109753)
(0.218988 0.402587 0.0135736)
(0.198577 0.406204 0.0166021)
(0.17581 0.400302 0.020904)
(0.152596 0.384454 0.0252945)
(0.122951 0.357704 0.0372726)
(0.0897048 0.32531 0.0383493)
(0.0579073 0.288265 0.0419411)
(0.0254577 0.256665 0.0468125)
(-0.00215137 0.221968 0.0374602)
(-0.0342124 0.205611 0.0225262)
(-0.0725289 0.191322 0.011637)
(-0.10102 0.184557 0.00476697)
(-0.131495 0.183917 -0.00505139)
(-0.170862 0.174484 -0.00851038)
(-0.157633 0.191593 -0.00167735)
(-0.127535 0.19276 -0.00177688)
(-0.141596 0.167259 0.00336716)
(-0.167728 0.146209 0.0106149)
(-0.205887 0.121438 0.0182402)
(-0.251008 0.101882 0.0207121)
(-0.296483 0.0751237 0.03892)
(-0.347505 0.0461063 0.0453591)
(-0.387375 0.017079 0.0667546)
(-0.435229 -0.0234926 0.0507219)
(-0.478794 -0.0759716 0.0398362)
(-0.495642 -0.122691 0.024972)
(-0.481457 -0.155531 0.012325)
(-0.43913 -0.158378 -0.00865706)
(-0.378827 -0.12032 -0.00735861)
(-0.296583 -0.0199583 -0.000912554)
(-0.175805 0.0745398 -0.0165354)
(-0.0475046 0.115444 -0.0194887)
(0.00695405 0.080346 -0.00138259)
(0.00844918 0.124123 -0.00913701)
(0.0798667 0.278468 -0.0399977)
(0.17653 0.353269 -0.0428228)
(0.23948 0.378129 -0.0237673)
(0.272217 0.386007 -0.00296345)
(0.278181 0.386478 0.0115754)
(0.266174 0.389278 0.0213324)
(0.246917 0.390606 0.0238291)
(0.229242 0.389651 0.0261293)
(0.205543 0.378586 0.0281491)
(0.178872 0.35944 0.0291166)
(0.148923 0.329189 0.0281396)
(0.116021 0.296085 0.0266771)
(0.0816556 0.260103 0.0302388)
(0.0459854 0.229073 0.0334986)
(0.018176 0.20349 0.0325845)
(-0.00998967 0.180039 0.0184563)
(-0.0461523 0.170904 0.00871883)
(-0.0685488 0.166599 0.00339631)
(-0.0996044 0.158311 -0.00625047)
(-0.121009 0.157561 -0.00320282)
(-0.102446 0.180172 0.000447692)
(-0.0955399 0.16458 0.000957244)
(-0.113046 0.138806 0.00401116)
(-0.135747 0.113124 0.0097441)
(-0.167718 0.0864644 0.0141336)
(-0.207334 0.0639732 0.027883)
(-0.253051 0.036831 0.0364357)
(-0.29568 0.012522 0.0533528)
(-0.350662 -0.0234848 0.0474744)
(-0.41244 -0.0761158 0.04242)
(-0.462089 -0.128634 0.0321715)
(-0.492613 -0.180003 0.0197607)
(-0.494347 -0.222416 0.00360229)
(-0.458966 -0.241953 -0.0138859)
(-0.390794 -0.214385 -0.0200693)
(-0.302016 -0.126427 -0.018394)
(-0.187216 0.0163091 0.00273227)
(-0.0567928 0.0908676 -0.0247693)
(0.00513488 0.078736 -0.00237927)
(0.00617127 0.108527 -0.00974984)
(0.0736804 0.275914 -0.0404636)
(0.170992 0.356971 -0.0424494)
(0.238891 0.383021 -0.0229903)
(0.278862 0.385612 0.000655753)
(0.292545 0.382595 0.0154956)
(0.2876 0.380068 0.0217762)
(0.270625 0.374329 0.0259848)
(0.251782 0.364869 0.0276512)
(0.228543 0.350032 0.0282504)
(0.202654 0.329118 0.0271176)
(0.170689 0.30206 0.0250832)
(0.135178 0.27048 0.0203317)
(0.100335 0.237135 0.0141015)
(0.067899 0.208423 0.0147162)
(0.0356304 0.187224 0.0201682)
(0.0117702 0.167832 0.0142802)
(-0.0111997 0.153912 0.004606)
(-0.038815 0.149085 -0.00119363)
(-0.0603454 0.14224 -0.00421251)
(-0.0612856 0.157042 0.000912935)
(-0.0581008 0.157789 0.00240336)
(-0.0701168 0.136466 0.00421313)
(-0.087514 0.110019 0.00604783)
(-0.108036 0.0847686 0.00799633)
(-0.133969 0.057523 0.0120199)
(-0.168537 0.032033 0.0222235)
(-0.203563 0.00600094 0.0366765)
(-0.252667 -0.0241383 0.0388534)
(-0.31338 -0.072209 0.0391713)
(-0.373358 -0.120633 0.0350796)
(-0.428787 -0.177245 0.0294606)
(-0.468639 -0.235638 0.0184533)
(-0.484983 -0.290585 0.00412843)
(-0.462592 -0.324347 -0.0143824)
(-0.402678 -0.314856 -0.0267402)
(-0.297329 -0.238045 -0.0299984)
(-0.190649 -0.0840415 -0.0181798)
(-0.0684973 0.0491136 -0.0171239)
(0.00661442 0.0691914 -0.00582905)
(0.00772164 0.11066 -0.00277037)
(0.0744149 0.284522 -0.0329584)
(0.170418 0.369583 -0.0377309)
(0.244243 0.393046 -0.0175573)
(0.293785 0.389697 0.00774069)
(0.315719 0.377847 0.0158681)
(0.311579 0.368721 0.024463)
(0.293914 0.356393 0.0263643)
(0.276546 0.345787 0.0257785)
(0.254674 0.328604 0.0229412)
(0.229309 0.307187 0.0195238)
(0.198149 0.277475 0.0154021)
(0.161231 0.246788 0.0101938)
(0.124333 0.214087 0.00666453)
(0.0910762 0.187221 0.00266783)
(0.0632499 0.166363 0.00413834)
(0.0360931 0.15699 0.00529553)
(0.0130221 0.151575 0.000540161)
(0.000537434 0.153372 -0.00184374)
(-0.00638675 0.154872 -0.000867969)
(-0.0166526 0.154101 0.00256158)
(-0.0311406 0.134157 0.00529139)
(-0.0476702 0.112193 0.00726252)
(-0.0658986 0.0861991 0.0082536)
(-0.084585 0.0614208 0.0094108)
(-0.108555 0.0352685 0.013736)
(-0.136293 0.00869647 0.0249533)
(-0.173753 -0.0202002 0.0274748)
(-0.223896 -0.0594349 0.0294088)
(-0.279068 -0.101652 0.0302118)
(-0.336792 -0.149813 0.0303106)
(-0.391809 -0.207531 0.0272171)
(-0.436211 -0.270138 0.0200724)
(-0.462481 -0.336358 0.0070444)
(-0.453583 -0.386252 -0.0104751)
(-0.403894 -0.401244 -0.027018)
(-0.307244 -0.338862 -0.038698)
(-0.190823 -0.196168 -0.029889)
(-0.0645541 -0.00411363 -0.00971001)
(0.00296971 0.0561804 -0.00961585)
(-0.00221617 0.0887038 -0.0147403)
(0.0539618 0.271174 -0.0396028)
(0.152076 0.367166 -0.0454677)
(0.234237 0.393317 -0.0242359)
(0.293844 0.392019 -0.00207753)
(0.328103 0.372762 0.0120773)
(0.334719 0.355846 0.0181512)
(0.320918 0.334979 0.0195372)
(0.302826 0.317422 0.0172695)
(0.277921 0.305192 0.0140876)
(0.248997 0.294708 0.0107551)
(0.21432 0.280745 0.00851864)
(0.176615 0.259967 0.00538874)
(0.140581 0.2327 0.00318898)
(0.112123 0.207756 0.000784044)
(0.0901987 0.18916 0.00194143)
(0.0780327 0.184717 0.00178108)
(0.0661199 0.183501 -0.00246774)
(0.0470311 0.179814 -0.00398221)
(0.0248713 0.16433 -0.00209979)
(0.00407314 0.144411 0.00291669)
(-0.0127048 0.117311 0.00635282)
(-0.0303267 0.0929434 0.00882966)
(-0.0489013 0.0672634 0.0104135)
(-0.0659312 0.0408837 0.0124994)
(-0.087264 0.0133732 0.0147063)
(-0.114723 -0.0129075 0.0152799)
(-0.149739 -0.0491771 0.0153295)
(-0.194414 -0.0873015 0.017218)
(-0.243607 -0.13285 0.0194698)
(-0.295946 -0.182645 0.0210315)
(-0.34801 -0.244141 0.0207709)
(-0.394304 -0.311158 0.0162929)
(-0.427822 -0.387452 0.00669155)
(-0.432247 -0.451645 -0.00982925)
(-0.393801 -0.487398 -0.0256308)
(-0.305953 -0.443254 -0.0504651)
(-0.192028 -0.311337 -0.0428072)
(-0.0645034 -0.0849832 -0.01175)
(0.0013529 0.0407145 -6.66835e-06)
(-0.00184271 0.155562 -0.00316965)
(0.0508577 0.353392 -0.0169604)
(0.141692 0.453158 -0.028151)
(0.226833 0.475665 -0.00860865)
(0.295806 0.46582 -0.00126691)
(0.335499 0.433585 0.0146592)
(0.345745 0.397 0.0186422)
(0.332985 0.373891 0.0212444)
(0.327996 0.374717 0.0186284)
(0.319367 0.376713 0.01339)
(0.298174 0.372678 0.00696583)
(0.26073 0.359341 0.000512006)
(0.211328 0.334649 -0.004052)
(0.166641 0.302216 -0.00538429)
(0.136357 0.271795 -0.0061764)
(0.124221 0.245442 -0.00309328)
(0.111435 0.224452 0.00213929)
(0.0884228 0.201494 -0.00436833)
(0.0625273 0.179316 -0.00775564)
(0.0398882 0.15233 -0.00393363)
(0.017697 0.12944 -0.000154311)
(-0.00224086 0.100964 0.00521651)
(-0.0178492 0.0761214 0.00838659)
(-0.0373378 0.0496178 0.0107674)
(-0.055075 0.0255509 0.0124658)
(-0.0739245 -0.0025622 0.0122547)
(-0.101922 -0.025387 0.0095391)
(-0.138936 -0.0571303 0.00797939)
(-0.181224 -0.0917179 0.00856092)
(-0.225454 -0.136055 0.0109953)
(-0.270734 -0.184507 0.0143116)
(-0.314754 -0.246507 0.0164643)
(-0.357494 -0.318167 0.0154706)
(-0.393106 -0.404266 0.00873265)
(-0.405641 -0.487576 -0.0061259)
(-0.376701 -0.550954 -0.0242245)
(-0.304963 -0.551257 -0.0545122)
(-0.194461 -0.425392 -0.056193)
(-0.0574782 -0.207342 -0.028997)
(0.00489035 -0.00016099 -0.000838658)
(-0.0164094 0.229815 -0.0209156)
(0.0211835 0.469383 -0.0397285)
(0.110156 0.579581 -0.0483064)
(0.196318 0.618645 -0.0319523)
(0.26847 0.609272 -0.021279)
(0.315073 0.57686 -0.0030524)
(0.348252 0.52964 0.00500528)
(0.378448 0.494208 0.00650369)
(0.387975 0.479299 -0.000989392)
(0.360984 0.45678 -0.0068077)
(0.320795 0.426912 -0.0103956)
(0.268746 0.390796 -0.0114241)
(0.213173 0.348719 -0.0111654)
(0.169863 0.311032 -0.0101971)
(0.143539 0.278639 -0.0102087)
(0.126753 0.248506 -0.00734839)
(0.115614 0.212516 -0.00254636)
(0.101238 0.183352 0.00363412)
(0.076761 0.15866 -0.00154246)
(0.0528375 0.135851 -0.00388274)
(0.0288653 0.109999 -0.00118868)
(0.00844204 0.084377 0.00372696)
(-0.00799831 0.0568645 0.00750812)
(-0.0254474 0.029698 0.0108331)
(-0.0418653 0.00494417 0.00944423)
(-0.057661 -0.0227071 0.0111077)
(-0.0816485 -0.0492607 0.00593138)
(-0.117117 -0.0774587 0.000439474)
(-0.157901 -0.111426 -0.00435066)
(-0.198259 -0.159421 -0.00681665)
(-0.239433 -0.209254 -0.00724315)
(-0.280313 -0.274898 -0.00740253)
(-0.320106 -0.346775 -0.00630825)
(-0.357737 -0.441718 -0.00826613)
(-0.382442 -0.538266 -0.0178603)
(-0.381901 -0.635745 -0.0346997)
(-0.313606 -0.66465 -0.0591175)
(-0.227969 -0.56538 -0.0750095)
(-0.084537 -0.286883 -0.035002)
(0.0155691 -0.019288 -0.00359222)
(0.00159432 0.19591 0.00233881)
(0.0394276 0.438737 -0.0361128)
(0.113717 0.563896 -0.0484887)
(0.200306 0.62062 -0.044648)
(0.271576 0.624307 -0.0343888)
(0.319793 0.603416 -0.0235268)
(0.346843 0.564442 -0.016621)
(0.367231 0.516961 -0.00720679)
(0.375611 0.467351 -0.00945594)
(0.353325 0.425935 -0.00942458)
(0.319698 0.388295 -0.00956971)
(0.271832 0.353078 -0.00832125)
(0.221688 0.315022 -0.00670699)
(0.185772 0.284802 -0.00525156)
(0.161072 0.256946 -0.0045284)
(0.142638 0.229505 -0.00236168)
(0.127854 0.199826 0.000716294)
(0.113795 0.165632 0.00335402)
(0.0918035 0.140012 0.00691823)
(0.0653703 0.116308 0.00209091)
(0.0382103 0.0932402 -1.32939e-05)
(0.0150206 0.0667061 0.00274168)
(-0.00304847 0.0400808 0.00868316)
(-0.0194695 0.0120785 0.0113566)
(-0.035883 -0.012528 0.011407)
(-0.052944 -0.0405744 0.0143681)
(-0.0753737 -0.0692004 0.0136813)
(-0.11012 -0.0984874 0.0093955)
(-0.157094 -0.122161 0.00481536)
(-0.194527 -0.161801 0.00415397)
(-0.226707 -0.208384 0.00269734)
(-0.255463 -0.28138 0.000196281)
(-0.28714 -0.373611 -0.00489308)
(-0.317258 -0.50844 -0.0118531)
(-0.345608 -0.650247 -0.0185737)
(-0.350414 -0.785183 -0.0273192)
(-0.29862 -0.848078 -0.049331)
(-0.192478 -0.799669 -0.0638883)
(-0.0700594 -0.500597 -0.0628402)
(-0.00369545 -0.127823 0.00927757)
(-1.57445e-05 0.208239 -0.00241971)
(0.0348145 0.425228 -0.0329103)
(0.101695 0.548163 -0.043629)
(0.180045 0.602251 -0.0416172)
(0.248897 0.606623 -0.0249199)
(0.300946 0.581631 -0.0186274)
(0.335744 0.539953 -0.00997487)
(0.361431 0.49701 -0.00316105)
(0.376145 0.448789 -0.00422386)
(0.360756 0.411405 -0.00444913)
(0.326576 0.376646 -0.00468368)
(0.276433 0.340022 -0.00396989)
(0.22842 0.304125 -0.00301683)
(0.196713 0.273467 -0.00245221)
(0.172952 0.244402 -0.00188818)
(0.153414 0.214882 -0.000144266)
(0.133447 0.185997 0.00156146)
(0.120226 0.150119 0.00621293)
(0.102886 0.118467 0.00712458)
(0.0783472 0.0939315 0.00965219)
(0.0489462 0.0736992 0.00388892)
(0.0231943 0.049154 0.00339536)
(0.00453814 0.0262442 0.00931257)
(-0.0105986 0.000196371 0.00954312)
(-0.0255822 -0.0219653 0.0115275)
(-0.0424591 -0.0475893 0.0132389)
(-0.0625523 -0.0717687 0.0141853)
(-0.0847932 -0.0982552 0.0138306)
(-0.123232 -0.112795 0.00828662)
(-0.166691 -0.130691 0.00604408)
(-0.21162 -0.15853 0.00711592)
(-0.258852 -0.214135 0.0101397)
(-0.315037 -0.289869 0.0147459)
(-0.358343 -0.413306 0.0180963)
(-0.367491 -0.56135 0.0132932)
(-0.357819 -0.729046 0.00546279)
(-0.311832 -0.852775 -0.0109304)
(-0.211818 -0.87837 -0.0373238)
(-0.0560076 -0.656529 -0.0482509)
(0.0222887 -0.220806 -0.0144229)
(0.00476273 0.192368 -0.00344397)
(0.0412383 0.39121 -0.026511)
(0.101736 0.520457 -0.037166)
(0.175653 0.579678 -0.0361693)
(0.240667 0.59402 -0.0246476)
(0.288731 0.574327 -0.0143881)
(0.325862 0.534189 -0.00537227)
(0.349594 0.489236 0.000497579)
(0.364908 0.435697 -0.000594995)
(0.357531 0.390499 -0.00165032)
(0.325148 0.349847 -0.00244465)
(0.278218 0.309962 -0.00134357)
(0.23675 0.276967 -0.000608844)
(0.209746 0.246913 4.22062e-05)
(0.186933 0.218907 0.000369426)
(0.168345 0.190262 0.0015364)
(0.145752 0.162699 0.00307311)
(0.125984 0.131929 0.00527793)
(0.111544 0.0954481 0.0115097)
(0.092718 0.0697062 0.0107391)
(0.0624932 0.0510429 0.0115115)
(0.0347565 0.0317115 0.00702387)
(0.0144031 0.0126579 0.0100655)
(-0.000984696 -0.00997644 0.0103894)
(-0.0156968 -0.0304021 0.0116513)
(-0.0324965 -0.0556164 0.0117909)
(-0.0518457 -0.0768247 0.0121868)