/*--------------------------------*- C++ -*----------------------------------*\
| =========                 |                                                 |
| \\      /  F ield         | OpenFOAM: The Open Source CFD Toolbox           |
|  \\    /   O peration     | Version:  v1806                                 |
|   \\  /    A nd           | Web:      www.OpenFOAM.com                      |
|    \\/     M anipulation  |                                                 |
\*---------------------------------------------------------------------------*/
FoamFile
{
    version     2.0;
    format      ascii;
    class       surfaceScalarField;
    location    "0.0125";
    object      phi;
}
// * * * * * * * * * * * * * * * * * * * * * * * * * * * * * * * * * * * * * //

dimensions      [0 3 -1 0 0 0 0];
oriented        oriented;


internalField   nonuniform List<scalar> 
187200
(
8.35415e-06
-1.8484e-07
-8.17153e-06
3.18174e-05
-9.45112e-06
-1.4012e-05
5.25781e-05
-7.88042e-06
-1.288e-05
7.2001e-05
-7.33174e-06
-1.2091e-05
8.99212e-05
-6.26885e-06
-1.16513e-05
0.000107671
-5.44891e-06
-1.23012e-05
0.000122896
-2.67636e-06
-1.25482e-05
0.00013523
1.14739e-06
-1.34815e-05
0.000143974
5.41651e-06
-1.41608e-05
0.000146385
1.13765e-05
-1.37868e-05
0.000148924
1.34565e-05
-1.59958e-05
0.00014659
1.8585e-05
-1.62509e-05
0.000130175
2.64528e-05
-1.00378e-05
9.70496e-05
3.35112e-05
-3.86209e-07
4.81358e-05
3.39096e-05
1.50041e-05
-3.2347e-06
2.64101e-05
2.49601e-05
-7.17403e-05
4.11809e-05
2.73242e-05
-0.00014943
7.21165e-05
5.57336e-06
-0.000244922
9.91403e-05
-3.64841e-06
-0.000373099
0.000136234
-8.05727e-06
-0.000511745
0.00017598
-3.73343e-05
-0.000636232
0.000224696
-0.000100208
-0.000719813
0.000266391
-0.000182811
-0.000748298
0.000308449
-0.000279964
-0.000730349
0.000346177
-0.000364126
-0.000665661
0.000375556
-0.000440245
-0.000565256
0.000396979
-0.000497384
-0.000432142
0.000402063
-0.000535177
-0.000273263
0.000388816
-0.000547696
-0.000111417
0.000363059
-0.000524904
7.35467e-06
0.000331184
-0.000449956
8.40857e-05
0.000287371
-0.000364102
0.000108991
0.000226617
-0.000251522
9.50396e-05
0.000169504
-0.000155552
6.54989e-05
0.000119867
-9.03257e-05
4.09689e-05
8.01133e-05
-5.55834e-05
2.02834e-05
5.58363e-05
-3.51504e-05
7.23947e-06
4.1564e-05
-2.85198e-05
-5.52082e-07
3.04146e-05
-2.26231e-05
1.67707e-05
-1.73229e-05
1.54994e-05
-4.66968e-06
-1.10144e-05
5.0656e-05
-2.25666e-05
-2.20406e-05
8.58053e-05
-1.85675e-05
-2.44618e-05
0.000114823
-1.0009e-05
-2.63399e-05
0.00013629
9.75909e-07
-2.87122e-05
0.000151081
1.17104e-05
-3.19498e-05
0.000159278
2.74166e-05
-3.82905e-05
0.000158791
4.73425e-05
-4.57081e-05
0.000151663
6.75709e-05
-5.50268e-05
0.000135117
9.16408e-05
-6.37176e-05
9.64108e-05
0.000126997
-7.48348e-05
3.3037e-05
0.000170057
-8.80978e-05
-5.44938e-05
0.000208374
-9.439e-05
-0.000170158
0.000258091
-0.000108916
-0.000322282
0.000319704
-0.000133671
-0.000519807
0.000393928
-0.000169994
-0.000727517
0.000468882
-0.000219992
-0.000919956
0.000548659
-0.000284104
-0.00109833
0.000636142
-0.000358628
-0.00125179
0.000730898
-0.000441199
-0.0013556
0.000816279
-0.000536494
-0.0014264
0.000927145
-0.000631651
-0.0014456
0.0010126
-0.000727003
-0.0014024
0.00108314
-0.000817894
-0.0013035
0.00113774
-0.000890459
-0.00115099
0.00116644
-0.000943398
-0.000954863
0.00117041
-0.000969556
-0.000730533
0.0011429
-0.000965166
-0.000507252
0.00108826
-0.000922728
-0.000290116
0.000993975
-0.000848051
-9.47658e-05
0.00086838
-0.000732546
5.86777e-05
0.000730977
-0.000597049
0.000135039
0.000590694
-0.000440437
0.000158078
0.000460083
-0.000313617
0.000141048
0.00034507
-0.000208172
0.000108499
0.000255038
-0.000142375
7.50091e-05
0.000191038
-0.000101712
4.57524e-05
0.000148874
-7.80533e-05
1.86838e-05
0.000113886
-5.64033e-05
6.86264e-05
-3.31722e-05
2.03879e-05
-9.56782e-06
-1.54896e-05
5.99271e-05
-2.97312e-05
-3.23743e-05
9.91947e-05
-1.75485e-05
-4.02865e-05
0.000127278
6.55484e-06
-4.46468e-05
0.000145241
3.18583e-05
-4.88455e-05
0.000150715
6.44e-05
-5.81634e-05
0.000144729
0.000103374
-6.99716e-05
0.000126346
0.000154044
-8.83182e-05
9.53611e-05
0.000211911
-0.000113356
3.44158e-05
0.000284003
-0.000131417
-5.48366e-05
0.000361209
-0.000144959
-0.00017301
0.000449185
-0.000160954
-0.000338574
0.000553664
-0.000179727
-0.000530206
0.000660641
-0.000210917
-0.000732028
0.000768262
-0.000246736
-0.000926563
0.00087684
-0.000288377
-0.00111411
0.000993441
-0.000337015
-0.00128522
0.00111156
-0.000391789
-0.00143028
0.0012303
-0.000449108
-0.00154114
0.00134838
-0.000506617
-0.00161713
0.00145648
-0.000564211
-0.00164495
0.00156615
-0.000611191
-0.00163558
0.00165004
-0.000646808
-0.00157344
0.00170254
-0.000681545
-0.00146343
0.0017307
-0.000702978
-0.00131432
0.00172623
-0.000708899
-0.00113535
0.00168664
-0.000695203
-0.00093645
0.00160925
-0.000665245
-0.000728127
0.00149989
-0.000619952
-0.000524825
0.00135217
-0.000561495
-0.00035296
0.00119093
-0.000494417
-0.000202175
0.00100177
-0.000421579
-8.63512e-05
0.000815374
-0.000340505
-7.33831e-06
0.00064792
-0.000266849
3.03704e-05
0.000504555
-0.000197194
4.45424e-05
0.000396415
-0.000155549
4.2941e-05
0.000315367
-0.000122727
3.35247e-05
0.000257998
-9.97071e-05
1.51623e-05
0.000200876
-6.86281e-05
0.000117589
-3.38006e-05
2.18143e-05
-6.52603e-06
-2.48559e-05
6.32533e-05
-2.04117e-05
-5.07584e-05
0.000102889
6.49848e-06
-6.3683e-05
0.000126565
5.1859e-05
-6.89795e-05
0.00013629
9.91708e-05
-7.70378e-05
0.000127012
0.000164043
-9.03647e-05
0.000106459
0.000239705
-0.000115778
7.34157e-05
0.000332207
-0.000145121
1.31928e-05
0.000439098
-0.000166964
-7.68912e-05
0.000555423
-0.000181336
-0.000205061
0.000681192
-0.000191813
-0.000364981
0.000811429
-0.000202324
-0.000533668
0.000941856
-0.000219505
-0.000704774
0.00107144
-0.000239695
-0.000875434
0.00119722
-0.000258298
-0.00104098
0.00132012
-0.000277735
-0.00119139
0.00143996
-0.000296102
-0.00132095
0.00155372
-0.000312602
-0.00142659
0.00166063
-0.000324688
-0.00150477
0.00175472
-0.000328163
-0.00155322
0.00183257
-0.000327644
-0.00157122
0.00190238
-0.000318224
-0.00156725
0.00194871
-0.000302644
-0.00152134
0.00194927
-0.000292634
-0.0014406
0.00192811
-0.00027816
-0.00133141
0.00187906
-0.000262022
-0.00120314
0.00179995
-0.000241569
-0.00105966
0.00168892
-0.00022316
-0.000905583
0.00154919
-0.000203379
-0.000747977
0.00138588
-0.000191321
-0.000584589
0.00121675
-0.000189209
-0.000433316
0.00104309
-0.000192589
-0.000302958
0.000875287
-0.000190271
-0.000193071
0.000721894
-0.000183862
-0.000111377
0.000590829
-0.000167968
-5.13004e-05
0.000487445
-0.000151107
-1.03265e-05
0.000406473
-0.00013208
1.2316e-05
0.000345449
-0.000110094
1.05229e-05
0.000277701
-7.50316e-05
0.000160502
-3.23905e-05
2.40122e-05
9.24648e-06
-3.97847e-05
6.98425e-05
1.56814e-05
-8.19231e-05
0.000107847
6.50738e-05
-9.65798e-05
0.000131284
0.000129424
-0.000101001
0.000127874
0.000209524
-0.000106944
0.000111349
0.000310777
-0.000130209
8.53035e-05
0.000425764
-0.000160013
3.96401e-05
0.000560182
-0.000182311
-3.02905e-05
0.000701302
-0.000192274
-0.000127253
0.000849642
-0.000197256
-0.000253472
0.00100238
-0.000194967
-0.000399764
0.00114868
-0.000190956
-0.000547382
0.00127963
-0.000190161
-0.000686615
0.00139765
-0.000186977
-0.000822078
0.001511
-0.000178316
-0.000950462
0.00161426
-0.000165762
-0.00106613
0.00170397
-0.000148342
-0.00116273
0.00177575
-0.000125429
-0.00124392
0.00182853
-8.67037e-05
-0.00130629
0.0018654
-4.83123e-05
-0.00135044
0.00189296
-1.62412e-05
-0.00138153
0.00191762
1.58498e-05
-0.00139098
0.00190917
4.89843e-05
-0.00137783
0.00185937
7.675e-05
-0.00134492
0.00180572
8.9487e-05
-0.00129065
0.00173923
8.55666e-05
-0.00122384
0.00165371
7.94218e-05
-0.00114837
0.00154796
6.55006e-05
-0.00105842
0.00142228
3.69576e-05
-0.00094829
0.00128014
-4.38987e-06
-0.000817216
0.00113225
-4.65739e-05
-0.000675071
0.000985267
-8.43223e-05
-0.000523498
0.000849078
-0.000125364
-0.000377823
0.000725532
-0.000149312
-0.000247457
0.000622096
-0.000161632
-0.000141
0.000540512
-0.000159525
-6.32588e-05
0.000474132
-0.000145399
-1.2984e-05
0.000416434
-0.00012126
4.31379e-06
0.000339927
-7.95238e-05
0.000195376
-3.05602e-05
2.80871e-05
4.62076e-05
-6.50481e-05
7.80414e-05
8.52202e-05
-0.000119493
0.000127691
0.000154525
-0.000139101
0.000145555
0.000243358
-0.000131798
0.000136194
0.00035836
-0.000139475
0.000120344
0.0004911
-0.000164474
9.35474e-05
0.000638782
-0.00018622
5.06921e-05
0.000794457
-0.00019142
-1.50418e-05
0.000954901
-0.000187866
-9.88345e-05
0.00111089
-0.000177459
-0.000193697
0.0012588
-0.000161556
-0.000293671
0.00139029
-0.000141636
-0.000408131
0.00151167
-0.00011758
-0.000530976
0.00161118
-9.06857e-05
-0.000652501
0.00168018
-4.7655e-05
-0.000753373
0.00171736
-2.22499e-06
-0.000843652
0.001752
4.22452e-05
-0.000926442
0.00176976
8.87811e-05
-0.00100325
0.00177441
0.000130922
-0.00107381
0.00176709
0.000168867
-0.00112748
0.00174754
0.000199092
-0.00116763
0.0017215
0.000236265
-0.00119134
0.00167387
0.000259017
-0.00121722
0.00161444
0.000270799
-0.00123746
0.00154933
0.000276633
-0.00124396
0.00147938
0.000266347
-0.00123808
0.00140589
0.000241942
-0.0012192
0.00132439
0.000204693
-0.0011849
0.00123168
0.000156304
-0.00111954
0.00113246
8.23256e-05
-0.00101642
0.00102543
3.7013e-06
-0.000883969
0.000914561
-6.17446e-05
-0.00072929
0.000808455
-0.000114057
-0.000556968
0.000715714
-0.000162503
-0.000388768
0.000636313
-0.000182418
-0.000238384
0.000575237
-0.000185109
-0.000118401
0.000522613
-0.000168464
-3.49186e-05
0.00047065
-0.000137699
2.46857e-06
0.000391559
-8.9019e-05
0.000228927
-3.10832e-05
3.46971e-05
0.000107846
-9.63352e-05
0.000101473
0.000186399
-0.000167954
0.000162216
0.000273558
-0.000179776
0.000175513
0.000393253
-0.00016319
0.000169792
0.000530427
-0.000166346
0.000162919
0.000682156
-0.000184183
0.000144667
0.000846907
-0.000189873
0.000109177
0.00100878
-0.000178838
5.56747e-05
0.00116612
-0.000157721
-1.08754e-05
0.00130985
-0.000132402
-8.61174e-05
0.00143655
-0.000102509
-0.00016689
0.0015409
-6.98393e-05
-0.000244152
0.00161864
-2.97005e-05
-0.000322466
0.00166697
2.25234e-05
-0.000409344
0.00169378
7.32758e-05
-0.000517648
0.00169875
0.000126913
-0.000612756
0.00167405
0.00017306
-0.000699448
0.00163383
0.000222624
-0.000782149
0.00158825
0.000268857
-0.000857766
0.00153854
0.000304171
-0.000921375
0.00148143
0.000329721
-0.00097686
0.00143307
0.000343919
-0.00103172
0.00138167
0.000347061
-0.00109455
0.00133346
0.000343812
-0.00115928
0.00128309
0.000330972
-0.00121522
0.00122629
0.000309025
-0.00125723
0.00117656
0.000271345
-0.00128285
0.00112672
0.00022328
-0.00128922
0.00107067
0.000167376
-0.00126344
0.00100858
9.81004e-05
-0.00118648
0.000935275
1.31982e-05
-0.00106827
0.000853246
-5.68997e-05
-0.000910747
0.000772193
-0.00012126
-0.000724558
0.000701069
-0.000171545
-0.000520998
0.000645842
-0.000213089
-0.000331099
0.000600784
-0.000215446
-0.000172867
0.000563215
-0.000198835
-6.02957e-05
0.000517927
-0.000159848
-1.71233e-06
0.000435652
-0.000102675
0.000260484
-3.32696e-05
3.85426e-05
0.000198036
-0.000128732
0.000133363
0.000306054
-0.000214476
0.000203929
0.000421162
-0.000218171
0.000227941
0.000556559
-0.000187318
0.00022952
0.000707493
-0.000178645
0.000228457
0.000867213
-0.000183994
0.000223836
0.00102891
-0.000177379
0.000201068
0.00118355
-0.000152001
0.000159465
0.0013239
-0.00011617
0.000107014
0.00143974
-7.74464e-05
4.70683e-05
0.00153574
-3.92508e-05
-2.06122e-05
0.00160099
7.59348e-06
-8.96752e-05
0.00163624
5.14609e-05
-0.000165557
0.00164068
0.000102179
-0.000245183
0.00161666
0.000156747
-0.00032776
0.00156849
0.000212834
-0.000424156
0.00150356
0.000266887
-0.00052352
0.00142793
0.000305258
-0.000619778
0.00135656
0.000327953
-0.000703736
0.00128106
0.000341434
-0.000782166
0.00121395
0.000345913
-0.000856605
0.00116548
0.000342029
-0.00093392
0.00112482
0.000334166
-0.00101921
0.00109551
0.000323245
-0.00111293
0.00107136
0.000305441
-0.00120527
0.00103612
0.00028251
-0.00128017
0.00100404
0.000247425
-0.00133503
0.000977228
0.000204348
-0.00136745
0.000945319
0.000157771
-0.0013742
0.000902298
0.000113043
-0.00132587
0.000848559
3.83848e-05
-0.0012229
0.000784401
-3.41307e-05
-0.00106643
0.00072124
-0.000105511
-0.000869326
0.000669683
-0.000165722
-0.00064547
0.000634586
-0.0002126
-0.000418793
0.00061593
-0.000241823
-0.000225621
0.000592946
-0.000222902
-8.46214e-05
0.000558731
-0.000181803
-7.48262e-06
0.000476994
-0.000118481
0.000290589
-3.75871e-05
5.33719e-05
0.000300159
-0.000155495
0.000171254
0.000442868
-0.000254696
0.000263368
0.000581545
-0.000252496
0.000300984
0.000723584
-0.000204642
0.000311028
0.000874604
-0.000177154
0.000308618
0.00103018
-0.000160562
0.00030648
0.00118004
-0.000149
0.000299244
0.00131034
-0.000119556
0.00027785
0.00142502
-7.97268e-05
0.000233353
0.00151559
-3.13513e-05
0.00017562
0.00157114
2.23351e-05
0.000113028
0.00159405
6.95283e-05
4.27376e-05
0.00158712
0.000119412
-3.38426e-05
0.00154764
0.000169618
-0.00011867
0.00148324
0.000218249
-0.000215982
0.00140156
0.000264246
-0.000320766
0.00130706
0.000301281
-0.00042757
0.00121878
0.000315963
-0.000519082
0.00113236
0.000315714
-0.000605901
0.00105747
0.000310414
-0.000697487
0.00100333
0.000302203
-0.000789157
0.00096618
0.000290964
-0.000884712
0.000941175
0.000279198
-0.000984454
0.000926635
0.000268619
-0.00108992
0.00091994
0.000256893
-0.00119942
0.000904878
0.000240738
-0.00129422
0.000881342
0.000217495
-0.00137045
0.000863499
0.00018996
-0.00142788
0.000838894
0.000163857
-0.001456
0.000800279
0.000130134
-0.00143549
0.00074828
7.97731e-05
-0.001349
0.000693475
4.4361e-06
-0.00119593
0.000641546
-7.33721e-05
-0.000992509
0.000606599
-0.000140341
-0.000752357
0.00059486
-0.000200427
-0.000503088
0.000600313
-0.000233652
-0.000278086
0.000606105
-0.000238161
-0.000109649
0.000588293
-0.000198
-1.44361e-05
0.000513959
-0.000132177
0.000318527
-4.23734e-05
6.794e-05
0.000401775
-0.000169556
0.000209964
0.000588588
-0.000287745
0.000329351
0.000743157
-0.000280999
0.000386086
0.000882339
-0.00021549
0.000404394
0.00102283
-0.000166532
0.000403595
0.00116232
-0.000131337
0.000394281
0.00129083
-0.00010147
0.000382603
0.00139977
-7.7748e-05
0.000366625
0.00147936
-3.83624e-05
0.000341076
0.00153013
1.10135e-05
0.000290277
0.00155488
6.70588e-05
0.000223247
0.00154658
0.000114504
0.000147384
0.00149912
0.000163856
6.06794e-05
0.00142379
0.000210557
-4.26298e-05
0.00133585
0.000250702
-0.000151538
0.00123122
0.000279252
-0.00026378
0.00112931
0.000289992
-0.000361006
0.00103451
0.000281488
-0.000452311
0.00095717
0.000266492
-0.0005491
0.000900258
0.000253998
-0.000648321
0.000859718
0.000242834
-0.000750132
0.0008349
0.00023309
-0.00085518
0.000819815
0.000226408
-0.000962394
0.00081092
0.00022293
-0.00107102
0.000807097
0.000221473
-0.00118183
0.000798887
0.000216802
-0.00128855
0.0007788
0.000209257
-0.00138349
0.000756596
0.000201839
-0.0014622
0.00073301
0.000184601
-0.00151294
0.000694472
0.000156537
-0.00151521
0.000647591
0.000102966
-0.00145402
0.000602852
2.94314e-05
-0.00131233
0.000559595
-5.97362e-05
-0.00110232
0.00052679
-0.000130205
-0.000849075
0.000521499
-0.000179883
-0.000578393
0.000549752
-0.000220121
-0.000324773
0.000592257
-0.000239773
-0.000133894
0.000600523
-0.000203109
-2.21214e-05
0.000543333
-0.000141148
0.000343274
-4.6869e-05
8.41722e-05
0.000490529
-0.000172926
0.000250592
0.000731703
-0.000309535
0.000396457
0.000898209
-0.000300917
0.000473525
0.00102643
-0.000221157
0.000501811
0.00114641
-0.000151865
0.00050332
0.00126152
-0.000100706
0.000489257
0.00136527
-6.03831e-05
0.000468677
0.00144494
-2.45863e-05
0.000435625
0.00149704
1.53657e-05
0.000396858
0.00151867
5.0225e-05
0.000352805
0.00150256
9.63718e-05
0.000298512
0.00145954
0.000141328
0.000219044
0.00139093
0.000187662
0.000115643
0.00129834
0.000228845
-3.37396e-06
0.00119981
0.000255051
-0.000120142
0.00108518
0.000262808
-0.000219561
0.000978971
0.000249762
-0.000317158
0.000901707
0.000230402
-0.000414199
0.000839849
0.000214363
-0.000511359
0.000795387
0.000202031
-0.000610927
0.000764843
0.000194443
-0.000713388
0.000745578
0.000191783
-0.000817146
0.000730442
0.00019313
-0.000922725
0.000718542
0.000197957
-0.00103138
0.00070901
0.000206746
-0.00114283
0.000696049
0.000214288
-0.00125713
0.000675868
0.000217234
-0.00136596
0.000645364
0.000220061
-0.00146639
0.000617176
0.000216254
-0.00153881
0.000586824
0.00018007
-0.00156682
0.000550302
0.000125305
-0.0015319
0.000515758
5.21664e-05
-0.00141286
0.000483496
-4.29406e-05
-0.00120775
0.000455014
-0.000133326
-0.000942687
0.00044121
-0.000184779
-0.000646551
0.000470034
-0.000216418
-0.000374697
0.000538815
-0.000218412
-0.000156888
0.000594689
-0.000211975
-3.0064e-05
0.000562064
-0.000145556
0.000365455
-5.22455e-05
9.61851e-05
0.000561805
-0.000167461
0.000287633
0.000861149
-0.000320894
0.000459233
0.00103766
-0.00031105
0.00055468
0.00115252
-0.00022154
0.000593131
0.00124817
-0.000140211
0.000596855
0.00133148
-7.36839e-05
0.000582915
0.00140326
-2.40483e-05
0.000552054
0.00145506
2.0733e-05
0.000506652
0.00148286
5.95856e-05
0.000454081
0.00147825
9.29853e-05
0.000392398
0.00144121
0.000123034
0.000319449
0.00137742
0.000155072
0.000230528
0.00128708
0.00019277
0.000120324
0.00118159
0.000226961
1.55545e-05
0.00106877
0.000235816
-8.80058e-05
0.000960592
0.000228144
-0.000191662
0.000876554
0.000206074
-0.000287685
0.000809659
0.000188072
-0.000380859
0.000758718
0.000174304
-0.000474119
0.000721948
0.0001667
-0.00056814
0.000693588
0.000165277
-0.000663669
0.000671547
0.000169561
-0.000759576
0.000649155
0.000177194
-0.000858824
0.000629822
0.000187967
-0.000963266
0.000609094
0.000204358
-0.00106961
0.000588751
0.000213645
-0.00119132
0.000567751
0.000229823
-0.00131726
0.000533
0.000238305
-0.00143036
0.000498477
0.000231796
-0.00152414
0.000477116
0.000203488
-0.00158519
0.000459058
0.000152294
-0.00158547
0.000431246
8.47946e-05
-0.00149882
0.000395689
1.15745e-06
-0.00131012
0.000356377
-9.00695e-05
-0.00103895
0.000357793
-0.000187748
-0.000720789
0.000384023
-0.000232155
-0.000414926
0.000457584
-0.000224632
-0.000179752
0.000552563
-0.000193047
-3.95895e-05
0.000565376
-0.000143474
0.000382701
-5.68361e-05
0.000104434
0.000613123
-0.000155752
0.000317263
0.00096793
-0.000319611
0.000513327
0.00115544
-0.000313847
0.000627504
0.00125715
-0.000218806
0.000674511
0.00132692
-0.000125763
0.000679003
0.00138127
-5.42844e-05
0.000662541
0.00142167
-1.94213e-06
0.000624175
0.00144365
4.97858e-05
0.000572479
0.0014459
8.86544e-05
0.000509005
0.00142202
0.000119711
0.000433384
0.00137036
0.000146472
0.00035013
0.00129022
0.000170449
0.000253983
0.00118786
0.000195368
0.000144934
0.00107592
0.00021471
3.4142e-05
0.000968465
0.000211095
-7.47342e-05
0.000875506
0.000193963
-0.000168164
0.000797544
0.000172439
-0.000255745
0.000740191
0.000157049
-0.000342801
0.000696488
0.000149287
-0.000427987
0.000660138
0.000146996
-0.000512809
0.000628039
0.000150371
-0.000596132
0.000596816
0.000158054
-0.000680824
0.000564879
0.000168968
-0.000770213
0.000536871
0.00018234
-0.000866993
0.000506499
0.000199376
-0.000971622
0.000477329
0.00021605
-0.00108804
0.000449893
0.000234279
-0.00122554
0.00042389
0.000246607
-0.00135308
0.000385612
0.000240406
-0.00146542
0.000369567
0.000219885
-0.00155989
0.000363043
0.000190486
-0.00159668
0.000322091
0.000145943
-0.00155186
0.000269208
8.16631e-05
-0.00140903
0.000224425
-1.08794e-05
-0.00114705
0.000208961
-0.000113146
-0.000813384
0.000258974
-0.000208619
-0.000469559
0.00035912
-0.000245361
-0.000204084
0.000481126
-0.000194039
-4.64282e-05
0.000550684
-0.000142962
0.00039897
-6.26973e-05
0.000109082
0.000645497
-0.000141456
0.000339639
0.00104828
-0.000310911
0.000556514
0.00124733
-0.000308765
0.000686707
0.00133765
-0.000210692
0.000742244
0.00138512
-0.000113733
0.000748674
0.00141162
-3.67758e-05
0.000727963
0.00142197
2.041e-05
0.000685344
0.00141971
6.6553e-05
0.000627636
0.00140093
0.000102678
0.000557111
0.0013572
0.000135342
0.000478537
0.00128755
0.00016138
0.000391517
0.00119616
0.000181086
0.000288272
0.00109645
0.000194659
0.000168374
0.000993196
0.000202627
5.6328e-05
0.00088964
0.000190871
-4.46442e-05
0.000807185
0.000169294
-0.000135504
0.000738131
0.000150274
-0.000217388
0.000683397
0.000138679
-0.000296342
0.000639929
0.000135512
-0.000372077
0.000599105
0.000136767
-0.000445906
0.000559969
0.0001419
-0.000516482
0.000517983
0.000149409
-0.000590067
0.000478847
0.000159617
-0.000668921
0.000442928
0.000172797
-0.000755923
0.000406398
0.000187102
-0.000854837
0.000372826
0.000203415
-0.000963615
0.000338843
0.000219828
-0.00109612
0.000313329
0.000243061
-0.00123617
0.000274621
0.000251048
-0.00136549
0.000247808
0.000251076
-0.00148784
0.000243631
0.000241761
-0.00156504
0.000189818
0.000209474
-0.0015677
0.000120296
0.000151566
-0.00146684
5.78506e-05
6.57218e-05
-0.00124824
2.78978e-05
-3.75374e-05
-0.000913094
6.96602e-05
-0.000145833
-0.000539198
0.000210369
-0.000225146
-0.000227718
0.000389376
-0.000219729
-5.37207e-05
0.000515876
-0.000139188
0.000410979
-6.573e-05
0.000110358
0.00065658
-0.000121441
0.000354277
0.00109913
-0.000294761
0.000588876
0.00131143
-0.000298691
0.000734714
0.00139426
-0.000202456
0.000797603
0.00142222
-9.9989e-05
0.000803569
0.00142444
-1.87872e-05
0.000780267
0.00140918
3.60967e-05
0.000735685
0.00138477
7.95258e-05
0.000678006
0.00134342
0.000115191
0.000607985
0.00128388
0.000143344
0.000521371
0.00120901
0.000165158
0.000419658
0.00112024
0.000177632
0.000313032
0.00101898
0.000184091
0.000197553
0.000918195
0.000190479
8.46549e-05
0.000823209
0.00017933
-1.18003e-05
0.000748242
0.000155398
-9.78421e-05
0.000686529
0.000137644
-0.000173619
0.000630313
0.000128861
-0.000243224
0.000582405
0.00012713
-0.000309952
0.000536142
0.000129691
-0.000373169
0.000489355
0.000133832
-0.000434628
0.000440361
0.000139081
-0.000498647
0.000397028
0.000145838
-0.000567525
0.000355602
0.000156203
-0.000642844
0.000316397
0.000165318
-0.000730036
0.00027823
0.000181788
-0.00083377
0.000238419
0.000204159
-0.000944635
0.000193195
0.000231
-0.00108667
0.000158665
0.000257986
-0.00123117
0.000119102
0.00027321
-0.00137018
0.00010656
0.000276083
-0.00148314
4.83688e-05
0.000254404
-0.00153566
-3.12948e-05
0.000204113
-0.00148699
-0.000115408
0.000124584
-0.00131638
-0.00017413
3.14241e-05
-0.00100964
-0.000153855
-8.32306e-05
-0.000616653
-1.82748e-06
-0.000180786
-0.000268638
0.000263376
-0.000222016
-6.03503e-05
0.000442544
-0.000134955
0.000415905
-6.52751e-05
0.000110022
0.000642015
-9.54567e-05
0.000362392
0.00111945
-0.000272696
0.000610473
0.00134538
-0.000282032
0.000770435
0.00142315
-0.000188846
0.000842017
0.00143484
-8.42017e-05
0.000847931
0.0014166
1.91926e-06
0.000824674
0.00137937
5.30587e-05
0.000781996
0.00133584
9.16034e-05
0.000722952
0.00128294
0.000119522
0.000643591
0.00121877
0.000144466
0.000547268
0.00114126
0.000164068
0.000442886
0.00105058
0.000174042
0.00033873
0.000950634
0.000172504
0.000233045
0.000852549
0.000171331
0.000124815
0.000763734
0.000167706
2.74415e-05
0.000693839
0.000151777
-5.33329e-05
0.000635225
0.000132078
-0.000125822
0.000578585
0.000124216
-0.000188541
0.000524336
0.000120788
-0.000248044
0.000473175
0.000122471
-0.000303604
0.000419839
0.000125076
-0.000358794
0.000368075
0.000127476
-0.00041383
0.000322232
0.000129831
-0.00047332
0.000278191
0.000136901
-0.000538361
0.000238141
0.000143297
-0.000612309
0.000195585
0.000156593
-0.000702899
0.000147607
0.000181402
-0.00080486
8.7803e-05
0.000207353
-0.000929422
4.79654e-05
0.000235262
-0.00108541
8.89897e-06
0.00026619
-0.00122479
-3.53029e-05
0.000281243
-0.00136024
-9.13158e-05
0.000275133
-0.00145293
-0.00017888
0.000240282
-0.00146267
-0.000282742
0.000177068
-0.00134558
-0.000384673
9.34595e-05
-0.00108111
-0.000409143
-9.18855e-06
-0.000695589
-0.000264873
-0.000122473
-0.000311128
6.17599e-05
-0.000182845
-6.7549e-05
0.000355886
-0.000156921
0.000412003
-6.36462e-05
0.000105375
0.000599377
-6.27366e-05
0.000359964
0.00111149
-0.000246625
0.00062038
0.00135126
-0.000266297
0.000796218
0.00142719
-0.000179877
0.000877386
0.00142519
-7.15191e-05
0.000888047
0.00139096
1.49832e-05
0.000863342
0.00133778
6.62988e-05
0.000814583
0.00128205
0.000102556
0.000748081
0.00122282
0.00012663
0.000665396
0.00115413
0.000147329
0.000570551
0.0010744
0.000161713
0.000467094
0.000983274
0.000170758
0.000364412
0.000889057
0.000164259
0.00026626
0.000795802
0.000154899
0.000166865
0.000711658
0.000151471
6.91953e-05
0.000642414
0.000149095
-8.50567e-06
0.000579632
0.000133295
-7.80678e-05
0.000526303
0.000121845
-0.000135678
0.000466497
0.000115449
-0.000188689
0.000411761
0.000114424
-0.000240763
0.000356648
0.000115265
-0.000292301
0.00030547
0.000114143
-0.000341894
0.000258414
0.000113411
-0.000394182
0.000213139
0.000117339
-0.000451379
0.000171139
0.000124199
-0.00051816
0.000126984
0.000135383
-0.000589973
6.65831e-05
0.000152837
-0.000680946
6.0937e-06
0.000172683
-0.000780221
-5.12592e-05
0.0001985
-0.000919821
-8.51404e-05
0.00023364
-0.00107008
-0.000145709
0.000260666
-0.00121374
-0.000222585
0.000274933
-0.00133267
-0.000321374
0.000261414
-0.00138288
-0.000451009
0.000218479
-0.00132954
-0.000583213
0.000145199
-0.00113967
-0.000647528
4.85162e-05
-0.000778585
-0.000571163
-5.47954e-05
-0.00036378
-0.000218347
-0.000134697
-7.4096e-05
0.000222996
-0.000156795
0.000384255
-4.63478e-05
0.000101344
0.000528549
-3.05154e-05
0.000355334
0.00107116
-0.000213669
0.000624562
0.00132872
-0.000246687
0.000815235
0.00140859
-0.00017208
0.000907754
0.00139827
-6.56046e-05
0.000923971
0.00135285
2.18955e-05
0.000891132
0.00129404
7.65825e-05
0.000834861
0.00122678
0.000111541
0.000766287
0.001161
0.000130388
0.000685684
0.00108882
0.000145914
0.000593941
0.00100716
0.000158974
0.000493474
0.000918178
0.000165562
0.000391179
0.00082827
0.000163083
0.000296768
0.000742225
0.000147989
0.000209629
0.000662016
0.000136781
0.000123586
0.000590988
0.000137469
3.86717e-05
0.000528906
0.00013564
-2.70898e-05
0.000469658
0.000122406
-8.43611e-05
0.000411198
0.00011257
-0.000134661
0.000355607
0.000106454
-0.000185864
0.000302601
0.000105249
-0.000235389
0.000252633
0.000102362
-0.000281794
0.000205261
9.95578e-05
-0.000330178
0.000159338
0.000102185
-0.000383479
0.000116313
0.000108127
-0.00043833
6.33785e-05
0.000118457
-0.000500277
1.16026e-06
0.00012737
-0.00057788
-5.74945e-05
0.00014119
-0.00067058
-0.000121922
0.000163362
-0.000776448
-0.000172116
0.000192844
-0.000917725
-0.000232187
0.000227754
-0.00105963
-0.000333209
0.000252534
-0.00119568
-0.000447169
0.000261845
-0.00128519
-0.000599288
0.00023778
-0.00128243
-0.000765765
0.000179794
-0.00114143
-0.000886438
9.79149e-05
-0.000846225
-0.000865925
-4.4667e-07
-0.000406896
-0.000565248
-9.24279e-05
-8.03445e-05
1.17213e-05
-0.000115277
0.000331954
-2.8045e-05
0.000100868
0.00042993
-2.24884e-06
0.000341757
0.00101086
-0.000180585
0.00061338
0.00128444
-0.000227346
0.000815568
0.00137115
-0.00016474
0.000918471
0.00135642
-6.10463e-05
0.000944285
0.00129969
2.7337e-05
0.000916785
0.0012372
8.43419e-05
0.000857524
0.00116524
0.000120793
0.000786765
0.00109534
0.000136423
0.000705866
0.00102224
0.000147473
0.000616684
0.000941265
0.000155082
0.000521607
0.000855472
0.000157782
0.000423033
0.000769346
0.000157498
0.000329574
0.000687775
0.000147908
0.000246244
0.000612706
0.00013264
0.000169968
0.000542161
0.000125103
9.37025e-05
0.000477504
0.000127668
2.30188e-05
0.000417281
0.00012306
-3.75305e-05
0.000360506
0.000111241
-8.75574e-05
0.000305288
0.000100345
-0.00013761
0.000256281
9.63728e-05
-0.000185765
0.000207958
9.28299e-05
-0.000230814
0.000161159
8.91512e-05
-0.000277438
0.000114665
9.12969e-05
-0.000326556
7.04549e-05
9.49757e-05
-0.000373225
9.12584e-06
0.000100921
-0.000429452
-5.09837e-05
0.000108371
-0.000492994
-0.000113374
0.000119422
-0.000576583
-0.000173672
0.000135339
-0.000669751
-0.000237934
0.000158986
-0.000783996
-0.000309228
0.000191287
-0.000921889
-0.000417343
0.000222028
-0.00105436
-0.000555998
0.000241296
-0.0011695
-0.000723477
0.000239336
-0.00121248
-0.000924525
0.000201732
-0.00113084
-0.00110339
0.000135311
-0.000885767
-0.00115322
4.22292e-05
-0.000479587
-0.000938953
-3.24749e-05
-7.92475e-05
-0.00030905
-7.95679e-05
0.000242073
1.06338e-05
9.66231e-05
0.000324249
9.05795e-06
0.000317958
0.000939346
-0.000149821
0.000592104
0.00121779
-0.000207495
0.000805988
0.00131553
-0.000158263
0.000916284
0.0013028
-5.66755e-05
0.000944742
0.00123998
3.1259e-05
0.000927484
0.00116974
8.47111e-05
0.000874734
0.00109435
0.000123642
0.000807708
0.00102055
0.000141816
0.000728772
0.000950315
0.000150866
0.000641585
0.000873961
0.00015449
0.000549791
0.000792911
0.000154356
0.000456902
0.000711656
0.000150578
0.000368451
0.00063421
0.000142016
0.000284772
0.000561339
0.000135046
0.000210915
0.000493715
0.000122303
0.000141669
0.000429728
0.000117022
7.50276e-05
0.00036847
0.000115452
1.0343e-05
0.000315625
0.000109566
-4.36121e-05
0.000261986
9.72572e-05
-9.32465e-05
0.000215767
9.01487e-05
-0.000140818
0.000169785
8.57442e-05
-0.000185637
0.000123629
8.23482e-05
-0.000232
7.75841e-05
8.34438e-05
-0.000276595
3.07607e-05
8.42899e-05
-0.000321526
-3.13958e-05
8.54518e-05
-0.000370331
-9.29603e-05
9.07818e-05
-0.000428465
-0.000154933
9.96919e-05
-0.00049878
-0.000217876
0.000114519
-0.000582636
-0.000288401
0.000134323
-0.000679704
-0.000373474
0.000161314
-0.000802952
-0.00048868
0.000194584
-0.000934956
-0.000643094
0.0002191
-0.00105748
-0.000832395
0.000231436
-0.00113329
-0.00106352
0.000214811
-0.00109796
-0.00129999
0.000161273
-0.000899596
-0.0014328
8.12136e-05
-0.000547914
-0.00129232
1.6824e-06
-0.000112069
-0.000694279
-5.06164e-05
0.00010157
2.84346e-05
7.59675e-05
0.000240229
8.05185e-06
0.000304452
0.000839906
-0.000129045
0.000572564
0.00113489
-0.000185218
0.00079317
0.00124537
-0.000150452
0.000914566
0.00123793
-5.65336e-05
0.000949977
0.00117307
3.14939e-05
0.000936714
0.00109286
9.01413e-05
0.000891936
0.00101513