/*--------------------------------*- C++ -*----------------------------------*\
| =========                 |                                                 |
| \\      /  F ield         | OpenFOAM: The Open Source CFD Toolbox           |
|  \\    /   O peration     | Version:  v1806                                 |
|   \\  /    A nd           | Web:      www.OpenFOAM.com                      |
|    \\/     M anipulation  |                                                 |
\*---------------------------------------------------------------------------*/
FoamFile
{
    version     2.0;
    format      ascii;
    class       vectorField;
    location    "0.0755";
    object      currentcloudofpoints;
}
// * * * * * * * * * * * * * * * * * * * * * * * * * * * * * * * * * * * * * //


2409
(
(0.963622 1.40538 0.994534)
(0.717832 1.0198 1.02713)
(1.33205 1.31501 0.999019)
(0.988511 1.23533 0.826876)
(0.974731 1.23292 1.16501)
(1.1065 1.10717 1.00025)
(0.894122 1.58131 1.00476)
(0.590807 0.867707 0.991736)
(1.52648 1.44853 0.999369)
(1.12672 1.11179 0.679482)
(1.09277 1.09941 1.27676)
(1.30419 1.30451 1.07053)
(1.22916 1.28075 1.11643)
(1.15094 1.23007 1.12973)
(1.05929 1.19801 1.11155)
(1.32096 1.31223 1.03748)
(1.26818 1.29006 1.09434)
(1.18295 1.26252 1.13138)
(1.11098 1.1994 1.11535)
(1.00581 1.22569 1.13016)
(0.745041 1.0357 1.2093)
(0.793869 1.10136 1.27455)
(0.869828 1.16197 1.25564)
(0.914434 1.19674 1.19726)
(0.732462 1.02511 1.1595)
(0.765112 1.06765 1.24564)
(0.837382 1.13641 1.27353)
(0.89264 1.18222 1.21707)
(0.938925 1.2141 1.17927)
(1.29827 1.30764 0.92592)
(1.22709 1.28029 0.881298)
(1.14256 1.23489 0.874236)
(1.05522 1.19569 0.888834)
(1.31687 1.31168 0.959354)
(1.26386 1.29379 0.902971)
(1.18099 1.25996 0.872002)
(1.10207 1.20805 0.88554)
(1.00867 1.2193 0.869621)
(0.914806 1.19119 0.795839)
(0.86602 1.15616 0.761898)
(0.816569 1.10176 0.757385)
(0.742916 1.02198 0.821814)
(0.948653 1.2147 0.810283)
(0.886435 1.17423 0.785612)
(0.84286 1.13396 0.754616)
(0.787347 1.06142 0.789014)
(0.710407 1.00927 0.883209)
(0.974721 1.31466 1.20157)
(1.00809 1.39248 1.23544)
(0.969982 1.4151 1.17028)
(0.952931 1.4135 1.08783)
(0.959178 1.26765 1.17464)
(0.99923 1.35718 1.22586)
(0.990146 1.41042 1.20492)
(0.959835 1.41451 1.12668)
(0.960884 1.40624 1.03699)
(0.954795 1.41351 0.89488)
(0.964431 1.4162 0.808303)
(1.01596 1.3971 0.749725)
(0.97991 1.31173 0.79093)
(0.96196 1.40385 0.949314)
(0.956856 1.41514 0.854165)
(0.99026 1.41477 0.777314)
(1.01025 1.3576 0.759413)
(0.967489 1.26411 0.818771)
(0.709204 1.04654 1.04775)
(0.707286 1.0824 1.04627)
(0.724679 1.13752 1.01765)
(0.811897 1.2811 0.999632)
(0.714354 1.03793 1.05333)
(0.708244 1.06854 1.04573)
(0.716874 1.11455 1.03836)
(0.750243 1.1921 0.999842)
(0.896904 1.34774 1.0003)
(1.09538 1.44472 1.0041)
(1.17155 1.42607 1.00199)
(1.21888 1.38499 0.998227)
(1.28333 1.34758 0.999383)
(1.03164 1.43763 0.996287)
(1.13899 1.43617 1.00573)
(1.19362 1.40699 0.998356)
(1.23244 1.35932 0.999645)
(1.31937 1.33912 0.999031)
(0.549771 0.936531 1.19597)
(0.652514 0.952278 1.30804)
(0.789295 0.995381 1.4165)
(0.864376 1.00746 1.46139)
(0.90915 1.0069 1.39799)
(0.982003 1.04214 1.30595)
(1.0464 1.06449 1.26016)
(0.573217 0.890126 1.11597)
(0.591684 0.933271 1.25725)
(0.721235 0.977498 1.37118)
(0.83401 1.0023 1.44585)
(0.891217 1.00787 1.43546)
(0.936231 1.01684 1.35012)
(1.01257 1.06142 1.25738)
(1.07259 1.07801 1.26076)
(1.16115 1.16857 1.36361)
(1.23289 1.18598 1.34602)
(1.29025 1.22586 1.30877)
(1.34801 1.26654 1.28083)
(1.41516 1.3059 1.23773)
(1.47798 1.37034 1.17691)
(1.51745 1.4289 1.096)
(1.12043 1.13596 1.32621)
(1.20076 1.17512 1.35824)
(1.26133 1.20468 1.32372)
(1.31639 1.24729 1.29156)
(1.37813 1.28391 1.2602)
(1.44598 1.33415 1.20746)
(1.49953 1.39941 1.1388)
(1.52332 1.44029 1.04839)
(0.560813 0.928808 0.790988)
(0.655371 0.949582 0.691806)
(0.786238 0.982964 0.578707)
(0.863925 1.00763 0.540603)
(0.919184 1.0143 0.593437)
(0.986855 1.04091 0.686651)
(1.07014 1.05699 0.717682)
(0.5828 0.890634 0.876311)
(0.576633 0.970619 0.734786)
(0.727974 0.960434 0.619464)
(0.831595 0.997339 0.555924)
(0.896523 1.01254 0.560505)
(0.944371 1.02017 0.643938)
(1.02772 1.05052 0.725231)
(1.10611 1.08003 0.704711)
(1.51597 1.42856 0.904337)
(1.47864 1.37215 0.822806)
(1.41632 1.30777 0.76281)
(1.34961 1.26619 0.719104)
(1.29109 1.225 0.6911)
(1.23698 1.18603 0.658062)
(1.17758 1.15939 0.639143)
(1.52178 1.43964 0.950892)
(1.49909 1.40027 0.861653)
(1.44717 1.3367 0.792144)
(1.37968 1.28428 0.740837)
(1.31752 1.2467 0.706792)
(1.26256 1.20435 0.679114)
(1.20786 1.17234 0.647508)
(1.14829 1.14012 0.652074)
(0.903437 1.60694 1.2012)
(0.900319 1.57324 1.29621)
(0.901304 1.49708 1.33251)
(0.956481 1.38729 1.40615)
(0.978169 1.27632 1.43709)
(1.0175 1.20307 1.43663)
(1.06869 1.14331 1.31926)
(0.903779 1.61634 1.12088)
(0.90456 1.59174 1.26076)
(0.897354 1.53388 1.31801)
(0.931322 1.45051 1.36628)
(0.96748 1.31973 1.42914)
(0.993621 1.2375 1.42909)
(1.04187 1.17246 1.40567)
(1.07039 1.12539 1.26281)
(0.894748 1.61058 0.796096)
(0.896522 1.57177 0.70602)
(0.910132 1.49572 0.662369)
(0.959191 1.38712 0.593827)
(0.991113 1.27642 0.552908)
(1.00911 1.21181 0.576538)
(1.06295 1.15636 0.65825)
(0.890946 1.60346 0.875289)
(0.894945 1.59505 0.74346)
(0.901309 1.53089 0.680677)
(0.932637 1.45092 0.639312)
(0.978147 1.31958 0.557591)
(0.998159 1.24425 0.572321)
(1.01765 1.18562 0.597029)
(1.09693 1.13111 0.689169)
(0.574421 0.956827 0.998018)
(0.58119 1.01977 1.00717)
(0.605698 1.07543 0.994408)
(0.61769 1.18557 1.00489)
(0.658 1.27467 1.00806)
(0.707855 1.33245 0.997044)
(0.772914 1.43568 1.00192)
(0.579606 0.915578 0.992987)
(0.575993 0.990509 1.00433)
(0.593044 1.04547 1.00323)
(0.609823 1.12345 0.992604)
(0.637605 1.23484 1.01347)
(0.681482 1.30275 0.999942)
(0.73792 1.36824 0.996536)
(0.8209 1.51594 1.00393)
(1.00525 1.59614 1.00794)
(1.09084 1.61099 1.00577)
(1.17007 1.62531 1.00856)
(1.2648 1.61145 1.00308)
(1.34565 1.59615 1.00026)
(1.41013 1.56626 0.998917)
(1.47238 1.5141 0.999825)
(0.956157 1.59683 1.00839)
(1.05017 1.59879 1.00621)
(1.13128 1.62044 1.00775)
(1.21996 1.61831 1.00588)
(1.31162 1.60105 1.00147)
(1.38116 1.57821 0.999152)
(1.44161 1.5362 0.999357)
(1.50271 1.4825 0.999624)
(1.03828 1.14108 0.841785)
(1.11462 1.09146 0.74114)
(1.01493 1.21202 0.837142)
(1.0355 1.1478 1.14984)
(1.00266 1.21125 1.15218)
(1.07708 1.09723 1.22696)
(0.685578 0.855441 0.998478)
(0.711086 0.964136 0.982065)
(0.606999 0.86935 0.989877)
(1.42786 1.35607 0.99866)
(1.38288 1.33652 0.999467)
(1.48024 1.38395 0.998557)
(1.11127 1.55125 1.31337)
(1.1517 1.63664 1.20682)
(1.13796 1.31077 1.3762)
(1.34865 1.56274 1.19691)
(1.04819 1.63176 1.14846)
(1.17362 1.24036 1.38106)
(1.46599 1.48541 1.15443)
(1.39486 1.50086 1.25138)
(1.06157 1.62589 1.24366)
(1.23064 1.59037 1.26097)
(1.25027 1.60743 1.16737)
(1.00019 1.52028 1.33134)
(1.27333 1.49367 1.30274)
(1.40953 1.54843 1.15297)
(1.17136 1.48275 1.34021)
(1.43452 1.54264 1.07444)
(1.23373 1.28496 1.38034)
(1.38028 1.57501 1.09029)
(0.988157 1.62276 1.22737)
(1.09567 1.21617 1.36045)
(1.04303 1.29559 1.39452)
(1.20972 1.39765 1.35213)
(1.42088 1.39424 1.25759)
(1.15313 1.63063 1.12634)
(0.979057 1.5925 1.29999)
(1.12556 1.3945 1.36958)
(1.36227 1.34055 1.30306)
(1.31911 1.42206 1.3273)
(0.986783 1.63232 1.13908)
(1.1133 1.17685 1.34655)
(1.48849 1.49515 1.06537)
(1.07074 1.461 1.35088)
(1.01422 1.38697 1.39402)
(1.3016 1.32424 1.34393)
(1.21914 1.61694 1.08064)
(1.32671 1.59198 1.10104)
(1.16286 1.20743 1.37769)
(1.20654 1.21966 1.37315)
(1.09502 1.13095 1.30234)
(1.12805 1.17955 1.36291)
(1.14267 1.21335 1.36949)
(1.2413 1.23531 1.35948)
(1.27165 1.25304 1.33784)
(1.20822 1.26217 1.38065)
(1.29958 1.27297 1.31583)
(1.32685 1.29426 1.30287)
(1.26898 1.30365 1.35942)
(1.35319 1.30239 1.28587)
(1.38587 1.31882 1.2623)
(1.3309 1.33381 1.32513)
(1.4172 1.34481 1.24048)
(1.44706 1.3781 1.21099)
(1.39128 1.36096 1.27994)
(1.47627 1.42547 1.16918)
(1.49225 1.45542 1.1234)
(1.448 1.43805 1.21536)
(1.50654 1.46442 1.08116)
(1.51034 1.47254 1.03181)
(1.47661 1.48965 1.10976)
(1.4805 1.50449 1.03328)
(1.0785 1.61634 1.08271)
(1.03501 1.61967 1.09289)
(1.01882 1.63087 1.14696)
(1.00236 1.61859 1.07553)
(0.94899 1.62239 1.08578)
(1.17428 1.61947 1.0751)
(1.13171 1.6188 1.08111)
(1.0995 1.62808 1.13952)
(1.24608 1.61097 1.04377)
(1.19847 1.61933 1.04674)
(1.18974 1.62188 1.10622)
(1.33768 1.59112 1.0499)
(1.30352 1.59829 1.05504)
(1.28318 1.59897 1.09976)
(1.39549 1.56688 1.04469)
(1.36548 1.58109 1.04758)
(1.35603 1.58096 1.09671)
(1.45308 1.5256 1.03825)
(1.42228 1.55193 1.03712)
(1.40843 1.55615 1.08293)
(1.4612 1.51532 1.07228)
(1.08649 1.58979 1.28605)
(1.10156 1.62845 1.22883)
(1.13136 1.60466 1.26938)
(1.18789 1.61758 1.23687)
(1.16969 1.5775 1.29243)
(1.10318 1.63638 1.18158)
(1.15437 1.63679 1.16738)
(1.20192 1.62454 1.18642)
(1.24049 1.60298 1.21746)
(1.2035 1.62166 1.14487)
(1.16485 1.27609 1.3722)
(1.19138 1.30448 1.3774)
(1.13641 1.23188 1.35927)
(1.11548 1.26595 1.36898)
(1.1753 1.35634 1.36518)
(1.21874 1.3394 1.36915)
(1.08566 1.30416 1.3799)
(1.06542 1.25208 1.38571)
(1.12652 1.34973 1.37368)
(1.08129 1.35009 1.37994)
(1.16913 1.40118 1.35574)
(1.341 1.57468 1.15551)
(1.37011 1.5648 1.14829)
(1.3037 1.57694 1.19376)
(1.29659 1.59137 1.14421)
(1.33164 1.49197 1.28079)
(1.32148 1.52744 1.25827)
(1.37609 1.53123 1.22484)
(1.38289 1.55201 1.17716)
(1.40913 1.5257 1.20556)
(1.39579 1.56002 1.12251)
(1.29799 1.56038 1.23945)
(1.2588 1.53354 1.29031)
(1.02658 1.62162 1.24056)
(1.01867 1.63128 1.18864)
(1.05306 1.63244 1.20024)
(0.986035 1.62782 1.18945)
(0.949018 1.61442 1.22165)
(0.948702 1.60222 1.26928)
(0.946051 1.62417 1.17482)
(0.940779 1.58366 1.29983)
(0.936075 1.54608 1.32295)
(0.985459 1.60874 1.27022)
(0.951966 1.51287 1.33212)
(0.96951 1.46404 1.356)
(0.991588 1.5559 1.32228)
(0.991532 1.31814 1.41498)
(0.986659 1.38633 1.39992)
(1.00101 1.46402 1.35281)
(1.0076 1.28142 1.40937)
(1.0278 1.24227 1.40743)
(1.0266 1.33675 1.39561)
(1.0532 1.20206 1.3999)
(1.08371 1.17838 1.34458)
(1.09051 1.15383 1.30759)
(1.11224 1.19367 1.33663)
(1.05311 1.52643 1.32084)
(1.08539 1.50235 1.32854)
(1.03131 1.48832 1.33511)
(1.11889 1.47268 1.34551)
(1.14186 1.51397 1.32737)
(1.03728 1.56721 1.30839)
(1.20433 1.53171 1.31331)
(1.45196 1.5138 1.11727)
(1.04258 1.42833 1.36892)
(1.06273 1.38239 1.38001)
(1.10053 1.42678 1.36338)
(1.14562 1.444 1.35349)
(1.24028 1.61131 1.1279)
(1.43921 1.51545 1.15923)
(1.43532 1.48751 1.21069)
(1.40756 1.44659 1.26666)
(1.42267 1.54128 1.11587)
(1.35284 1.45608 1.29553)
(1.29084 1.46058 1.31337)
(1.37483 1.40359 1.29937)
(1.02593 1.60508 1.27969)
(1.22396 1.4875 1.32193)
(1.18914 1.44172 1.34507)
(1.23617 1.44566 1.33254)
(1.26042 1.41085 1.34185)
(1.25553 1.36261 1.35564)
(1.30836 1.37116 1.34277)
(1.34495 1.38007 1.32366)
(0.786523 1.23084 1.44234)
(0.630301 1.38776 1.24946)
(0.572178 1.17959 1.23758)
(0.613031 1.1242 1.26446)
(0.705469 1.3971 1.29878)
(0.895598 1.22757 1.48519)
(0.568005 1.04802 1.252)
(0.819959 1.5516 1.26804)
(0.970303 1.11486 1.44074)
(0.671706 1.32445 1.30489)
(0.724837 1.15253 1.36801)
(0.710194 1.4783 1.25474)
(0.818055 1.3088 1.42676)
(0.920711 1.10871 1.48876)
(0.918584 1.29271 1.46226)
(0.838832 1.39824 1.38118)
(0.691656 1.06467 1.33672)
(0.998849 1.16291 1.45138)
(0.546894 1.08229 1.18505)
(0.612608 1.34093 1.14836)
(0.950515 1.17037 1.47168)
(0.798577 1.46567 1.30579)
(0.960981 1.22439 1.44655)
(0.5899 1.24771 1.13485)
(0.845908 1.12685 1.46164)
(0.813594 1.07391 1.43785)
(0.644169 1.24325 1.30182)
(0.783863 1.17514 1.43743)
(0.877163 1.07008 1.48058)
(0.874544 1.1733 1.48474)
(0.553863 1.24031 1.20403)
(0.594792 1.31208 1.232)
(0.557452 0.975141 1.15617)
(1.03962 1.11502 1.26754)
(0.576324 1.15418 1.11849)
(0.769631 1.51581 1.11786)
(0.689341 1.38369 1.09676)
(0.553724 1.08133 1.22632)
(0.568532 1.11507 1.23324)
(0.599992 1.0865 1.26039)
(0.54128 1.03343 1.21378)
(0.551065 1.03365 1.17864)
(0.651072 1.09187 1.29394)
(0.633468 1.046 1.2847)
(0.54568 0.997069 1.22837)
(0.601205 0.996054 1.27231)
(0.548111 0.969817 1.1768)
(0.665569 1.01082 1.32103)
(0.988979 1.05886 1.34743)
(1.02217 1.08637 1.26741)
(0.916978 1.06331 1.45896)
(0.938521 1.07003 1.44029)
(0.945807 1.11408 1.47728)
(1.0362 1.09803 1.23959)
(1.05547 1.11204 1.24083)
(1.02063 1.09177 1.34354)
(0.667251 1.43447 1.25206)
(0.712816 1.43388 1.28083)
(0.67353 1.3967 1.27918)
(0.762482 1.46703 1.28595)
(0.754196 1.42346 1.30416)
(0.757673 1.35078 1.35717)
(0.771147 1.38688 1.33981)
(0.831141 1.35076 1.40782)
(0.686977 1.35872 1.30121)
(0.747476 1.31859 1.36989)
(0.810741 1.42867 1.33394)
(0.655047 1.35809 1.27779)
(0.594936 1.15305 1.25186)
(0.555428 1.134 1.21537)
(0.552233 1.11583 1.14957)
(0.543887 1.16916 1.18287)
(0.560495 1.03354 1.11418)
(0.56394 0.988529 1.11517)
(0.572133 0.936479 1.08323)
(0.573935 1.07933 1.0817)
(0.767913 1.50972 1.26807)
(0.809726 1.50414 1.29327)
(0.737187 1.52135 1.21526)
(0.794895 1.56011 1.21782)
(0.637861 1.41262 1.19846)
(0.679225 1.46491 1.19177)
(0.722921 1.44081 1.1019)
(0.877729 1.29311 1.45516)
(0.88829 1.33807 1.4293)
(0.906428 1.2585 1.46863)
(0.862058 1.2563 1.47097)
(0.806087 1.26518 1.44075)
(0.849494 1.22297 1.47666)
(0.732363 1.27954 1.37671)
(0.899786 1.04277 1.4615)
(0.900781 1.08908 1.48034)
(0.936654 1.14105 1.47517)
(0.962759 1.14313 1.46558)
(0.906018 1.14453 1.47935)
(0.917315 1.17539 1.48037)
(0.89085 1.11884 1.47481)
(0.864932 1.10132 1.46756)
(0.861483 1.15084 1.47046)
(0.935691 1.32915 1.43522)
(0.909865 1.39226 1.40325)
(0.951213 1.28664 1.44741)
(0.965804 1.25125 1.43696)
(0.938349 1.2603 1.44926)
(0.929431 1.23003 1.45494)
(0.87595 1.44238 1.3597)
(0.851311 1.47711 1.32202)
(1.031 1.14364 1.39477)
(1.00982 1.18167 1.44526)
(0.986486 1.18577 1.44779)
(0.989833 1.2104 1.44272)
(1.05354 1.12685 1.28835)
(1.0183 1.12332 1.38689)
(0.984565 1.13691 1.43858)
(0.975666 1.16091 1.45216)
(0.957744 1.19295 1.44856)
(0.638394 1.17334 1.29102)
(0.656096 1.14216 1.30274)
(0.607918 1.21766 1.26564)
(0.685561 1.19803 1.33901)
(0.555143 1.19993 1.16133)
(0.555473 1.20839 1.21864)
(0.597153 1.25125 1.25171)
(0.71362 1.11354 1.35151)
(0.860711 1.55873 1.28587)
(0.860135 1.58326 1.23836)
(0.832931 1.57874 1.17287)
(0.822014 1.53996 1.06861)
(0.845264 1.51356 1.30538)
(0.886249 1.20039 1.48391)
(0.837791 1.19466 1.47359)
(0.721725 1.24258 1.37657)
(0.662313 1.27903 1.30907)
(0.786872 1.2013 1.44286)
(0.719284 1.21473 1.3754)
(0.833251 1.17137 1.46614)
(0.577674 0.899176 1.08269)
(0.590983 1.11042 1.06374)
(0.604924 1.14895 1.05816)
(0.647904 1.31283 1.07511)
(0.629646 1.26426 1.08384)
(0.618378 1.20524 1.07606)
(0.586868 1.19812 1.12648)
(0.596665 1.29479 1.14098)
(0.701149 1.34174 1.04055)
(0.673461 1.31949 1.0429)
(0.650734 1.37181 1.12784)
(0.769475 1.44673 1.05476)
(0.734993 1.37733 1.04645)
(0.736452 1.02984 1.38257)
(0.844715 1.04104 1.46002)
(0.804835 1.03601 1.42891)
(0.75579 1.07249 1.39294)
(0.872396 1.03838 1.47252)
(0.850318 1.07217 1.46184)
(0.924755 1.20158 1.47003)
(0.770847 1.11122 1.40419)
(0.613173 1.34928 1.2413)
(0.637634 1.32336 1.27111)
(0.617156 1.27793 1.26355)
(0.831329 1.10171 1.44709)
(0.791481 1.13431 1.42504)
(0.7603 1.16439 1.40663)
(0.819063 1.14928 1.45167)
(0.589294 1.32877 1.19414)
(0.607968 1.36915 1.20486)
(0.560902 1.24473 1.17029)
(0.569815 1.2831 1.186)
(0.574554 1.27658 1.21719)
(0.704781 1.19117 0.63114)
(0.744061 1.3317 0.656025)
(0.628591 1.15455 0.698252)
(0.594247 1.11627 0.755117)
(0.666036 1.44107 0.751779)
(0.911489 1.20037 0.507925)
(0.764704 1.50807 0.735711)
(0.973809 1.18244 0.526087)
(0.614784 1.21447 0.724873)
(0.650404 1.36096 0.714384)
(0.855973 1.10994 0.529942)
(0.849207 1.39959 0.61795)
(0.845041 1.24299 0.52688)
(0.681474 1.25703 0.677691)
(0.857572 1.18158 0.519596)
(0.724233 1.4196 0.694173)
(0.948673 1.2434 0.51359)
(0.648949 1.04283 0.683095)
(0.962791 1.11275 0.570744)
(0.560391 1.05461 0.758696)
(0.594278 1.13338 0.859823)
(0.605901 1.34389 0.835363)
(0.573494 1.23018 0.853732)
(0.568491 1.0616 0.828718)
(0.811247 1.4719 0.681208)
(0.572876 1.28336 0.756828)
(0.753235 1.09379 0.585673)
(0.547046 1.17226 0.799758)
(0.910319 1.29941 0.523108)
(0.703977 1.43005 0.898504)
(0.917236 1.11529 0.513992)
(0.571352 0.972964 0.840396)
(0.811012 1.57141 0.810501)
(0.7855 1.1751 0.551808)
(0.843587 1.31257 0.56669)
(1.05047 1.11435 0.698312)
(0.650891 1.23566 0.699549)
(0.703253 1.22719 0.645648)
(0.66415 1.20745 0.676348)
(0.669785 1.17799 0.661139)
(0.626771 1.18528 0.708065)
(0.749425 1.17947 0.587312)
(0.750123 1.22172 0.598633)
(0.690811 1.12526 0.634791)
(0.732042 1.13751 0.601222)
(0.774255 1.13525 0.56664)
(0.940361 1.15945 0.524345)
(0.946248 1.19023 0.524927)
(0.963822 1.15194 0.538062)
(0.92826 1.22357 0.513057)
(0.961296 1.21197 0.532735)
(0.941454 1.11556 0.531)
(0.914907 1.1581 0.517036)
(0.885632 1.19161 0.513629)
(0.851979 1.21288 0.524152)
(0.881239 1.2225 0.512783)
(0.900876 1.24624 0.510504)
(0.891722 1.15119 0.518631)
(1.05285 1.13482 0.670996)
(1.09253 1.10676 0.713369)
(1.06478 1.0854 0.732725)
(0.744132 1.45722 0.707425)
(0.698538 1.42841 0.71231)
(0.716463 1.47374 0.739765)
(0.770163 1.44033 0.685478)
(0.787795 1.48524 0.7028)
(0.728238 1.50398 0.798778)
(0.684343 1.46004 0.820625)
(0.853641 1.5166 0.689076)
(0.831388 1.52951 0.712983)
(0.788732 1.54234 0.768674)
(0.855135 1.56807 0.739833)
(0.750141 1.51824 0.850012)
(0.982742 1.14918 0.56995)
(1.00065 1.10481 0.644017)
(0.978513 1.22834 0.548085)
(0.989998 1.19842 0.548774)
(0.996062 1.16611 0.573267)
(0.589509 1.24656 0.748212)
(0.619636 1.2648 0.731584)
(0.58558 1.16403 0.755605)
(0.573783 1.19906 0.762832)
(0.549274 1.22529 0.783905)
(0.990624 1.06371 0.66403)
(1.03496 1.08308 0.721857)
(0.946295 1.07048 0.572831)
(0.719249 1.29052 0.660488)
(0.653771 1.29548 0.715212)
(0.686546 1.33769 0.702106)
(0.615793 1.32105 0.733808)
(0.688058 1.38831 0.703433)
(0.657367 1.39987 0.721682)
(0.725917 1.37015 0.686465)
(0.610549 1.37004 0.748077)
(0.626109 1.40153 0.791021)
(0.565497 1.31799 0.780919)
(0.825231 1.17781 0.533145)
(0.856935 1.14641 0.528313)
(0.821929 1.14241 0.538673)
(0.891801 1.11325 0.522873)
(0.898203 1.0661 0.533823)
(0.867668 1.05815 0.537467)
(0.813383 1.10206 0.550521)
(0.827647 1.05144 0.554342)
(0.923626 1.06721 0.545626)
(0.805744 1.36517 0.624499)
(0.782425 1.40468 0.664379)
(0.826914 1.43555 0.654881)
(0.914449 1.39211 0.594987)
(0.88285 1.44463 0.6389)
(0.864212 1.48221 0.667607)
(0.886143 1.34086 0.566027)
(0.938582 1.33047 0.549092)
(0.848362 1.35529 0.59003)
(0.80503 1.3289 0.60171)
(0.879288 1.30233 0.540104)
(0.813721 1.28398 0.574357)
(0.787339 1.25231 0.580783)
(0.820353 1.21024 0.541794)
(0.934133 1.26934 0.511666)
(0.879092 1.27054 0.521719)
(0.846823 1.27183 0.541889)
(0.970654 1.25862 0.535954)
(0.959542 1.28862 0.528672)
(0.636951 1.10228 0.688395)
(0.614629 1.092 0.722603)
(0.60551 1.13346 0.732472)
(0.586194 1.08672 0.756925)
(0.606126 1.0598 0.729113)
(0.652663 0.992882 0.688724)
(0.720242 1.00747 0.618515)
(0.587894 1.0204 0.729739)
(0.697366 1.06871 0.632705)
(0.776973 1.03789 0.581728)
(0.660854 1.38566 0.870354)
(0.575623 1.1405 0.777819)
(0.567257 1.05741 0.785366)
(0.575717 1.09443 0.784142)
(0.564305 1.11727 0.808175)
(0.850916 1.59166 0.797631)
(0.848 1.58238 0.890018)
(0.579175 1.05845 0.908987)
(0.570472 1.02134 0.904983)
(0.570052 0.97533 0.91823)
(0.576969 0.923758 0.911639)
(0.57048 1.01996 0.829004)
(0.614408 1.09274 0.919285)
(0.597714 1.07016 0.9291)
(0.572983 1.09618 0.852499)
(0.623201 1.19629 0.902343)
(0.621007 1.15528 0.879418)
(0.586337 1.1824 0.852114)
(0.627362 1.25949 0.915456)
(0.646859 1.29499 0.921692)
(0.58088 1.28468 0.845857)
(0.710686 1.36165 0.949458)
(0.683602 1.31992 0.952291)
(0.742167 1.41764 0.947519)
(0.791103 1.52797 0.912996)
(0.564124 0.953924 0.81251)
(0.549606 1.00176 0.767171)
(0.55765 1.0154 0.786017)
(0.551741 1.15137 0.832435)
(0.538166 1.19493 0.829235)
(0.53897 1.25334 0.808462)
(1.18895 1.61819 0.765929)
(1.10844 1.60485 0.712699)
(1.41563 1.53933 0.818512)
(1.11709 1.40064 0.618421)
(1.00508 1.6283 0.800944)
(1.47168 1.47774 0.849323)
(1.18006 1.24463 0.616089)
(1.18252 1.3471 0.624653)
(1.0918 1.61897 0.807351)
(1.15122 1.51021 0.676009)
(1.03746 1.49274 0.66551)
(1.19224 1.61275 0.876173)
(1.2202 1.45751 0.66795)
(1.11196 1.29744 0.619823)
(1.27297 1.55004 0.724879)
(1.09151 1.22511 0.640839)
(1.42862 1.43093 0.754921)
(1.05033 1.27575 0.609979)
(1.03436 1.59723 0.890814)
(1.44234 1.53829 0.923248)
(1.36602 1.5907 0.900209)
(1.33804 1.49028 0.711053)
(1.26036 1.28327 0.631599)
(1.00396 1.59604 0.70793)
(1.10728 1.60397 0.900896)
(1.34829 1.57512 0.798148)
(1.31747 1.3138 0.666798)
(1.26956 1.38838 0.647164)
(0.966982 1.61001 0.873035)
(1.49059 1.4903 0.934681)
(1.12559 1.17978 0.646206)
(1.27719 1.60578 0.826993)
(1.29481 1.60882 0.920913)
(1.36447 1.35902 0.694466)
(0.969936 1.50336 0.664415)
(1.03024 1.36193 0.606029)
(1.48207 1.50126 0.966484)
(1.51036 1.4702 0.967597)
(1.50602 1.46151 0.919074)
(1.13932 1.61991 0.777873)
(1.10664 1.62731 0.761672)
(1.15307 1.61422 0.73543)
(1.12519 1.54799 0.680987)
(1.18052 1.56772 0.699724)
(1.19404 1.61045 0.808162)
(1.14511 1.60586 0.822417)
(1.21393 1.5222 0.69416)
(1.23602 1.58795 0.739451)
(1.23416 1.60927 0.78919)
(1.24037 1.6068 0.845838)
(1.28049 1.59282 0.774974)
(1.01472 1.59105 0.947482)
(1.06036 1.59482 0.947486)
(0.928779 1.59951 0.927411)
(0.979115 1.59463 0.946429)
(1.00137 1.6021 0.884788)
(1.09587 1.60713 0.950862)
(1.13419 1.61984 0.952672)
(1.07315 1.59542 0.894427)
(1.17393 1.62278 0.935241)
(1.22668 1.61845 0.940828)
(1.15004 1.60836 0.880669)
(1.325 1.60141 0.959796)
(1.27976 1.6104 0.958564)
(1.24759 1.61097 0.898951)
(1.35926 1.59122 0.947172)
(1.39354 1.57117 0.946616)
(1.33569 1.59778 0.908759)
(1.42792 1.54887 0.960738)
(1.45709 1.5216 0.960552)
(1.40827 1.55985 0.907904)
(1.466 1.51009 0.926778)
(1.11561 1.14573 0.663534)
(1.09897 1.1639 0.667942)
(1.1468 1.17593 0.635474)
(0.951096 1.61846 0.74964)
(0.953016 1.62292 0.793491)
(0.985807 1.61795 0.829085)
(0.934427 1.61728 0.828075)
(0.953245 1.5851 0.705536)
(1.00738 1.6267 0.752505)
(1.06208 1.60441 0.83817)
(1.01774 1.61081 0.841096)
(1.04937 1.62049 0.805038)
(1.05967 1.6272 0.756848)
(1.44468 1.50454 0.827399)
(1.42625 1.4869 0.777057)
(1.45312 1.45309 0.799111)
(1.45324 1.39735 0.79449)
(1.47875 1.42357 0.834004)
(1.45857 1.50881 0.882829)
(1.48112 1.48385 0.892182)
(1.43075 1.53612 0.867991)
(1.49433 1.45167 0.879233)
(0.956667 1.54206 0.679511)
(0.957476 1.45243 0.644859)
(0.942217 1.50076 0.663722)
(0.985485 1.54511 0.678939)
(1.00561 1.31119 0.583658)
(0.996243 1.37164 0.600502)
(0.99669 1.44029 0.649142)
(1.02998 1.24048 0.605127)
(1.01514 1.27599 0.592118)
(1.03698 1.3143 0.602844)
(1.07639 1.18978 0.650832)
(1.04059 1.21365 0.616465)
(1.06799 1.24938 0.625129)
(1.11626 1.19966 0.654589)
(1.20125 1.40484 0.649524)
(1.17042 1.43588 0.650293)
(1.14638 1.37371 0.623852)
(1.10579 1.34281 0.614569)
(1.14666 1.32844 0.622052)
(1.08026 1.2857 0.61889)
(1.07712 1.3364 0.611845)
(1.07397 1.38539 0.617999)
(1.08825 1.50139 0.6726)
(1.08318 1.45136 0.650015)
(1.13337 1.46519 0.658902)
(1.18843 1.4811 0.677016)
(1.03362 1.44069 0.649104)
(1.05359 1.59746 0.709797)
(1.06387 1.53746 0.675958)
(1.01936 1.5386 0.676907)
(1.1511 1.2751 0.625788)
(1.18541 1.29472 0.621419)
(1.22147 1.26562 0.619954)
(1.22135 1.31748 0.62344)
(1.10572 1.26083 0.630382)
(1.14287 1.23782 0.636294)
(1.15644 1.21297 0.631787)
(1.21416 1.22153 0.625351)
(1.2548 1.23284 0.651569)
(1.17675 1.20356 0.625558)
(1.22661 1.3682 0.639982)
(1.24202 1.42539 0.65868)
(1.26319 1.33337 0.636815)
(1.09991 1.60235 0.841698)
(1.24248 1.49413 0.694823)
(1.00328 1.49831 0.666456)
(1.2903 1.60316 0.871517)
(1.30436 1.51532 0.720987)
(1.27389 1.47179 0.686436)
(1.29836 1.43821 0.671789)
(1.34987 1.52959 0.748819)
(1.31442 1.56298 0.757733)
(1.31499 1.59267 0.812219)
(1.3498 1.42656 0.686656)
(1.3962 1.38812 0.721954)
(1.38549 1.45975 0.72299)
(1.38811 1.32917 0.738751)
(1.42335 1.3624 0.764321)
(1.38495 1.51122 0.756758)
(1.32014 1.37563 0.662379)
(1.33899 1.33624 0.680541)
(1.29594 1.35068 0.649336)
(1.35597 1.31055 0.714756)
(1.33333 1.28976 0.70191)
(1.3926 1.56629 0.858495)
(1.35972 1.58216 0.847445)
(1.32927 1.59291 0.861101)
(1.38501 1.55291 0.804561)
(1.28964 1.29819 0.650737)
(1.28222 1.25237 0.669509)
(1.30573 1.26856 0.686934)
(0.896536 1.2624 1.26891)
(0.743558 1.14611 1.22725)
(0.755185 1.20953 1.18098)
(0.939753 1.33884 1.27161)
(0.804643 1.28341 1.14832)
(0.848818 1.31131 1.2912)
(0.825561 1.20588 1.28788)
(0.797768 1.26417 1.24751)
(0.827774 1.33392 1.2218)
(0.924849 1.26468 1.20725)
(0.712373 1.09105 1.13779)
(0.888579 1.37979 1.26405)
(0.869008 1.37151 1.16715)
(0.716319 1.05555 1.15938)
(0.883696 1.35355 1.08862)
(0.924876 1.37109 1.03198)
(0.916879 1.38593 1.08543)
(0.908566 1.39196 1.12374)
(0.915713 1.39952 1.16349)
(0.873256 1.36218 1.12861)
(0.781936 1.18218 1.26619)
(0.810075 1.24174 1.2749)
(0.777551 1.21032 1.24052)
(0.762015 1.19441 1.20741)
(0.78739 1.24832 1.2153)
(0.735904 1.15849 1.16814)
(0.726586 1.12204 1.18574)
(0.725721 1.0982 1.19473)
(0.713858 1.07495 1.14647)
(0.809156 1.15335 1.28089)
(0.764494 1.12553 1.25822)
(0.739204 1.09079 1.2233)
(0.728682 1.05036 1.18924)
(0.806917 1.2845 1.20286)
(0.820451 1.31103 1.18285)
(0.780888 1.24956 1.16854)
(0.770364 1.22371 1.1211)
(0.748339 1.18868 1.14225)
(0.848439 1.35261 1.19618)
(0.839137 1.3308 1.1589)
(0.814915 1.27916 1.09266)
(0.843426 1.31976 1.12396)
(0.856736 1.31928 1.05396)
(0.904816 1.2272 1.22664)
(0.916494 1.22907 1.19857)
(0.914558 1.26866 1.23901)
(0.935848 1.24207 1.17491)
(0.934689 1.3087 1.23762)
(0.914873 1.3054 1.26827)
(0.940349 1.2849 1.19567)
(0.957925 1.32948 1.22688)
(0.846075 1.26362 1.28783)
(0.82211 1.29404 1.27272)
(0.818473 1.30582 1.23499)
(0.836287 1.33537 1.25792)
(0.711548 1.06468 1.1055)
(0.712766 1.09241 1.10146)
(0.714072 1.05068 1.11542)
(0.730489 1.1502 1.13737)
(0.881395 1.20772 1.25799)
(0.866248 1.2356 1.28259)
(0.884194 1.29225 1.2882)
(0.851902 1.18226 1.27816)
(0.89815 1.32879 1.28999)
(0.970822 1.36831 1.25772)
(0.93021 1.40241 1.21451)
(0.950532 1.39264 1.25465)
(0.919748 1.36202 1.28074)
(0.884953 1.38251 1.20779)
(0.721646 1.03515 1.13043)
(0.857265 1.3647 1.24112)
(0.865302 1.34737 1.28114)
(1.07211 1.4394 1.13141)
(1.20808 1.34356 1.0676)
(1.21516 1.36747 1.04376)
(1.16222 1.36711 1.1039)
(1.17739 1.3971 1.17871)
(1.11705 1.3424 1.19837)
(1.21173 1.3986 1.11813)
(1.18702 1.42021 1.06794)
(1.08784 1.36835 1.23461)
(1.28628 1.34127 1.04438)
(1.15632 1.44126 1.14678)
(1.10855 1.42467 1.17655)
(1.1189 1.44613 1.07694)
(1.04475 1.44106 1.05315)
(1.04436 1.30515 1.20878)
(1.20427 1.39196 1.05242)
(1.20922 1.38422 1.07569)
(1.19705 1.4149 1.09578)
(1.16659 1.43422 1.10814)
(1.18763 1.42404 1.13388)
(1.19473 1.36986 1.0802)
(1.16859 1.3502 1.08106)
(1.19602 1.38191 1.10862)
(1.20828 1.35666 1.0572)
(1.18371 1.38762 1.1401)
(1.19718 1.4001 1.14487)
(1.17358 1.42083 1.16099)
(1.00136 1.43054 1.0644)
(1.00607 1.43085 1.01988)
(1.02983 1.4266 1.13851)
(1.01664 1.43057 1.10091)
(1.05562 1.439 1.09067)
(1.20834 1.31465 1.08064)
(1.25924 1.32354 1.06681)
(1.24121 1.33927 1.05488)
(1.29999 1.32923 1.0565)
(1.32195 1.33529 1.02472)
(1.06468 1.28589 1.16346)
(1.08576 1.3 1.14576)
(1.10793 1.32045 1.11884)
(1.14963 1.31479 1.09405)
(1.14389 1.3737 1.14633)
(1.0377 1.27515 1.16447)
(0.995664 1.27489 1.17626)
(1.08374 1.31381 1.21082)
(1.0482 1.38217 1.22138)
(1.03088 1.34614 1.22078)
(1.0666 1.33481 1.22833)
(1.00569 1.31585 1.20211)
(1.1016 1.40501 1.20079)
(1.05836 1.40943 1.19245)
(1.10998 1.35309 1.22648)
(1.13401 1.39353 1.2056)
(1.14595 1.41564 1.18072)
(1.15308 1.38 1.18814)
(1.07202 1.44329 1.02834)
(1.05046 1.42223 1.16407)
(1.0909 1.43184 1.1483)
(1.09466 1.44328 1.10382)
(1.08788 1.44337 1.06588)
(1.13065 1.44318 1.11206)
(1.11572 1.44037 1.13581)
(1.13692 1.43139 1.15893)
(1.28483 1.34391 1.02218)
(1.23324 1.34863 1.03868)
(1.2347 1.35188 1.02062)
(1.11127 1.44258 1.03896)
(1.14939 1.43512 1.03877)
(1.19998 1.39771 1.02665)
(1.17808 1.42013 1.03373)
(1.15364 1.43503 1.07388)
(1.2129 1.37383 1.02088)
(1.09283 1.37436 0.780036)
(1.21708 1.33023 0.929053)
(1.13836 1.42616 0.912358)
(1.09272 1.32336 0.819397)
(1.15008 1.412 0.854604)
(1.2013 1.36684 0.906192)
(1.08631 1.42192 0.799781)
(1.1587 1.37162 0.858431)
(1.06443 1.44834 0.844677)
(1.13447 1.33156 0.90112)
(1.25584 1.35184 0.957364)
(1.03581 1.29631 0.792856)
(1.20307 1.39745 0.952432)
(1.06825 1.44375 0.942639)
(1.00538 1.43522 0.86719)
(1.0236 1.43512 0.827062)
(1.02294 1.43427 0.969134)
(1.01629 1.43775 0.916618)
(1.05646 1.44727 0.891161)
(1.08605 1.43758 0.827027)
(1.03798 1.42952 0.797817)
(1.05299 1.41364 0.77408)
(1.03688 1.34562 0.771587)
(1.0622 1.3325 0.772886)
(1.00328 1.30692 0.798244)
(1.06608 1.30323 0.796471)
(1.09842 1.34937 0.791576)
(1.15873 1.39042 0.856144)
(1.12708 1.38116 0.822613)
(1.12235 1.39992 0.837512)
(1.12664 1.36026 0.841045)
(1.06292 1.38827 0.770184)
(1.09113 1.4003 0.794713)
(1.11827 1.41669 0.840004)
(1.08511 1.44219 0.976012)
(1.11776 1.4342 0.854426)
(1.10674 1.43923 0.883159)
(1.14542 1.41963 0.882733)
(1.10102 1.43677 0.92794)
(1.00204 1.26846 0.820779)
(1.03074 1.26659 0.841085)
(1.04975 1.27539 0.851287)
(1.16428 1.35076 0.912607)
(1.14431 1.35507 0.886669)
(1.17668 1.36807 0.889527)
(1.10994 1.33831 0.867552)
(1.17999 1.38718 0.879936)
(1.16627 1.32564 0.919077)
(1.18475 1.34722 0.931843)
(1.21537 1.30753 0.910907)
(1.16127 1.30295 0.902348)
(1.1096 1.29958 0.887397)
(1.07664 1.28912 0.867531)
(1.20485 1.35835 0.943432)
(1.23052 1.34287 0.9459)
(1.27651 1.3352 0.946464)
(1.26104 1.32113 0.927094)
(1.12933 1.43296 0.978962)
(1.21227 1.39167 0.97656)
(1.18251 1.41059 0.975328)
(1.16685 1.40964 0.93756)
(1.14831 1.42213 0.96216)
(1.27216 1.34951 0.976266)
(1.23117 1.36412 0.979622)
(1.2214 1.37029 0.960294)
(1.2027 1.3825 0.926964)
(1.3048 1.33784 0.972169)
(1.17754 1.39726 0.906996)
(0.788671 1.26484 0.862585)
(0.675903 1.11861 0.88341)
(0.856095 1.30607 0.709456)
(0.718146 1.09731 0.821421)