/*--------------------------------*- C++ -*----------------------------------*\
| =========                 |                                                 |
| \\      /  F ield         | OpenFOAM: The Open Source CFD Toolbox           |
|  \\    /   O peration     | Version:  v1806                                 |
|   \\  /    A nd           | Web:      www.OpenFOAM.com                      |
|    \\/     M anipulation  |                                                 |
\*---------------------------------------------------------------------------*/
FoamFile
{
    version     2.0;
    format      ascii;
    class       volVectorField;
    location    "0.0755";
    object      U_0;
}
// * * * * * * * * * * * * * * * * * * * * * * * * * * * * * * * * * * * * * //

dimensions      [0 1 -1 0 0 0 0];


internalField   nonuniform List<vector> 
64000
(
(-0.00937732 -0.0104378 -0.00702369)
(0.0138003 -0.0105861 -0.00445843)
(0.0198406 -0.00358895 0.000781916)
(0.0238161 -0.00342857 0.00131413)
(0.0246512 -0.00251446 0.00173829)
(0.0247595 -0.0027534 0.00251738)
(0.0242499 -0.00350951 0.00277805)
(0.0208521 -0.00394642 0.00301723)
(0.0195403 -0.00490544 0.00447025)
(0.0123375 -0.00442501 0.00381661)
(0.00707079 -0.00524445 0.00632545)
(-0.00610697 -0.00896382 0.00619553)
(-0.0260379 -0.0126679 0.00637533)
(-0.0496127 -0.0178334 0.00395401)
(-0.079621 -0.0181539 0.00503238)
(-0.11521 -0.0162907 0.00261967)
(-0.145577 0.000566554 0.00193487)
(-0.189595 -0.00441278 -0.0025546)
(-0.190755 -0.00985323 0.00570086)
(-0.25041 -0.0284762 -0.0155803)
(-0.216597 -0.022959 -0.0236078)
(-0.105715 -0.0243506 -0.0391528)
(-0.105223 -0.00959093 -0.0263623)
(-0.101086 -0.00392096 -0.037231)
(-0.116797 0.00264061 -0.0479881)
(-0.111353 0.0109751 -0.0572383)
(-0.099199 0.0209019 -0.0619822)
(-0.0641244 0.032206 -0.0575559)
(-0.0313402 0.0383789 -0.0533752)
(0.0121652 0.0524685 -0.0362655)
(0.0595734 0.0459137 -0.032072)
(0.0935408 0.0377233 -0.0235592)
(0.109586 0.026793 -0.0119149)
(0.10544 0.0132978 -0.00448433)
(0.0915606 0.00495546 0.001598)
(0.072316 -0.00314708 0.00419139)
(0.0520962 -0.00681943 0.00570041)
(0.0311753 -0.00596529 0.00655976)
(0.0166665 -0.00438121 0.00696679)
(0.00229955 -0.0027836 0.00479738)
(-0.00694094 0.000740907 -0.00331905)
(0.00879884 -0.0166534 -0.00309501)
(0.0240996 -0.0113148 -0.0012128)
(0.0335223 -0.0080709 -0.000709063)
(0.0388594 -0.00320171 -0.000804134)
(0.0388094 -0.000826282 -0.00145245)
(0.0372545 0.00322458 -0.00295607)
(0.0298283 0.00488388 -0.00276677)
(0.0228949 0.010613 -0.00702575)
(0.00515174 0.0161779 -0.00437784)
(-0.0191462 0.0249807 -0.00809586)
(-0.056068 0.0313453 0.000401031)
(-0.104048 0.0425503 -0.00401021)
(-0.155962 0.0630857 -0.00685794)
(-0.215162 0.0761336 -0.0111094)
(-0.273002 0.0850836 -0.0181973)
(-0.354441 0.0929086 -0.0434731)
(-0.459328 0.0951607 -0.0584502)
(-0.50918 0.101011 -0.0759149)
(-0.592798 0.0987124 -0.0990899)
(-0.545177 0.125943 -0.0988462)
(-0.40781 0.140866 -0.126744)
(-0.388596 0.186156 -0.137307)
(-0.371348 0.211295 -0.146501)
(-0.359649 0.236586 -0.157867)
(-0.321501 0.258303 -0.163923)
(-0.271315 0.279095 -0.165255)
(-0.200868 0.294998 -0.153646)
(-0.124179 0.300797 -0.133646)
(-0.053623 0.307238 -0.109822)
(0.0122182 0.289514 -0.0756112)
(0.0764654 0.259376 -0.0471258)
(0.112739 0.209527 -0.038799)
(0.124887 0.159313 -0.0266026)
(0.11937 0.108345 -0.0127816)
(0.100111 0.0686727 -0.00525555)
(0.0801654 0.0401165 -0.00084163)
(0.0549643 0.0255487 0.000177639)
(0.0328836 0.0157617 0.00174914)
(0.00813695 0.0073409 0.00212711)
(-0.000645434 -0.00685151 0.00148923)
(0.014882 -0.0229221 -0.00146128)
(0.0317998 -0.0179928 -0.00243378)
(0.0421103 -0.00573606 -0.00324595)
(0.0444007 0.00480378 -0.0051335)
(0.0417939 0.0161208 -0.00662293)
(0.0342154 0.0315737 -0.00787087)
(0.0201365 0.0457089 -0.00955879)
(0.00412003 0.0696261 -0.00200276)
(-0.0262822 0.0899565 -0.00479865)
(-0.0644881 0.117218 -0.00813848)
(-0.117643 0.149777 -0.0133086)
(-0.172536 0.183496 -0.0174004)
(-0.250924 0.211041 -0.0321728)
(-0.349674 0.230221 -0.0350696)
(-0.445813 0.243837 -0.0423001)
(-0.532706 0.248594 -0.0587884)
(-0.619842 0.269316 -0.0769321)
(-0.664229 0.298682 -0.0946524)
(-0.732299 0.332306 -0.116275)
(-0.670858 0.37061 -0.108184)
(-0.507247 0.399469 -0.123903)
(-0.464457 0.456284 -0.126258)
(-0.436391 0.488322 -0.12345)
(-0.415555 0.520463 -0.125792)
(-0.373417 0.542646 -0.124071)
(-0.322751 0.556742 -0.119552)
(-0.257777 0.560556 -0.104714)
(-0.190495 0.550524 -0.0829735)
(-0.125947 0.530965 -0.059319)
(-0.0696482 0.500804 -0.0399698)
(-0.027019 0.452515 -0.0277854)
(0.00734159 0.379687 -0.0160461)
(0.0298794 0.307171 -0.00811941)
(0.0417244 0.227469 -0.0110452)
(0.0477725 0.162531 -0.0108738)
(0.0475996 0.114508 -0.00709621)
(0.0384978 0.0771545 -0.0048409)
(0.0272904 0.0510726 -0.00106333)
(0.00804204 0.0243144 0.0017896)
(0.000288675 -0.0113306 0.00235261)
(0.0170428 -0.0248464 -0.00111749)
(0.038259 -0.0118998 -0.0029318)
(0.0461925 0.00605781 -0.00625446)
(0.0439471 0.0298703 -0.00689022)
(0.0393004 0.0549563 -0.0088476)
(0.0261889 0.0902215 -0.00874542)
(0.00689411 0.122779 -0.00555392)
(-0.0203116 0.167675 -0.0105171)
(-0.0658216 0.207922 -0.0128758)
(-0.111807 0.251987 -0.0171292)
(-0.176971 0.287054 -0.0244432)
(-0.263109 0.314901 -0.0268791)
(-0.354388 0.331042 -0.0288107)
(-0.440847 0.352193 -0.0311152)
(-0.5198 0.37675 -0.0366869)
(-0.590787 0.406611 -0.0510861)
(-0.664613 0.43581 -0.0604457)
(-0.694758 0.476008 -0.0696643)
(-0.748135 0.519499 -0.0773844)
(-0.675325 0.553193 -0.0501288)
(-0.491105 0.572898 -0.046423)
(-0.434178 0.615524 -0.0412976)
(-0.406637 0.624033 -0.0294963)
(-0.38725 0.637108 -0.0265338)
(-0.354438 0.638172 -0.0212969)
(-0.315511 0.630582 -0.0178353)
(-0.26743 0.612436 -0.0105283)
(-0.217731 0.587045 0.00131772)
(-0.172924 0.555077 0.00852296)
(-0.141106 0.515291 0.0137951)
(-0.116757 0.471291 0.0123095)
(-0.0935844 0.414528 0.00682719)
(-0.0714872 0.350338 -0.00140046)
(-0.0489809 0.270765 -0.00514802)
(-0.0199718 0.202137 -0.0102563)
(0.000112904 0.146764 -0.0103605)
(0.00901443 0.110341 -0.00774547)
(0.0171036 0.0768574 -0.00325858)
(0.00640178 0.0363027 0.00146671)
(0.000815364 -0.0117986 0.000798936)
(0.0233754 -0.0144596 -0.00442134)
(0.0465478 0.00304286 -0.00707939)
(0.0546722 0.0380979 -0.008155)
(0.0519144 0.0765431 -0.00734941)
(0.045842 0.122619 -0.0149823)
(0.0265616 0.178322 -0.0122877)
(-0.000891806 0.237283 -0.00593596)
(-0.0337331 0.292283 -0.00772824)
(-0.087735 0.336798 -0.00980239)
(-0.150601 0.371209 -0.0125144)
(-0.230414 0.390458 -0.0151721)
(-0.303916 0.413021 -0.0160601)
(-0.378183 0.439169 -0.0212984)
(-0.451798 0.469841 -0.0198195)
(-0.518911 0.502477 -0.0212266)
(-0.57668 0.530301 -0.0244918)
(-0.630893 0.566962 -0.021398)
(-0.641667 0.610339 -0.0174436)
(-0.681354 0.655547 -0.0261121)
(-0.609361 0.683732 0.00178817)
(-0.418663 0.689393 0.0148681)
(-0.357722 0.702871 0.025875)
(-0.339234 0.679106 0.036511)
(-0.331695 0.661587 0.0374891)
(-0.318245 0.636187 0.0434695)
(-0.299652 0.603988 0.0447305)
(-0.269871 0.567946 0.0488011)
(-0.240804 0.527207 0.0421522)
(-0.216169 0.488242 0.0343631)
(-0.195662 0.443993 0.0244222)
(-0.186257 0.411114 0.0170421)
(-0.1788 0.374866 0.00921563)
(-0.173982 0.344052 -0.00270532)
(-0.152073 0.278879 -0.0129526)
(-0.103583 0.208616 -0.0140062)
(-0.0521524 0.160553 -0.0134267)
(-0.0167235 0.129921 -0.0114855)
(0.0029455 0.0953325 -0.00584456)
(0.00352307 0.0455833 0.00143366)
(0.00553908 -0.00744817 -0.000295897)
(0.0287213 0.00050201 -0.00585692)
(0.0609872 0.0265659 -0.00568719)
(0.0739238 0.0787132 -0.00952564)
(0.0677379 0.136602 -0.0144047)
(0.0634586 0.201004 -0.0183559)
(0.045592 0.276332 -0.0136933)
(0.00846049 0.326272 -0.00386803)
(-0.0466829 0.369623 -0.0052918)
(-0.118368 0.402717 -0.00719003)
(-0.185825 0.432308 -0.00925684)
(-0.249201 0.461431 -0.0094496)
(-0.308775 0.495918 -0.00759716)
(-0.366711 0.523667 -0.00469161)
(-0.417881 0.55378 0.00149343)
(-0.469415 0.582172 0.00648938)
(-0.503271 0.612543 0.00841411)
(-0.537566 0.644377 0.00854113)
(-0.543251 0.69038 0.0105652)
(-0.570288 0.724193 0.0088872)
(-0.500992 0.748808 0.0354476)
(-0.326765 0.700444 0.0502465)
(-0.282096 0.68303 0.060577)
(-0.285056 0.628675 0.0738123)
(-0.292761 0.587138 0.0768103)
(-0.297778 0.545304 0.0769896)
(-0.295438 0.502193 0.0743322)
(-0.285905 0.46129 0.0683203)
(-0.270771 0.414235 0.0659527)
(-0.260149 0.376509 0.0454998)
(-0.250403 0.333518 0.034583)
(-0.239886 0.303051 0.0203596)
(-0.226506 0.278109 0.00871154)
(-0.235012 0.265661 -0.00295115)
(-0.240131 0.241523 -0.0154299)
(-0.174646 0.192591 -0.0139641)
(-0.0926961 0.161481 -0.0150305)
(-0.0403918 0.13504 -0.0118015)
(-0.00456577 0.103362 -0.00669646)
(0.00252376 0.0488595 0.00195989)
(0.0077777 -0.00191645 0.000490945)
(0.0385494 0.0126474 -0.0100138)
(0.0810517 0.0529035 -0.00973409)
(0.105548 0.107629 -0.0115052)
(0.100984 0.171118 -0.0152492)
(0.0979219 0.245933 -0.0181101)
(0.0533739 0.306508 -0.00995511)
(-0.01195 0.33806 0.00239688)
(-0.0599399 0.381518 -0.00254375)
(-0.116781 0.422161 -0.00320927)
(-0.165878 0.468176 -0.00331257)
(-0.216965 0.510356 -0.0015399)
(-0.263718 0.549066 0.00167048)
(-0.310472 0.582565 0.00699555)
(-0.350832 0.615035 0.0143857)
(-0.385273 0.640124 0.0199208)
(-0.409701 0.667001 0.0258223)
(-0.426614 0.679843 0.0292524)
(-0.419711 0.704767 0.0262044)
(-0.441088 0.719487 0.0171483)
(-0.430669 0.738304 0.0322095)
(-0.290354 0.633175 0.0534428)
(-0.231997 0.584104 0.0576881)
(-0.251812 0.523513 0.0705521)
(-0.269469 0.480581 0.0713635)
(-0.290877 0.442702 0.0711617)
(-0.304331 0.407214 0.0673529)
(-0.311218 0.373271 0.0605262)
(-0.309495 0.336713 0.0477678)
(-0.310569 0.30266 0.0324744)
(-0.307754 0.270007 0.0194771)
(-0.299736 0.242228 0.00739043)
(-0.286892 0.222928 -0.0018807)
(-0.284106 0.207307 -0.00870522)
(-0.287912 0.217798 -0.0179983)
(-0.226617 0.193028 -0.0206221)
(-0.127421 0.166645 -0.0217951)
(-0.0559434 0.145994 -0.0167964)
(-0.00982474 0.112044 -0.0106438)
(0.00243606 0.0534356 0.000215122)
(0.00715664 0.00533973 -0.00327007)
(0.0453265 0.0318231 -0.0134246)
(0.0995493 0.0810783 -0.0136879)
(0.124845 0.136661 -0.0110251)
(0.128811 0.195247 -0.0119385)
(0.113275 0.267086 -0.0121734)
(0.0518997 0.29625 -0.00120319)
(0.00354041 0.348104 0.00519614)
(-0.0306713 0.394844 0.00132795)
(-0.0807723 0.448219 0.00274506)
(-0.123284 0.492076 0.00375631)
(-0.166098 0.529194 0.00989389)
(-0.202194 0.562253 0.0159673)
(-0.233123 0.589105 0.0235517)
(-0.261292 0.614175 0.0280174)
(-0.289619 0.629472 0.032159)
(-0.309032 0.640616 0.0348298)
(-0.327225 0.640969 0.0340724)
(-0.32606 0.635495 0.0311052)
(-0.341634 0.615483 0.0146465)
(-0.382261 0.619029 0.0157255)
(-0.293855 0.539971 0.034539)
(-0.220459 0.457367 0.0372672)
(-0.240683 0.417511 0.0487349)
(-0.26554 0.381009 0.0526853)
(-0.296656 0.356581 0.0541647)
(-0.320316 0.330297 0.0551591)
(-0.338183 0.304879 0.0481809)
(-0.347675 0.276794 0.0392169)
(-0.355776 0.246941 0.0173875)
(-0.357297 0.215407 0.0093064)
(-0.347958 0.190959 0.000115805)
(-0.333893 0.177902 -0.00787242)
(-0.318009 0.169622 -0.0116566)
(-0.326081 0.191278 -0.0211296)
(-0.27657 0.196178 -0.0207118)
(-0.161402 0.172019 -0.0224792)
(-0.0743503 0.155156 -0.017615)
(-0.0149307 0.11929 -0.0103124)
(0.00356345 0.0570933 0.00098876)
(0.00617825 0.0163323 -0.00581584)
(0.0535151 0.0624148 -0.0178968)
(0.119457 0.118833 -0.0193816)
(0.151006 0.174158 -0.0132503)
(0.158561 0.235628 -0.0141905)
(0.12666 0.284871 -0.0114678)
(0.069871 0.322177 -0.00240853)
(0.0321959 0.378992 0.00509996)
(0.00391231 0.416852 0.0111374)
(-0.0312129 0.457363 0.0110389)
(-0.0709391 0.495594 0.0152618)
(-0.102516 0.522315 0.0207788)
(-0.128658 0.544985 0.027871)
(-0.153791 0.55765 0.0340805)
(-0.177564 0.561854 0.0362235)
(-0.202898 0.558564 0.0367756)
(-0.225402 0.551751 0.0355153)
(-0.252025 0.536759 0.030878)
(-0.27291 0.52282 0.0248266)
(-0.291321 0.491825 0.00997152)
(-0.343395 0.481081 -0.00029077)
(-0.316889 0.451973 0.0101868)
(-0.240771 0.353467 0.0189384)
(-0.239558 0.336557 0.0250411)
(-0.269738 0.310776 0.0329236)
(-0.304622 0.296543 0.0373393)
(-0.337743 0.278548 0.0425431)
(-0.362917 0.256729 0.0388135)
(-0.38264 0.233112 0.0240752)
(-0.400092 0.200181 0.00906141)
(-0.402928 0.175703 -0.000755112)
(-0.390359 0.152725 -0.00605278)
(-0.375328 0.139266 -0.0118815)
(-0.348439 0.140644 -0.0198188)
(-0.338862 0.153664 -0.0237966)
(-0.305921 0.190756 -0.0286139)
(-0.197002 0.174246 -0.0264917)
(-0.0896752 0.164311 -0.0245896)
(-0.0199286 0.129047 -0.0136694)
(0.00445181 0.0629849 -0.0011892)
(0.00767491 0.0329126 -0.00875166)
(0.0625529 0.101307 -0.0256179)
(0.137687 0.161898 -0.0247676)
(0.176161 0.215561 -0.0152011)
(0.177254 0.268381 -0.0149191)
(0.14498 0.301035 -0.0136488)
(0.102929 0.348778 -0.00312192)
(0.0702473 0.395302 0.00885625)
(0.0394607 0.432485 0.0156465)
(0.0152875 0.459206 0.0261647)
(-0.0118765 0.481455 0.022953)
(-0.0430964 0.494547 0.0333736)
(-0.066067 0.50302 0.0383284)
(-0.0892971 0.493503 0.0439259)
(-0.112955 0.47826 0.0437051)
(-0.139712 0.455338 0.0405508)
(-0.167322 0.431905 0.0353013)
(-0.19806 0.406608 0.0277984)
(-0.228616 0.389971 0.0193816)
(-0.261176 0.372162 0.00452505)
(-0.315872 0.357486 -0.00800819)
(-0.340533 0.356868 -0.00718373)
(-0.271822 0.291084 0.00780025)
(-0.236914 0.281545 0.010589)
(-0.270934 0.264045 0.0210962)
(-0.305789 0.256318 0.0285704)
(-0.345253 0.23735 0.0376687)
(-0.377642 0.220667 0.0322442)
(-0.40602 0.190895 0.0247458)
(-0.421747 0.164581 0.00965101)
(-0.427292 0.13667 0.0109746)
(-0.422987 0.115295 0.0173782)
(-0.403407 0.095918 0.0142963)
(-0.379223 0.0977758 0.00888493)
(-0.359594 0.111463 -0.0132066)
(-0.328696 0.159955 -0.0244134)
(-0.227382 0.171694 -0.0249539)
(-0.107125 0.164238 -0.0215096)
(-0.0257588 0.136831 -0.0126778)
(0.00554494 0.0672303 1.22429e-05)
(0.00878551 0.0547002 -0.0113093)
(0.0708017 0.143724 -0.0318896)
(0.155269 0.208121 -0.03109)
(0.198264 0.256605 -0.0180958)
(0.195739 0.293889 -0.0117939)
(0.170509 0.328051 -0.0135365)
(0.141683 0.368643 -0.00297989)
(0.11075 0.405574 0.00481308)
(0.0853014 0.433812 0.0130636)
(0.0572423 0.454594 0.0287447)
(0.0287482 0.45932 0.037137)
(0.0119598 0.460119 0.0471046)
(-0.0120009 0.447235 0.0468826)
(-0.0422063 0.426167 0.0500898)
(-0.0687066 0.397548 0.0480506)
(-0.100061 0.365846 0.0413615)
(-0.132664 0.33603 0.033032)
(-0.167733 0.309209 0.0241633)
(-0.201946 0.29388 0.0155532)
(-0.241001 0.279051 0.00247052)
(-0.293427 0.27089 -0.0073525)
(-0.333141 0.275314 -0.0115045)
(-0.275544 0.259103 0.000970379)
(-0.230456 0.245123 0.00150664)
(-0.259287 0.23312 0.013938)
(-0.297668 0.221368 0.022664)
(-0.342307 0.206126 0.031865)
(-0.379419 0.183654 0.0300828)
(-0.411574 0.157849 0.0196696)
(-0.43497 0.128367 0.0302799)
(-0.449258 0.0939847 0.0315623)
(-0.451175 0.0657876 0.0184286)
(-0.437785 0.0517344 0.0131852)
(-0.404264 0.0484526 0.00545177)
(-0.366981 0.063667 -0.000438205)
(-0.336285 0.110072 -0.0222928)
(-0.251264 0.151021 -0.0284493)
(-0.124546 0.160363 -0.0235466)
(-0.0286402 0.140675 -0.0150101)
(0.00483312 0.0715454 -0.00162281)
(0.00949914 0.073946 -0.011963)
(0.0768295 0.184625 -0.0357687)
(0.168129 0.251656 -0.0341934)
(0.211332 0.28854 -0.017673)
(0.215089 0.317105 -0.00990443)
(0.199824 0.349118 -0.00702528)
(0.17651 0.380504 -0.00544489)
(0.149623 0.404793 0.00791093)
(0.122914 0.424562 0.0128827)
(0.0987052 0.432961 0.0250582)
(0.0756552 0.435702 0.0364869)
(0.0472338 0.424385 0.0517937)
(0.0221251 0.397676 0.0554764)
(-0.00271332 0.363581 0.0548054)
(-0.0351061 0.332104 0.0483753)
(-0.0697761 0.298953 0.0385061)
(-0.107028 0.27218 0.027524)
(-0.141947 0.250167 0.0184867)
(-0.180425 0.241643 0.00903136)
(-0.223965 0.229893 3.80226e-07)
(-0.270967 0.227849 -0.0078174)
(-0.307578 0.229838 -0.011502)
(-0.258369 0.240294 -0.00216041)
(-0.213446 0.222177 -0.00290907)
(-0.239885 0.205727 0.00901456)
(-0.275605 0.189326 0.0185193)
(-0.323354 0.171631 0.0260012)
(-0.36411 0.148769 0.0214237)
(-0.400729 0.121461 0.0380434)
(-0.433731 0.0868486 0.0452924)
(-0.455661 0.0538143 0.0400455)
(-0.45724 0.0281905 0.0510648)
(-0.450134 0.00494944 0.0397362)
(-0.433572 0.0013655 0.034174)
(-0.396722 0.0109554 0.0248782)
(-0.352763 0.057677 0.0038451)
(-0.264061 0.112232 -0.0250435)
(-0.138513 0.148592 -0.0250129)
(-0.0346729 0.13918 -0.0143476)
(0.00595857 0.0747568 -0.00158535)
(0.0101729 0.0946466 -0.0113344)
(0.0808444 0.22474 -0.0384286)
(0.172738 0.292428 -0.0372703)
(0.221977 0.321167 -0.0187233)
(0.236825 0.343454 -0.00589707)
(0.228987 0.366827 0.000148561)
(0.207869 0.388431 0.00459459)
(0.183227 0.40243 0.00555776)
(0.161807 0.411651 0.0162299)
(0.138272 0.413124 0.0263399)
(0.111229 0.403405 0.0356959)
(0.0843744 0.384051 0.0426425)
(0.0510952 0.355473 0.0553833)
(0.0205311 0.318438 0.0552527)
(-0.00841732 0.278987 0.0470168)
(-0.045857 0.252484 0.0333369)
(-0.0844779 0.227872 0.0214535)
(-0.11852 0.212294 0.0131176)
(-0.157287 0.205369 0.00406488)
(-0.199782 0.199546 -0.00134203)
(-0.241251 0.199439 -0.00763019)
(-0.264195 0.203036 -0.00873202)
(-0.221697 0.233053 -0.00257319)
(-0.193387 0.207474 -0.00357065)
(-0.212852 0.180025 0.00537785)
(-0.247282 0.157276 0.0136884)
(-0.292472 0.132443 0.018498)
(-0.335405 0.110246 0.0313109)
(-0.379794 0.0776353 0.0438223)
(-0.417435 0.0465015 0.0467753)
(-0.440378 0.0138841 0.0662479)
(-0.466425 -0.023606 0.0469302)
(-0.473723 -0.0646094 0.0352205)
(-0.456249 -0.0853025 0.0139513)
(-0.415857 -0.0727156 0.00439031)
(-0.37097 -0.024027 0.00885247)
(-0.285249 0.0611023 -0.00234715)
(-0.152761 0.117528 -0.0310896)
(-0.039612 0.131923 -0.0144142)
(0.00625387 0.0764448 -0.00315602)
(0.00923584 0.100844 -0.0104276)
(0.0792329 0.248112 -0.0406476)
(0.173233 0.319393 -0.041353)
(0.228232 0.345416 -0.0218596)
(0.25381 0.359283 -0.00346418)
(0.253163 0.370102 0.00632079)
(0.234078 0.381681 0.012511)
(0.211206 0.389976 0.0160427)
(0.190811 0.395127 0.0190597)
(0.167957 0.389358 0.0231242)
(0.143871 0.374475 0.0294244)
(0.112031 0.34986 0.039962)
(0.0781904 0.316954 0.0419449)
(0.0416492 0.283557 0.0498251)
(0.0111138 0.245631 0.0448311)
(-0.0210324 0.216243 0.0264127)
(-0.0624761 0.197403 0.0158062)
(-0.0930341 0.184611 0.00851699)
(-0.129544 0.178406 0.000734861)
(-0.167974 0.174611 -0.00226519)
(-0.201461 0.172507 -0.0059191)
(-0.200321 0.195913 -0.00146507)
(-0.173004 0.215265 -0.00227214)
(-0.174852 0.186394 -0.00156155)
(-0.190237 0.153295 0.00261667)
(-0.215346 0.119795 0.00969078)
(-0.254886 0.095834 0.0144171)
(-0.296941 0.0664377 0.03234)
(-0.341271 0.0396892 0.0399814)
(-0.379442 0.0095613 0.0610216)
(-0.427913 -0.0323642 0.0454627)
(-0.469626 -0.0857001 0.0383178)
(-0.487368 -0.12931 0.0244602)
(-0.475158 -0.161473 0.0137701)
(-0.43451 -0.164464 -0.00599277)
(-0.373507 -0.123072 -0.0068787)
(-0.291235 -0.0207289 -0.000705737)
(-0.171429 0.0766741 -0.0168965)
(-0.0436661 0.117755 -0.0200044)
(0.0072326 0.0766497 -0.00210632)
(0.00805307 0.111555 -0.00880901)
(0.0776346 0.273362 -0.0403584)
(0.172335 0.349322 -0.0429241)
(0.233818 0.37276 -0.0229675)
(0.266085 0.378842 -0.00253538)
(0.271225 0.376931 0.0116436)
(0.259814 0.379564 0.0210316)
(0.242534 0.381762 0.0237204)
(0.223314 0.379723 0.0264109)
(0.198863 0.367905 0.0281504)
(0.171101 0.348154 0.0299655)
(0.139152 0.31794 0.0278819)
(0.101847 0.286147 0.0301818)
(0.0630991 0.249332 0.0314858)
(0.0271059 0.222206 0.0328711)
(-0.00394558 0.189069 0.0197907)
(-0.0366431 0.172989 0.0098253)
(-0.066508 0.164697 0.00449619)
(-0.0981039 0.15307 -0.00154998)
(-0.132538 0.150151 -0.00255462)
(-0.139754 0.162052 0.000289258)
(-0.13458 0.185637 0.00197405)
(-0.136777 0.179886 0.0012427)
(-0.15262 0.154343 0.000554727)
(-0.168307 0.125251 0.00255558)
(-0.184595 0.0879527 0.00589547)
(-0.215921 0.0605824 0.0182656)
(-0.252665 0.0310848 0.0275044)
(-0.290827 0.00353207 0.0464696)
(-0.344679 -0.0361237 0.0399905)
(-0.400868 -0.0888026 0.0380623)
(-0.449315 -0.140564 0.0283788)
(-0.4796 -0.192824 0.0180902)
(-0.483813 -0.233358 0.00300078)
(-0.450027 -0.25223 -0.0112581)
(-0.384377 -0.220855 -0.020513)
(-0.294112 -0.13123 -0.0184871)
(-0.178754 0.0152964 0.000874721)
(-0.0537279 0.0948464 -0.0268683)
(0.00639139 0.0781994 -0.00340672)
(0.00572867 0.0913776 -0.00809993)
(0.0717052 0.267148 -0.0397383)
(0.166633 0.34907 -0.0417281)
(0.232741 0.372449 -0.022208)
(0.272051 0.372765 0.00100076)
(0.285972 0.366457 0.0150255)
(0.281535 0.364992 0.0207772)
(0.264264 0.359593 0.0241238)
(0.243548 0.352011 0.0263539)
(0.219596 0.338931 0.0270559)
(0.192528 0.318479 0.0266014)
(0.159331 0.292202 0.0230709)
(0.121827 0.259059 0.0190926)
(0.0850121 0.22701 0.0130888)
(0.0483304 0.19957 0.0176011)
(0.0160093 0.175687 0.0101651)
(-0.00880476 0.157438 0.00446937)
(-0.0382577 0.144895 -0.0014719)
(-0.0674711 0.137996 -0.0024844)
(-0.0770461 0.14454 0.000721184)
(-0.0782505 0.158504 0.00314076)
(-0.0897157 0.155303 0.0048936)
(-0.105594 0.142719 0.00424365)
(-0.12556 0.120723 0.00354147)
(-0.145582 0.0995391 0.00395529)
(-0.159972 0.0634979 0.00604874)
(-0.181139 0.0317679 0.0165676)
(-0.211633 0.00296635 0.030561)
(-0.254661 -0.0323758 0.0297156)
(-0.309105 -0.0770637 0.0330388)
(-0.364728 -0.124964 0.0297312)
(-0.417407 -0.18138 0.0257279)
(-0.455491 -0.240068 0.0161421)
(-0.471721 -0.294928 0.00289731)
(-0.450333 -0.327307 -0.014022)
(-0.391855 -0.317027 -0.0273555)
(-0.288433 -0.237166 -0.031368)
(-0.177331 -0.084302 -0.0198036)
(-0.0574678 0.0502664 -0.0194559)
(0.00844807 0.0663444 -0.00873348)
(0.00531223 0.104526 -0.00507249)
(0.0689561 0.286338 -0.0356541)
(0.162678 0.372133 -0.0405795)
(0.235058 0.393563 -0.0196516)
(0.283815 0.388693 0.00482987)
(0.308003 0.374263 0.0146216)
(0.30777 0.363391 0.0214505)
(0.292337 0.351377 0.0229944)
(0.274449 0.339784 0.0214812)
(0.249647 0.320391 0.0185188)
(0.221523 0.294797 0.0154759)
(0.185895 0.263915 0.0106647)
(0.14472 0.232732 0.00676514)
(0.106225 0.202342 0.00344056)
(0.0691422 0.18054 0.00262752)
(0.0385775 0.164872 0.000306899)
(0.0117166 0.155277 -0.00271822)
(-0.00733203 0.146472 -0.00199859)
(-0.0171656 0.149047 -0.00125067)
(-0.0269385 0.15073 0.00157534)
(-0.0399984 0.140981 0.0042677)
(-0.0581836 0.125888 0.00672176)
(-0.0766291 0.109646 0.00643749)
(-0.0975417 0.0913132 0.00573534)
(-0.122291 0.0725908 0.00758199)
(-0.141227 0.0489929 0.00506247)
(-0.154789 0.0120172 0.00965768)
(-0.182119 -0.0213658 0.0126371)
(-0.221358 -0.0637586 0.0180188)
(-0.269676 -0.106785 0.0197633)
(-0.324252 -0.156762 0.0212151)
(-0.377759 -0.214956 0.0189789)
(-0.420726 -0.278338 0.0133702)
(-0.446466 -0.344254 0.00187548)
(-0.438055 -0.393401 -0.0141776)
(-0.389904 -0.404575 -0.0311424)
(-0.297878 -0.339736 -0.045843)
(-0.183124 -0.186416 -0.0342075)
(-0.0578829 0.00792011 -0.00881066)
(0.00645154 0.0687774 -0.0112044)
(-0.00483478 0.0768656 -0.015312)
(0.0482231 0.267948 -0.0404383)
(0.143524 0.363848 -0.0463906)
(0.223168 0.386825 -0.027076)
(0.2814 0.383198 -0.00645336)
(0.315275 0.361508 0.00617768)
(0.324439 0.343602 0.0124448)
(0.310965 0.324996 0.0131622)
(0.288975 0.313453 0.0124159)
(0.260529 0.303169 0.00911956)
(0.23154 0.290881 0.00676966)
(0.199141 0.272622 0.00371349)
(0.16281 0.252675 0.00182595)
(0.130396 0.231355 0.000471516)
(0.101002 0.211779 0.0028313)
(0.0744682 0.200579 -0.00154413)
(0.0531283 0.189309 -0.00736274)
(0.0360454 0.176292 -0.00453798)
(0.0192873 0.164367 -0.00413981)
(-0.000366353 0.146419 -2.40537e-05)
(-0.0168776 0.124372 0.00416371)
(-0.0340155 0.103524 0.00647984)
(-0.0525298 0.084525 0.00656912)
(-0.0731055 0.0667911 0.00690635)
(-0.0948723 0.0484965 0.00331374)
(-0.121147 0.0309053 0.00179021)
(-0.142223 0.00292641 0.00166995)
(-0.165171 -0.03235 0.0018239)
(-0.200601 -0.0690372 0.00516399)
(-0.242249 -0.112162 0.00984328)
(-0.289867 -0.162615 0.0131794)
(-0.338429 -0.227015 0.0137193)
(-0.3813 -0.300933 0.00985078)
(-0.411283 -0.380626 0.000493818)
(-0.411795 -0.446524 -0.0137807)
(-0.372243 -0.477537 -0.0318264)
(-0.280523 -0.438857 -0.054417)
(-0.16749 -0.307159 -0.0552639)
(-0.0463363 -0.0861044 -0.0205068)
(0.00910523 0.0376806 -0.0073804)
(-0.00576862 0.165276 -0.00734078)
(0.0441161 0.374384 -0.0223959)
(0.132648 0.474107 -0.0330825)
(0.214538 0.496838 -0.0132069)
(0.280134 0.485381 -0.00530882)
(0.321521 0.454863 0.0118496)
(0.339118 0.419555 0.0152312)
(0.336666 0.404514 0.0170813)
(0.33174 0.406261 0.0125678)
(0.311576 0.403477 0.00725141)
(0.281501 0.391533 0.00151971)
(0.243377 0.367645 -0.00259119)
(0.20092 0.335985 -0.00575793)
(0.159511 0.303322 -0.00592252)
(0.126454 0.269685 -0.00502614)
(0.0995606 0.239934 -0.00186799)
(0.0686519 0.21262 -0.00764013)
(0.0483192 0.187559 -0.00870431)
(0.0345456 0.156706 -0.00643277)
(0.0149227 0.132426 -0.00369296)
(-0.00164494 0.110754 0.00142414)
(-0.0174834 0.0862009 0.00502026)
(-0.0330517 0.0665698 0.00596996)
(-0.0525008 0.0458395 0.00816253)
(-0.0744572 0.0276215 0.00122994)
(-0.0977041 0.008983 0.00479554)
(-0.12042 -0.0057812 0.00365391)
(-0.143881 -0.0326711 -0.00111987)
(-0.173816 -0.0707782 -0.00611182)
(-0.214028 -0.119013 -0.00796833)
(-0.26264 -0.16962 -0.00631243)
(-0.312881 -0.228939 -0.00349188)
(-0.356396 -0.29543 -0.000496465)
(-0.386511 -0.379739 -0.00508079)
(-0.390432 -0.461186 -0.0186276)
(-0.366153 -0.526359 -0.0463204)
(-0.301543 -0.519583 -0.073005)
(-0.192343 -0.394779 -0.068838)
(-0.0540924 -0.157705 -0.0416767)
(0.0103217 0.0329905 -0.00613636)
(-0.0188274 0.249772 -0.0230251)
(0.0173397 0.490913 -0.0440671)
(0.106672 0.601089 -0.0527169)
(0.191077 0.642033 -0.0393135)
(0.26204 0.634327 -0.028338)
(0.308852 0.606867 -0.0128928)
(0.347273 0.564168 -0.00208445)
(0.373852 0.536962 -0.0017128)
(0.36717 0.518234 -0.00656267)
(0.329615 0.490678 -0.00965341)
(0.284338 0.455161 -0.0105862)
(0.236018 0.412004 -0.0111843)
(0.192442 0.363607 -0.0104413)
(0.156428 0.317056 -0.00908715)
(0.125821 0.273114 -0.0070677)
(0.100998 0.233644 -0.00411088)
(0.0821462 0.198195 -0.000419077)
(0.0604238 0.171375 -0.00548981)
(0.0430897 0.143955 -0.0056106)
(0.0315559 0.117126 -0.00412582)
(0.0131541 0.094144 -0.00161595)
(-0.00334837 0.0741411 0.00278628)
(-0.0187099 0.0489717 0.00534753)
(-0.0375075 0.030367 0.00596788)
(-0.0549011 0.0121115 0.00503364)
(-0.0732174 -0.00401485 0.00914843)
(-0.0952101 -0.0189618 0.00817795)
(-0.130086 -0.0372805 0.00474543)
(-0.17024 -0.0639969 0.00430372)
(-0.201448 -0.105241 0.00327745)
(-0.231482 -0.155746 -0.000505285)
(-0.260708 -0.229095 -0.00743947)
(-0.296729 -0.319042 -0.0169437)
(-0.33294 -0.439837 -0.0250991)
(-0.354953 -0.553509 -0.0341633)
(-0.347912 -0.657811 -0.0540528)
(-0.279939 -0.687315 -0.0783944)
(-0.187517 -0.578731 -0.088343)
(-0.0655698 -0.295571 -0.061109)
(0.0107604 -0.00751377 -0.00953588)
(-0.000125115 0.216091 0.00185188)
(0.0373168 0.45867 -0.0346506)
(0.11001 0.583329 -0.0467467)
(0.192926 0.638846 -0.0423173)
(0.262123 0.642565 -0.0334348)
(0.311392 0.622085 -0.0227059)
(0.348064 0.586085 -0.0153139)
(0.371455 0.545714 -0.00715759)
(0.366749 0.504096 -0.00826239)
(0.33107 0.466058 -0.00746181)
(0.287362 0.427457 -0.00694212)
(0.23926 0.387417 -0.00562155)
(0.195146 0.34442 -0.00482978)
(0.157937 0.303203 -0.00354881)
(0.130005 0.261188 -0.00365575)
(0.108777 0.22356 -0.00168454)
(0.0875886 0.186259 -0.00158185)
(0.073241 0.154688 0.000753796)
(0.057401 0.131544 -0.000147824)
(0.0397179 0.105247 -0.00329664)
(0.0278457 0.0842677 -0.00115158)
(0.00816278 0.0614615 0.000180653)
(-0.00685992 0.042798 0.0082435)
(-0.0191111 0.021583 0.00653986)
(-0.0366025 0.0048086 0.00593021)
(-0.0529629 -0.0115727 0.00907115)
(-0.0714335 -0.0285679 0.0102623)
(-0.0969086 -0.0454877 0.00852802)
(-0.135177 -0.0559094 0.00487326)
(-0.177579 -0.0740232 0.00400552)
(-0.228715 -0.1066 0.00485892)
(-0.282919 -0.164928 0.00768344)
(-0.334123 -0.247488 0.00938221)
(-0.354946 -0.367375 0.0056291)
(-0.349598 -0.499445 -0.00397216)
(-0.333425 -0.641694 -0.0178548)
(-0.271473 -0.728765 -0.0371834)
(-0.16286 -0.710571 -0.0588286)
(-0.0332231 -0.446451 -0.0592161)
(0.0202545 -0.0822609 0.00173733)
(-3.20348e-05 0.233587 -0.000123071)
(0.036371 0.451258 -0.0295918)
(0.10374 0.574093 -0.0401386)
(0.180236 0.630469 -0.0378119)
(0.248057 0.635995 -0.0235667)
(0.298955 0.614123 -0.0170282)
(0.340717 0.575627 -0.00772217)
(0.366971 0.535995 -0.00184497)
(0.36352 0.490566 -0.00158131)
(0.330408 0.452192 -0.000894028)
(0.285111 0.412026 -0.000576546)
(0.235774 0.371017 -0.000126036)
(0.193866 0.329835 -0.000152914)
(0.159909 0.29043 -0.000386418)
(0.132184 0.251543 -0.000424969)
(0.110395 0.212518 0.000470518)
(0.0951326 0.175089 0.00148425)
(0.0846879 0.14141 0.00262873)
(0.069511 0.114791 0.00238922)
(0.0572005 0.0923012 0.00468744)
(0.0397142 0.0727217 0.0010159)
(0.0236687 0.0530618 0.000636471)
(0.00906189 0.0349824 0.00458952)
(-0.00757686 0.0180674 0.00593681)
(-0.018586 -0.00309695 0.00682986)
(-0.034046 -0.0194037 0.00817579)
(-0.0512994 -0.0387755 0.00966157)
(-0.0711923 -0.0591738 0.0104326)
(-0.0995478 -0.0767434 0.0102779)
(-0.133317 -0.0947151 0.00849782)
(-0.174736 -0.113312 0.00861469)
(-0.215722 -0.145316 0.008409)
(-0.27172 -0.187459 0.00898716)
(-0.319749 -0.26149 0.00987617)
(-0.351389 -0.366804 0.00733936)
(-0.364887 -0.514857 0.00305009)
(-0.33116 -0.62938 -0.00937456)
(-0.230847 -0.663217 -0.0315653)
(-0.0607103 -0.454777 -0.0459801)
(0.0255984 -0.0487223 -0.0217691)
(0.00658975 0.205832 -9.31898e-05)
(0.0442162 0.403598 -0.0242409)
(0.104666 0.534052 -0.0332876)
(0.178288 0.595409 -0.0324263)
(0.243817 0.611206 -0.0199476)
(0.294202 0.592958 -0.0125615)
(0.337917 0.557138 -0.00324533)
(0.36198 0.513967 0.00191111)
(0.359187 0.464707 0.00269473)
(0.329443 0.422561 0.00292092)
(0.284172 0.381496 0.00351988)
(0.237573 0.343911 0.00408398)
(0.197931 0.307805 0.00373037)
(0.164814 0.272031 0.00348603)
(0.137615 0.235978 0.00274683)
(0.116971 0.200192 0.00299028)
(0.0991603 0.166561 0.00367962)
(0.0927051 0.131664 0.00599804)
(0.084564 0.10472 0.00574699)
(0.0703286 0.0801949 0.00511798)
(0.058333 0.0645031 0.0055829)
(0.0382748 0.0448921 0.00492204)
(0.0250444 0.0294585 0.00378675)
(0.00991855 0.0124132 0.00308435)