/*--------------------------------*- C++ -*----------------------------------*\
| =========                 |                                                 |
| \\      /  F ield         | OpenFOAM: The Open Source CFD Toolbox           |
|  \\    /   O peration     | Version:  v1806                                 |
|   \\  /    A nd           | Web:      www.OpenFOAM.com                      |
|    \\/     M anipulation  |                                                 |
\*---------------------------------------------------------------------------*/
FoamFile
{
    version     2.0;
    format      ascii;
    class       volVectorField;
    location    "0.0355";
    object      U;
}
// * * * * * * * * * * * * * * * * * * * * * * * * * * * * * * * * * * * * * //

dimensions      [0 1 -1 0 0 0 0];


internalField   nonuniform List<vector> 
64000
(
(-0.00594581 -0.00718216 -0.0027926)
(0.0136088 -0.00801923 -0.00106423)
(0.0268874 -0.00480289 0.0020551)
(0.031594 -0.00450037 0.00219434)
(0.026009 -0.00328585 0.00297285)
(0.0220204 -0.00265915 0.00431219)
(0.0209494 -0.0034455 0.00408112)
(0.0166756 -0.0036473 0.0040987)
(0.0143153 -0.0046122 0.00522263)
(0.00814942 -0.00385146 0.00471938)
(0.000317182 -0.0065864 0.00592736)
(-0.0163988 -0.00950114 0.00699643)
(-0.0384154 -0.0140678 0.00672173)
(-0.0655034 -0.0172948 0.00460379)
(-0.100505 -0.0159769 0.0053738)
(-0.135605 -0.0083567 0.0039588)
(-0.176045 0.00398486 0.0033679)
(-0.212233 -0.00128532 0.00331425)
(-0.241201 -0.0102186 0.00503409)
(-0.270826 -0.0248101 -0.011354)
(-0.267242 -0.0329824 -0.0362358)
(-0.14187 -0.0254369 -0.0376647)
(-0.0861245 -0.0191369 -0.033589)
(-0.0966299 -0.00624152 -0.0367092)
(-0.0857366 -0.000804364 -0.0495342)
(-0.0913441 0.0096232 -0.0569598)
(-0.0708619 0.0186473 -0.0629844)
(-0.0460649 0.0309947 -0.0572058)
(-0.0122034 0.0392293 -0.0490694)
(0.0310468 0.0539705 -0.0302318)
(0.0784105 0.0421408 -0.0307381)
(0.110851 0.0349545 -0.0212305)
(0.124871 0.0242035 -0.00927037)
(0.120608 0.0100525 -0.00254891)
(0.104127 0.00219229 0.0032561)
(0.0815783 -0.00569458 0.00544006)
(0.0579087 -0.00832343 0.00796794)
(0.0353341 -0.00676579 0.00883321)
(0.0178601 -0.00510089 0.00885815)
(0.0034103 -0.00366885 0.00715536)
(-0.0041185 -0.00592444 -0.000773135)
(0.0127262 -0.0174627 -0.000711422)
(0.0351133 -0.0148419 0.00067173)
(0.0463083 -0.0110424 -7.12607e-05)
(0.0448702 -0.00566478 0.000651576)
(0.0400536 -0.0016805 -0.000230659)
(0.0374376 0.00266706 -0.00210499)
(0.0295887 0.00511026 -0.00182917)
(0.0219114 0.00973247 -0.00701593)
(0.00396 0.0169848 -0.00395932)
(-0.0220928 0.0242674 -0.00771981)
(-0.0606894 0.0341808 0.000171263)
(-0.10869 0.0474771 -0.0038373)
(-0.161109 0.070004 -0.00619893)
(-0.221292 0.079424 -0.00944816)
(-0.285227 0.0871392 -0.0192642)
(-0.380819 0.0923111 -0.0415086)
(-0.477823 0.0967637 -0.0560612)
(-0.551629 0.100442 -0.074116)
(-0.610433 0.102373 -0.0969576)
(-0.602447 0.114439 -0.114873)
(-0.458369 0.13898 -0.127481)
(-0.38572 0.17156 -0.146327)
(-0.380817 0.207933 -0.150896)
(-0.345369 0.230629 -0.161827)
(-0.316106 0.255283 -0.167346)
(-0.255749 0.273466 -0.169167)
(-0.19036 0.290057 -0.158723)
(-0.110519 0.298041 -0.13703)
(-0.0447671 0.304821 -0.112044)
(0.0218406 0.286766 -0.0743725)
(0.0900923 0.256732 -0.0483757)
(0.122612 0.20302 -0.0384947)
(0.135368 0.156614 -0.0275151)
(0.128282 0.107232 -0.0135037)
(0.106444 0.0669442 -0.00568639)
(0.0842694 0.0392818 -0.00112097)
(0.0579637 0.0245037 0.000281715)
(0.033568 0.0146509 0.00208932)
(0.00948924 0.00560332 0.00402382)
(-0.000151518 -0.0148017 0.00181385)
(0.0174712 -0.0259753 -0.0005362)
(0.0421716 -0.0212536 -0.000826943)
(0.0550534 -0.0102082 -0.00021991)
(0.0513582 0.00135465 -0.00261358)
(0.0442877 0.0160598 -0.00396295)
(0.0355831 0.0298577 -0.00582929)
(0.0198392 0.0447414 -0.00814428)
(0.00420566 0.0696255 -0.00112268)
(-0.0247322 0.0941036 -0.00458344)
(-0.0635271 0.124075 -0.00829255)
(-0.116283 0.156612 -0.0125366)
(-0.174887 0.185125 -0.0168093)
(-0.261275 0.206357 -0.0305744)
(-0.368114 0.224208 -0.0326509)
(-0.46325 0.23662 -0.0432132)
(-0.557822 0.244568 -0.0571983)
(-0.638326 0.268938 -0.0724731)
(-0.703806 0.295763 -0.0899424)
(-0.748517 0.329279 -0.110339)
(-0.726133 0.363456 -0.120353)
(-0.558797 0.393226 -0.121183)
(-0.461229 0.441293 -0.131822)
(-0.445211 0.482142 -0.124343)
(-0.40229 0.51052 -0.125492)
(-0.368924 0.533973 -0.122691)
(-0.309075 0.545187 -0.118594)
(-0.247238 0.547342 -0.106548)
(-0.176415 0.537327 -0.0859564)
(-0.112388 0.516064 -0.0627942)
(-0.0564072 0.493408 -0.0403718)
(-0.0177877 0.446217 -0.0274941)
(0.0178196 0.378112 -0.0117257)
(0.0456583 0.304684 -0.00700512)
(0.0502784 0.229588 -0.0102565)
(0.052569 0.163937 -0.00981276)
(0.0503653 0.112861 -0.00673237)
(0.0403436 0.0750278 -0.0041942)
(0.0276326 0.048349 -0.000418491)
(0.00917652 0.0201669 0.00304541)
(0.000251457 -0.0215998 0.00152048)
(0.019858 -0.0305374 -0.0030199)
(0.0477898 -0.0188253 -0.00192436)
(0.0591441 0.000472881 -0.00463014)
(0.0548032 0.0253687 -0.00577653)
(0.042886 0.0576909 -0.00677314)
(0.02629 0.0937356 -0.00637578)
(0.0095363 0.130387 -0.00373085)
(-0.0147186 0.174867 -0.00878206)
(-0.058942 0.210176 -0.0112674)
(-0.111581 0.24194 -0.0155323)
(-0.18688 0.266266 -0.0220589)
(-0.278954 0.294622 -0.0254238)
(-0.367599 0.309257 -0.027188)
(-0.452772 0.337486 -0.029257)
(-0.533907 0.367498 -0.0389244)
(-0.61461 0.399058 -0.0491482)
(-0.68211 0.432826 -0.0563869)
(-0.731042 0.466961 -0.064005)
(-0.760544 0.508545 -0.0716932)
(-0.725734 0.540036 -0.0647996)
(-0.539171 0.562344 -0.0477252)
(-0.427231 0.595867 -0.0488874)
(-0.411943 0.616047 -0.0316375)
(-0.37375 0.624371 -0.0261026)
(-0.349624 0.627017 -0.0194874)
(-0.303689 0.616462 -0.0161468)
(-0.258719 0.596655 -0.0104028)
(-0.206237 0.570603 0.000281042)
(-0.159165 0.536054 0.0077305)
(-0.123038 0.497571 0.0132171)
(-0.0976173 0.454083 0.0139098)
(-0.0807666 0.410189 0.00915413)
(-0.0578885 0.349246 0.00229391)
(-0.0371465 0.279711 -0.00246721)
(-0.018115 0.204359 -0.00811214)
(0.000214639 0.144123 -0.00941591)
(0.0107436 0.107234 -0.00674495)
(0.017212 0.072551 -0.00263614)
(0.00771745 0.0297545 0.00253837)
(0.00182812 -0.02416 0.000820025)
(0.0256604 -0.0249116 -0.00422831)
(0.0566972 -0.00543113 -0.00216916)
(0.07021 0.0252382 -0.00421912)
(0.0675094 0.0655226 -0.00489712)
(0.0569839 0.116606 -0.0145483)
(0.0336649 0.177934 -0.0113595)
(0.0032738 0.224644 -0.00401495)
(-0.0386317 0.263341 -0.00682665)
(-0.103987 0.294477 -0.00912461)
(-0.172994 0.323526 -0.0124569)
(-0.240008 0.347578 -0.0145891)
(-0.309617 0.381093 -0.0188699)
(-0.386895 0.417099 -0.0192254)
(-0.461338 0.454357 -0.0174291)
(-0.529478 0.489304 -0.0197168)
(-0.592383 0.5245 -0.0189867)
(-0.640879 0.559732 -0.0151289)
(-0.671158 0.595299 -0.0120728)
(-0.689675 0.635299 -0.0188508)
(-0.654424 0.662635 -0.00969316)
(-0.4642 0.674574 0.014441)
(-0.350746 0.682515 0.0176687)
(-0.342117 0.673202 0.0362703)
(-0.317001 0.651575 0.0386824)
(-0.311229 0.628223 0.0454744)
(-0.28774 0.594425 0.0466985)
(-0.26125 0.557192 0.0489421)
(-0.230213 0.516494 0.0435377)
(-0.204971 0.475161 0.036437)
(-0.181855 0.431139 0.0271817)
(-0.165075 0.390739 0.0194063)
(-0.152774 0.356495 0.0131942)
(-0.14464 0.321124 0.00292821)
(-0.139929 0.273651 -0.00896605)
(-0.110119 0.202297 -0.010897)
(-0.0547548 0.153986 -0.0109825)
(-0.016519 0.123994 -0.0099221)
(0.0027014 0.0893651 -0.00418714)
(0.00507685 0.0363887 0.00271975)
(0.005018 -0.0258265 0.000892879)
(0.0330127 -0.0177512 -0.00426876)
(0.0678173 0.0108109 -0.0048842)
(0.0844644 0.0544413 -0.00672258)
(0.0856441 0.102024 -0.00757307)
(0.0781214 0.167747 -0.016122)
(0.0391018 0.216956 -0.00666142)
(-0.0178134 0.264469 0.00104374)
(-0.0709163 0.302187 -0.00322804)
(-0.130806 0.343415 -0.00583673)
(-0.187493 0.385802 -0.00812474)
(-0.246546 0.428167 -0.00829966)
(-0.306188 0.465591 -0.00670195)
(-0.363846 0.499931 -0.00186399)
(-0.419095 0.535088 0.00355289)
(-0.468859 0.569447 0.00696263)
(-0.516143 0.604465 0.00614936)
(-0.552199 0.643683 0.0109418)
(-0.572254 0.682013 0.012255)
(-0.584526 0.715276 0.00964186)
(-0.548836 0.738115 0.0208739)
(-0.370315 0.708415 0.0452789)
(-0.272842 0.666078 0.0488572)
(-0.284066 0.630368 0.0674984)
(-0.276939 0.581817 0.072748)
(-0.288009 0.542073 0.075057)
(-0.283069 0.497546 0.0718802)
(-0.276775 0.45491 0.0681362)
(-0.261771 0.408352 0.0647113)
(-0.250298 0.368666 0.0483555)
(-0.242062 0.328411 0.0372178)
(-0.228787 0.294704 0.0240348)
(-0.21836 0.267759 0.0111907)
(-0.207912 0.243593 0.00497936)
(-0.211262 0.22185 -0.00913768)
(-0.173779 0.187629 -0.0120386)
(-0.0914282 0.155251 -0.013088)
(-0.037462 0.12967 -0.0111155)
(-0.00383818 0.0969486 -0.00593848)
(0.00426486 0.0384987 0.00273545)
(0.00689436 -0.0224559 -0.000499717)
(0.0411724 -0.00337145 -0.0069978)
(0.0849334 0.0329942 -0.00967041)
(0.102445 0.083275 -0.00746085)
(0.107471 0.136946 -0.00913152)
(0.084689 0.201924 -0.00996942)
(0.0317164 0.234142 0.00287477)
(-0.0163703 0.286307 0.00248702)
(-0.0631837 0.339469 -0.000219975)
(-0.114198 0.392758 -0.0021243)
(-0.164099 0.442611 -0.00251304)
(-0.211189 0.486723 -0.000571709)
(-0.258597 0.524765 0.00140374)
(-0.305125 0.561606 0.00953957)
(-0.345629 0.594272 0.0121202)
(-0.381172 0.624354 0.0192199)
(-0.40886 0.650438 0.0256243)
(-0.427479 0.679934 0.0273399)
(-0.444686 0.709148 0.0257382)
(-0.458477 0.726037 0.0212654)
(-0.467002 0.736469 0.0255132)
(-0.345245 0.682991 0.0483863)
(-0.243514 0.586519 0.0481803)
(-0.252079 0.536691 0.0616116)
(-0.259257 0.484333 0.0649296)
(-0.281476 0.446109 0.065728)
(-0.293987 0.407364 0.0621654)
(-0.303239 0.370811 0.0576713)
(-0.301221 0.33293 0.0479004)
(-0.299762 0.298633 0.0365557)
(-0.296815 0.26593 0.0228007)
(-0.286113 0.239494 0.0127945)
(-0.275837 0.219248 0.00187062)
(-0.263768 0.208336 -0.00316523)
(-0.258952 0.200968 -0.0118469)
(-0.21934 0.192436 -0.0191266)
(-0.128757 0.163084 -0.0195087)
(-0.0551735 0.141264 -0.0159437)
(-0.00998419 0.106169 -0.00836676)
(0.00475687 0.0424801 0.00158505)
(0.00822914 -0.0152771 0.000271331)
(0.0467363 0.0197454 -0.0134476)
(0.0976744 0.065617 -0.0145227)
(0.121216 0.117915 -0.00986772)
(0.126668 0.177373 -0.0128065)
(0.0904326 0.225132 -0.00571733)
(0.035928 0.270458 0.00194193)
(0.00470209 0.325227 0.00525358)
(-0.034227 0.375629 0.00272173)
(-0.0779571 0.429814 0.00372653)
(-0.118549 0.474012 0.00563098)
(-0.159507 0.510597 0.0107282)
(-0.193625 0.542363 0.017576)
(-0.223784 0.570923 0.0215833)
(-0.254168 0.593734 0.0262547)
(-0.281406 0.610867 0.0302037)
(-0.304836 0.623183 0.0335188)
(-0.319515 0.632659 0.0336754)
(-0.342506 0.637871 0.0265562)
(-0.367566 0.630577 0.0210557)
(-0.400096 0.620213 0.0174371)
(-0.343192 0.596549 0.0319627)
(-0.257759 0.491533 0.0326388)
(-0.247797 0.436811 0.0384663)
(-0.261154 0.393708 0.0429808)
(-0.290016 0.363248 0.0451983)
(-0.312714 0.334804 0.0453561)
(-0.331951 0.304279 0.0427521)
(-0.338424 0.273453 0.0360771)
(-0.343861 0.241583 0.0173556)
(-0.34635 0.210109 0.0125418)
(-0.336105 0.184888 0.00245523)
(-0.321874 0.169858 -0.00327777)
(-0.303096 0.16597 -0.00798312)
(-0.297226 0.175507 -0.0150282)
(-0.261654 0.191182 -0.0204566)
(-0.162268 0.170459 -0.0219117)
(-0.0725678 0.149631 -0.0178567)
(-0.0144894 0.114803 -0.00969148)
(0.00562874 0.0453412 0.00164953)
(0.00924965 -0.00239819 -0.00348692)
(0.0560708 0.0499298 -0.0204594)
(0.116093 0.104161 -0.0200374)
(0.144791 0.158319 -0.0132976)
(0.141445 0.209558 -0.0137891)
(0.104215 0.250399 -0.00658154)
(0.0637188 0.306371 0.000493519)
(0.0329288 0.361466 0.00638152)
(0.00558137 0.402966 0.0124941)
(-0.0270968 0.443749 0.0123336)
(-0.066899 0.479441 0.0162413)
(-0.0958568 0.507181 0.0221321)
(-0.120613 0.528308 0.0280724)
(-0.14626 0.538992 0.0311217)
(-0.17088 0.542328 0.0326055)
(-0.194763 0.538748 0.0330405)
(-0.216031 0.530553 0.0325635)
(-0.236849 0.52717 0.0284559)
(-0.274115 0.513469 0.0203408)
(-0.311432 0.506251 0.0144365)
(-0.348443 0.494053 0.00893982)
(-0.342899 0.497137 0.013857)
(-0.294043 0.430104 0.0182264)
(-0.265509 0.37139 0.0174488)
(-0.27369 0.330995 0.0207887)
(-0.303251 0.307621 0.025775)
(-0.333735 0.285355 0.0289477)
(-0.360652 0.257793 0.031723)
(-0.374651 0.230332 0.0218426)
(-0.387567 0.194867 0.0107426)
(-0.391323 0.168945 0.000936052)
(-0.379046 0.146749 -0.00404363)
(-0.361701 0.132083 -0.0109467)
(-0.335112 0.134957 -0.0159956)
(-0.309899 0.142117 -0.0183039)
(-0.283643 0.178583 -0.0246352)
(-0.196952 0.172976 -0.0252702)
(-0.0902167 0.158733 -0.0233177)
(-0.0194934 0.124457 -0.0123078)
(0.00580707 0.0508182 0.000205294)
(0.00784993 0.0161845 -0.0088254)
(0.0601205 0.0908817 -0.0288837)
(0.131529 0.150069 -0.0283693)
(0.160371 0.197912 -0.0163548)
(0.156157 0.239291 -0.0164517)
(0.130274 0.281451 -0.00803079)
(0.101123 0.335602 -0.00283877)
(0.0727122 0.381916 0.0129709)
(0.0411371 0.420068 0.0188592)
(0.0174172 0.44637 0.0265693)
(-0.00748703 0.466991 0.0266943)
(-0.0348794 0.48035 0.0335492)
(-0.0584867 0.484864 0.0385221)
(-0.0813837 0.477874 0.0393624)
(-0.106929 0.462705 0.0365853)
(-0.133955 0.440694 0.0319812)
(-0.155137 0.415076 0.0271014)
(-0.182499 0.400486 0.0171746)
(-0.222516 0.378179 0.0117373)
(-0.263316 0.384037 0.00660812)
(-0.305034 0.397023 0.00469418)
(-0.324826 0.416625 0.00589918)
(-0.320641 0.397631 0.00828259)
(-0.300686 0.345336 0.00752388)
(-0.292003 0.291937 0.00718842)
(-0.312854 0.269944 0.0138584)
(-0.346779 0.245755 0.0202016)
(-0.37808 0.223512 0.0240981)
(-0.399983 0.191612 0.0199104)
(-0.413263 0.160911 0.00818375)
(-0.416299 0.131629 0.0120649)
(-0.412406 0.110054 0.0173145)
(-0.392602 0.0913245 0.016324)
(-0.369062 0.0911587 0.00882834)
(-0.337134 0.105933 -0.0109637)
(-0.302663 0.141884 -0.022666)
(-0.220752 0.170658 -0.0237258)
(-0.106546 0.158502 -0.0216922)
(-0.0244183 0.132446 -0.0124456)
(0.00678986 0.0540856 0.000771783)
(0.00892486 0.0333607 -0.0112385)
(0.0678616 0.131999 -0.0346949)
(0.143331 0.194275 -0.0324801)
(0.174713 0.233693 -0.0188326)
(0.176139 0.272393 -0.0148533)
(0.162112 0.311179 -0.0105406)
(0.140019 0.355839 -0.00115375)
(0.112171 0.390806 0.00733074)
(0.0875342 0.420167 0.0149495)
(0.0613968 0.440347 0.0305433)
(0.0342894 0.447703 0.0378226)
(0.0160144 0.44676 0.0458651)
(-0.00504585 0.433371 0.0474345)
(-0.0325549 0.410319 0.045106)
(-0.0621248 0.385973 0.0372036)
(-0.0949508 0.353185 0.0275086)
(-0.117188 0.32399 0.0189774)
(-0.149796 0.301301 0.00435128)
(-0.185043 0.28134 0.00333486)
(-0.206951 0.299039 0.00377922)
(-0.248174 0.336392 0.00423882)
(-0.290078 0.367434 0.0055986)
(-0.323642 0.369952 0.00478618)
(-0.3347 0.338611 0.00363542)
(-0.31544 0.28175 0.00151806)
(-0.316572 0.238524 0.00534315)
(-0.348185 0.216584 0.0112428)
(-0.384194 0.188838 0.0156307)
(-0.411284 0.161836 0.0106417)
(-0.430573 0.127424 0.0279559)
(-0.441434 0.0923979 0.0301606)
(-0.441752 0.0620127 0.0199639)
(-0.429381 0.0498566 0.0134751)
(-0.39537 0.0450704 0.00943434)
(-0.351534 0.0619017 0.00147327)
(-0.308944 0.0940966 -0.0170716)
(-0.238287 0.146921 -0.0273709)
(-0.126238 0.156454 -0.0224866)
(-0.0273494 0.136033 -0.0147718)
(0.00478277 0.0584854 -7.08616e-06)
(0.00832026 0.0553159 -0.0128206)
(0.0694905 0.17497 -0.0390688)
(0.149361 0.238058 -0.0367721)
(0.187977 0.272896 -0.0209085)
(0.19968 0.305391 -0.0122386)
(0.192942 0.337323 -0.00591332)
(0.175664 0.368991 -0.00497507)
(0.150731 0.392573 0.00949342)
(0.126 0.410894 0.0139093)
(0.103625 0.420417 0.0259696)
(0.0812935 0.422761 0.034997)
(0.0548549 0.412621 0.051607)
(0.0274008 0.388183 0.0531758)
(0.00552531 0.354565 0.0510332)
(-0.0276041 0.322246 0.0344571)
(-0.0663863 0.28946 0.0217225)
(-0.0922911 0.266451 0.009259)
(-0.127965 0.235179 -0.0056499)
(-0.145652 0.237692 -0.00102113)
(-0.144943 0.255898 0.0019277)
(-0.183807 0.281807 0.00448414)
(-0.244457 0.314597 0.00674559)
(-0.303624 0.331032 0.00653755)
(-0.339952 0.317151 0.00332763)
(-0.339605 0.275774 0.00145198)
(-0.321342 0.208892 0.00180119)
(-0.336914 0.1778 0.00656816)
(-0.372801 0.151619 0.00769845)
(-0.404778 0.123382 0.0274177)
(-0.436071 0.0883961 0.0381133)
(-0.453499 0.053583 0.0414888)
(-0.452899 0.0267989 0.0532586)
(-0.442723 0.00221938 0.0433163)
(-0.427842 -0.00361244 0.0328161)
(-0.389968 0.00798825 0.0241941)
(-0.330325 0.048974 0.00246351)
(-0.244971 0.0995344 -0.0237341)
(-0.136693 0.144957 -0.0238067)
(-0.0334301 0.133171 -0.0142065)
(0.00661049 0.0615905 -0.000620713)
(0.00696822 0.0686037 -0.0138768)
(0.0691963 0.209754 -0.0435222)
(0.153307 0.278009 -0.0420948)
(0.200393 0.30912 -0.0235295)
(0.221185 0.332675 -0.00939876)
(0.22085 0.35268 -0.000668997)
(0.205569 0.375492 0.00348528)
(0.182301 0.388162 0.00587926)
(0.163709 0.399411 0.0127531)
(0.143056 0.401699 0.0252718)
(0.11761 0.394224 0.0325778)
(0.0912912 0.377141 0.0399905)
(0.0595454 0.350232 0.0490897)
(0.0284861 0.316807 0.0475755)
(-0.00374358 0.275168 0.0310039)
(-0.0386579 0.249908 0.0143226)
(-0.0758904 0.228828 -0.00143336)
(-0.0987738 0.208613 -0.00769639)
(-0.0983147 0.225283 -0.00423362)
(-0.104444 0.228803 0.000847939)
(-0.133105 0.22965 0.00980546)
(-0.182787 0.243419 0.0134703)
(-0.257941 0.271617 0.0101343)
(-0.319495 0.276157 0.00661737)
(-0.346479 0.253186 0.00339233)
(-0.330873 0.20019 0.00346812)
(-0.316305 0.138292 0.00494416)
(-0.347607 0.114715 0.0126822)
(-0.385801 0.0792859 0.0263557)
(-0.421088 0.0472744 0.0363617)
(-0.441584 0.0152349 0.0592981)
(-0.462945 -0.024506 0.0447134)
(-0.470854 -0.0669667 0.0347888)
(-0.449401 -0.0888782 0.0182996)
(-0.407183 -0.076931 0.00365209)
(-0.355162 -0.0272683 0.0127459)
(-0.267111 0.0516574 -0.00293059)
(-0.146211 0.112655 -0.0310356)
(-0.0385658 0.126997 -0.0141428)
(0.0071165 0.0613849 -0.00233338)
(0.00573799 0.0832671 -0.0135548)
(0.0686436 0.242903 -0.0465094)
(0.15601 0.315469 -0.0473839)
(0.209156 0.34281 -0.0275209)
(0.237145 0.356889 -0.00832574)
(0.244727 0.365159 0.00467927)
(0.233878 0.37495 0.00965813)
(0.213454 0.383357 0.0137092)
(0.196767 0.388324 0.0154236)
(0.175416 0.383193 0.0190225)
(0.15257 0.369653 0.019333)
(0.121728 0.347722 0.031131)
(0.0864317 0.317317 0.0296197)
(0.0495872 0.286834 0.0331839)
(0.0167628 0.251286 0.0231753)
(-0.0143635 0.223006 0.00479698)
(-0.0496708 0.207883 -0.00860001)
(-0.0595933 0.210158 -0.00817245)
(-0.0602303 0.214976 -0.00535618)
(-0.0755143 0.206126 0.0024894)
(-0.100574 0.195603 0.0145372)
(-0.128207 0.190061 0.0230112)
(-0.189077 0.198759 0.0192914)
(-0.268297 0.225296 0.00954827)
(-0.31726 0.215165 0.00574291)
(-0.33004 0.193852 0.00534782)
(-0.308995 0.124944 0.0073203)
(-0.313195 0.0795135 0.0155538)
(-0.353393 0.0455098 0.0283191)
(-0.385924 0.00946168 0.0482038)
(-0.427645 -0.0350389 0.0383765)
(-0.46704 -0.0917931 0.0335038)
(-0.482316 -0.137456 0.0227925)
(-0.471427 -0.170482 0.0117422)
(-0.429218 -0.174218 -0.00202355)
(-0.359499 -0.132069 -0.00746043)
(-0.274227 -0.0319034 0.00124628)
(-0.163845 0.0694561 -0.0164675)
(-0.0425503 0.115979 -0.018342)
(0.00642596 0.0633894 -0.00221156)
(0.00264542 0.0787428 -0.0139753)
(0.0635207 0.256978 -0.0472)
(0.154037 0.334921 -0.0487994)
(0.214522 0.360242 -0.028428)
(0.249374 0.366408 -0.00788939)
(0.260412 0.365962 0.00622971)
(0.257246 0.367669 0.0123143)
(0.242591 0.371482 0.015379)
(0.226257 0.372709 0.0170854)
(0.204969 0.365327 0.0177576)
(0.179577 0.350708 0.016288)
(0.148446 0.323039 0.014163)
(0.113016 0.291219 0.00981786)
(0.0739289 0.258459 0.0138036)
(0.0346071 0.237312 0.00836111)
(0.00790364 0.227001 -0.00295475)
(-0.00998052 0.224297 -0.0080765)
(-0.0198007 0.235281 -0.0048017)
(-0.0312966 0.222652 -3.29007e-05)
(-0.0489086 0.206874 0.00829798)
(-0.0684356 0.186824 0.0162945)
(-0.0926276 0.170664 0.0210416)
(-0.128279 0.152452 0.0264634)
(-0.201517 0.168361 0.0137458)
(-0.267972 0.170568 0.0093637)
(-0.302292 0.158538 0.0117827)
(-0.303172 0.121552 0.0125584)
(-0.290752 0.052416 0.0198653)
(-0.312874 0.0116045 0.0315054)
(-0.357549 -0.0314767 0.0297855)
(-0.406009 -0.0898483 0.0298349)
(-0.44844 -0.143901 0.0238027)
(-0.474568 -0.200085 0.0149667)
(-0.475418 -0.243058 0.00225996)
(-0.441102 -0.262186 -0.0117553)
(-0.373839 -0.229897 -0.018085)
(-0.276846 -0.14331 -0.0206579)
(-0.162465 0.00173394 -4.80016e-05)
(-0.0482776 0.0855386 -0.0271145)
(0.00522883 0.0601359 -0.00493178)
(0.00356731 0.0962636 -0.00722624)
(0.0629016 0.282213 -0.0439035)
(0.152305 0.363322 -0.0467293)
(0.217228 0.384737 -0.0270416)
(0.258587 0.382478 -0.00398135)
(0.279487 0.375501 0.00723037)
(0.283228 0.370725 0.0124559)
(0.272448 0.367015 0.013645)
(0.257624 0.361081 0.0117301)
(0.235728 0.346037 0.00956498)
(0.206843 0.325752 0.00596648)
(0.168735 0.303926 0.00493803)
(0.131393 0.287546 0.00242051)
(0.100862 0.277484 0.00466334)
(0.0813869 0.276256 -0.00190661)
(0.0584541 0.275085 -0.00740452)
(0.0366294 0.271095 -0.00561022)
(0.0140111 0.263935 -0.00445479)
(-0.011298 0.244789 0.00358406)
(-0.0291576 0.218882 0.00935249)
(-0.0491346 0.192358 0.0145329)
(-0.0698648 0.166386 0.0170506)
(-0.0930954 0.14053 0.022802)
(-0.146515 0.126919 0.0188986)
(-0.216454 0.132917 0.00923558)
(-0.259658 0.11955 0.00369243)
(-0.28583 0.104247 -8.36426e-05)
(-0.282518 0.055434 0.00703086)
(-0.283989 -0.00654621 0.00955228)
(-0.324314 -0.0657841 0.0168745)
(-0.371712 -0.123076 0.0182919)
(-0.417493 -0.187112 0.0156879)
(-0.451776 -0.251131 0.00939177)
(-0.464398 -0.306534 -0.00170918)
(-0.439877 -0.340269 -0.0161546)
(-0.379775 -0.327119 -0.0312848)
(-0.280236 -0.244774 -0.0369781)
(-0.167853 -0.08969 -0.023246)
(-0.0506994 0.0471551 -0.0181343)
(0.00874706 0.0574084 -0.0101108)
(-0.00689389 0.0858708 -0.0201151)
(0.0451704 0.282968 -0.0507528)
(0.139699 0.372944 -0.0540682)
(0.211962 0.395743 -0.0346636)
(0.264312 0.391726 -0.00959363)
(0.293137 0.378134 -0.000288337)
(0.302673 0.363743 0.00661319)
(0.294063 0.351483 0.00628126)
(0.27567 0.350585 0.00453368)
(0.252362 0.356067 0.00346737)
(0.232583 0.363149 0.00339177)
(0.213707 0.364381 0.00281711)
(0.191564 0.359449 0.00106449)
(0.16237 0.348388 0.0035259)
(0.123887 0.334749 -0.00487704)
(0.086728 0.312765 -0.0109448)
(0.0578009 0.288648 -0.0092603)
(0.0326401 0.262659 -0.00544402)
(0.00516578 0.240157 -7.11342e-05)
(-0.0160694 0.209714 0.00793266)
(-0.0319988 0.181445 0.0117409)
(-0.0525421 0.154355 0.013905)
(-0.0727911 0.127983 0.0179993)
(-0.110434 0.10389 0.0202163)
(-0.17158 0.0977623 0.0103503)
(-0.21957 0.085606 0.0039536)
(-0.245331 0.0711774 -0.000458007)
(-0.266723 0.0510517 0.00037642)
(-0.283929 -0.00336833 -0.00135703)
(-0.306142 -0.067343 0.000248479)
(-0.345213 -0.131613 0.0050659)
(-0.387542 -0.198719 0.00801925)
(-0.417691 -0.276229 0.00433)
(-0.434518 -0.354384 -0.00547711)
(-0.421892 -0.409236 -0.0200059)
(-0.369975 -0.416638 -0.0374773)
(-0.276873 -0.352652 -0.0576203)
(-0.165831 -0.203723 -0.0441777)
(-0.0469247 -0.00608984 -0.010617)
(0.00947005 0.0472019 -0.01114)
(-0.00515958 0.169332 -0.0132275)
(0.0448183 0.372431 -0.0373138)
(0.134575 0.466864 -0.0440855)
(0.209939 0.48829 -0.0267009)
(0.267705 0.478994 -0.00892453)
(0.302572 0.456748 0.00154625)
(0.317749 0.433803 0.00751689)
(0.325651 0.43508 0.0101559)
(0.336012 0.454995 0.00664147)
(0.331642 0.466956 0.00154645)
(0.307656 0.469215 -0.00403723)
(0.263728 0.451871 -0.00688061)
(0.215285 0.421881 -0.00643023)
(0.17188 0.378888 -0.0035624)
(0.135214 0.339197 -4.14413e-05)
(0.0961338 0.305013 -0.00651208)
(0.0670202 0.278319 -0.00727373)
(0.0463766 0.243035 -0.00487016)
(0.0184847 0.216441 -0.00117347)
(-0.00318797 0.189529 0.00644875)
(-0.0184828 0.158202 0.0108983)
(-0.0363204 0.131957 0.0127419)
(-0.0554348 0.107013 0.0150925)
(-0.0863656 0.083071 0.0174693)
(-0.140732 0.069052 0.00712612)
(-0.185837 0.0548539 2.56911e-05)
(-0.210029 0.0435266 0.00244883)
(-0.233335 0.0260882 0.00361567)
(-0.261877 -0.00235731 0.000907849)
(-0.291456 -0.0492826 -0.00266235)
(-0.319107 -0.120297 -0.00983763)
(-0.362074 -0.20678 -0.0129381)
(-0.404312 -0.284502 -0.0103042)
(-0.420529 -0.357871 -0.0123306)
(-0.40097 -0.427035 -0.023764)
(-0.356157 -0.464519 -0.0491126)
(-0.277618 -0.437114 -0.0704411)
(-0.161475 -0.288596 -0.0642002)
(-0.03748 -0.0862281 -0.0321499)
(0.0100601 0.0373239 -0.00916551)
(-0.0197914 0.287697 -0.0288997)
(0.0190968 0.516179 -0.0461626)
(0.111927 0.620261 -0.0527904)
(0.191107 0.652927 -0.0358651)
(0.258545 0.645087 -0.0214214)
(0.302118 0.621364 -0.00905339)
(0.346657 0.588715 0.000698368)
(0.385671 0.578603 -0.000725197)
(0.38221 0.570693 -0.00447123)
(0.347711 0.544572 -0.00746517)
(0.306402 0.505464 -0.00795351)
(0.261534 0.45814 -0.00772645)
(0.215538 0.411868 -0.00632259)
(0.173488 0.364926 -0.00224086)
(0.138191 0.32359 -0.00030948)
(0.109533 0.283254 0.00407395)
(0.0772934 0.255999 -0.00277498)
(0.0518326 0.224874 -0.00366896)
(0.0333841 0.192878 -0.000553475)
(0.00746757 0.167488 0.00299821)
(-0.00831259 0.138232 0.0105628)
(-0.022907 0.111404 0.0116011)
(-0.0408453 0.0866033 0.0135162)
(-0.0663548 0.0639594 0.0157949)
(-0.114924 0.0448585 0.0056324)
(-0.154829 0.0335119 0.00495913)
(-0.175412 0.0227366 0.00522258)
(-0.201438 0.00664803 0.00623153)
(-0.230529 -0.0107776 0.00715192)
(-0.273571 -0.036921 0.00379651)
(-0.324619 -0.0875213 0.00363742)
(-0.345924 -0.165102 -0.000598268)
(-0.347724 -0.272171 -0.0193743)
(-0.366716 -0.402553 -0.0382909)
(-0.375692 -0.50571 -0.0573175)
(-0.35379 -0.578926 -0.0805637)
(-0.27092 -0.569037 -0.0946729)
(-0.180548 -0.433829 -0.0987836)
(-0.0574083 -0.166645 -0.054557)
(0.0209559 0.0268082 -0.0151067)
(-0.00380912 0.278836 -0.0037671)
(0.0361546 0.525607 -0.0383029)
(0.116642 0.644168 -0.0483658)
(0.196294 0.693326 -0.0402163)
(0.262479 0.692989 -0.0292163)
(0.305501 0.670445 -0.0188706)
(0.345164 0.636912 -0.00911791)
(0.380201 0.597078 -0.00462193)
(0.378773 0.558731 -0.00427777)
(0.348028 0.520715 -0.0030218)
(0.307905 0.481859 -0.00249343)
(0.261279 0.438837 -0.00198945)
(0.215102 0.39224 -0.000638595)
(0.175217 0.346445 7.06076e-05)
(0.14145 0.302499 0.00209096)
(0.112452 0.263603 0.00363185)
(0.0903469 0.228116 0.00762256)
(0.0639138 0.20148 0.0014938)
(0.0406843 0.173116 -0.00037802)
(0.0204343 0.145065 0.00307525)
(0.00209582 0.121393 0.00813814)
(-0.0126457 0.0929207 0.0106578)
(-0.0281006 0.0696871 0.0118801)
(-0.0526443 0.0464109 0.0143829)
(-0.0933359 0.0251296 0.00472162)
(-0.125528 0.0160531 0.00787611)
(-0.147171 0.0020488 0.00897167)
(-0.165999 -0.0100631 0.0124083)
(-0.188236 -0.0225076 0.0110587)
(-0.228424 -0.0414458 0.00862004)
(-0.280997 -0.0641513 0.00645046)
(-0.346321 -0.107348 0.00292105)
(-0.408841 -0.19201 0.00270342)
(-0.409785 -0.323421 -0.00301042)
(-0.36934 -0.462467 -0.0196996)
(-0.324398 -0.586508 -0.0382125)
(-0.246273 -0.645579 -0.0707308)
(-0.130632 -0.574193 -0.078536)
(-0.0184283 -0.299202 -0.0763214)
(0.0181321 -0.0072272 -0.00754191)
(0.00138877 0.282975 -0.000188269)
(0.0392415 0.507258 -0.0323014)
(0.111896 0.62768 -0.040662)
(0.189682 0.677873 -0.0353021)
(0.255562 0.677897 -0.0202976)
(0.303475 0.653149 -0.0128377)
(0.346267 0.619246 -0.0023624)
(0.382129 0.578441 0.000289992)
(0.381941 0.537743 0.000455205)
(0.349821 0.499923 0.00142771)
(0.30771 0.459373 0.00204807)
(0.259472 0.416291 0.00272952)
(0.213121 0.369157 0.00369615)
(0.173507 0.323596 0.00509186)
(0.142928 0.279197 0.00549961)
(0.119811 0.239705 0.00687232)
(0.0970684 0.203716 0.00735467)
(0.0766994 0.171929 0.0081258)
(0.0547817 0.14718 0.00799331)
(0.0311485 0.122792 0.00247947)
(0.0126665 0.101688 0.00737967)
(-0.00322813 0.0772102 0.00936243)
(-0.0167871 0.0534405 0.0109352)
(-0.0398823 0.0290848 0.0103665)
(-0.0722015 0.0124703 0.00798368)
(-0.101062 0.00156919 0.00961356)
(-0.118219 -0.0093457 0.01211)
(-0.13296 -0.0199375 0.0131981)
(-0.154474 -0.035343 0.0144806)
(-0.186401 -0.0540031 0.0139111)
(-0.232435 -0.0761815 0.0126696)
(-0.28282 -0.107966 0.0112344)
(-0.337748 -0.14635 0.00552841)
(-0.382343 -0.207002 -0.00151542)
(-0.39132 -0.310073 -0.00975932)
(-0.375377 -0.440012 -0.0186698)
(-0.30314 -0.540541 -0.0318192)
(-0.184737 -0.533953 -0.0563515)
(-0.0262503 -0.316957 -0.0556155)
(0.0432605 0.0363067 -0.0263783)
(0.00535776 0.269032 0.00509892)
(0.0439321 0.47925 -0.0243483)
(0.111172 0.602663 -0.0328569)
(0.185236 0.658472 -0.0304763)
(0.249774 0.665542 -0.0141987)
(0.299124 0.641924 -0.00890273)
(0.341157 0.606167 9.63395e-05)
(0.373228 0.561905 0.00316179)
(0.375764 0.512539 0.00319645)
(0.347153 0.471434 0.00427639)
(0.304997 0.429269 0.00515956)
(0.255722 0.38561 0.00639979)
(0.209913 0.34032 0.00852764)
(0.173456 0.297332 0.0102513)
(0.144608 0.256801 0.0119464)
(0.121949 0.219072 0.0135295)
(0.104995 0.182817 0.014634)
(0.0869608 0.153431 0.0143467)
(0.0681787 0.125272 0.013762)
(0.0486291 0.105042 0.0137032)
(0.0275946 0.0828476 0.00737071)
(0.00829633 0.0627524 0.00900994)
(-0.00798787 0.0388489 0.011753)
(-0.0250818 0.0179905 0.00983892)
(-0.0507109 0.00030032 0.00862379)
(-0.0739814 -0.00889158 0.0106035)
(-0.0898513 -0.0186837 0.0108569)
(-0.104808 -0.0317383 0.0124132)
(-0.122278 -0.048247 0.0139031)
(-0.149997 -0.0687735 0.0151566)
(-0.187785 -0.0924757 0.0165937)
(-0.231381 -0.12394 0.0166591)
(-0.280343 -0.166676 0.0177655)
(-0.310049 -0.225605 0.0173818)
(-0.32912 -0.304989 0.011788)
(-0.343785 -0.421491 0.00315024)
(-0.319787 -0.513261 -0.0137054)
(-0.22809 -0.536178 -0.0372759)
(-0.0670986 -0.329969 -0.0497456)
(0.0226925 0.0479556 -0.0136278)
(0.00937437 0.24632 0.00137669)
(0.0482 0.432798 -0.0200341)
(0.10933 0.562068 -0.0277573)
(0.181964 0.620849 -0.0264631)
(0.245181 0.634967 -0.0142908)
(0.294109 0.614049 -0.00648054)
(0.337446 0.577768 0.00132115)
(0.3653 0.533952 0.00483561)
(0.368261 0.482528 0.00548551)
(0.343646 0.438015 0.00638599)
(0.300826 0.393945 0.00793699)
(0.252523 0.351301 0.0104787)
(0.209825 0.3101 0.0134986)
(0.176557 0.271324 0.0158909)
(0.151205 0.234717 0.0149008)
(0.131007 0.199828 0.0141018)
(0.114429 0.166368 0.0138384)
(0.0992797 0.13274 0.0132185)
(0.0831703 0.0963156 0.0123286)
(0.0621448 0.0790774 0.0100913)
(0.0409336 0.0645443 0.0120564)
(0.0213257 0.0478178 0.00856793)
(0.00598139 0.0293075 0.0115962)
(-0.0108273 0.0100818 0.00917997)
(-0.030324 -0.00695331 0.0100327)
(-0.0486751 -0.01588 0.00987165)