/*--------------------------------*- C++ -*----------------------------------*\
| =========                 |                                                 |
| \\      /  F ield         | OpenFOAM: The Open Source CFD Toolbox           |
|  \\    /   O peration     | Version:  v1806                                 |
|   \\  /    A nd           | Web:      www.OpenFOAM.com                      |
|    \\/     M anipulation  |                                                 |
\*---------------------------------------------------------------------------*/
FoamFile
{
    version     2.0;
    format      ascii;
    class       volVectorField;
    location    "0.1395";
    object      U;
}
// * * * * * * * * * * * * * * * * * * * * * * * * * * * * * * * * * * * * * //

dimensions      [0 1 -1 0 0 0 0];


internalField   nonuniform List<vector> 
64000
(
(-0.0179404 -0.000909416 -0.0110863)
(-0.00174135 -0.000740301 -0.0105411)
(-0.00431764 0.00775843 -0.00223479)
(-0.00873024 0.00883848 -0.00141647)
(-0.0155323 0.00854313 -0.00154889)
(-0.0226648 0.00774474 -0.00146878)
(-0.0316472 0.00623216 -0.00181382)
(-0.0443042 0.00577952 -0.000563797)
(-0.0572432 0.00431049 -0.000236843)
(-0.0723213 0.00288593 0.000115597)
(-0.0860126 0.000100627 0.000577641)
(-0.104594 -0.00350152 0.000506558)
(-0.121906 -0.00809008 0.000141942)
(-0.146709 -0.0118997 -0.000285088)
(-0.167532 -0.0111822 -0.000708711)
(-0.203629 -0.0087299 -0.000887891)
(-0.219172 -0.00235219 -0.00151795)
(-0.254407 -0.00997909 -0.00449864)
(-0.239202 -0.0133877 0.00244645)
(-0.301461 -0.0334608 -0.0223333)
(-0.242748 -0.0152889 -0.0118335)
(-0.141922 -0.0205486 -0.033084)
(-0.164307 -0.00411374 -0.0182169)
(-0.157566 -0.00510183 -0.0374594)
(-0.179008 0.00130864 -0.0476526)
(-0.162156 0.00907398 -0.058607)
(-0.144776 0.0199905 -0.0623684)
(-0.0974891 0.0315213 -0.0592489)
(-0.0571596 0.0379438 -0.0563663)
(-0.00694423 0.0512267 -0.0413386)
(0.0408423 0.046017 -0.0360697)
(0.0846912 0.0392927 -0.0266689)
(0.103705 0.0283407 -0.0143109)
(0.106717 0.0144784 -0.00688576)
(0.0940066 0.00586185 0.00241372)
(0.075367 -0.0011855 0.00311295)
(0.0569752 -0.00538981 0.0055485)
(0.0358137 -0.00488847 0.00607154)
(0.0196069 -0.00326876 0.00554876)
(0.00368631 -0.00178381 0.00343903)
(-0.0155664 0.0411656 -0.00878665)
(-0.0113134 0.0218947 -0.00803346)
(-0.0059054 0.0258974 -0.00433659)
(-0.00519543 0.0277422 -0.00348197)
(-0.00748366 0.0301422 -0.00431942)
(-0.0137709 0.0317288 -0.00509555)
(-0.0232322 0.0346083 -0.00637215)
(-0.039949 0.0359993 -0.00602736)
(-0.0606394 0.0379173 -0.00770063)
(-0.0883306 0.0395677 -0.00770998)
(-0.119241 0.0448925 -0.00439076)
(-0.160526 0.0526896 -0.00387818)
(-0.204211 0.0614371 -0.0072164)
(-0.255214 0.0674073 -0.0100753)
(-0.304573 0.0765387 -0.0175702)
(-0.372929 0.0801268 -0.0280297)
(-0.4412 0.0851752 -0.0479068)
(-0.523126 0.0818138 -0.0631731)
(-0.553876 0.0889251 -0.0804134)
(-0.631183 0.0872147 -0.0948732)
(-0.542532 0.126207 -0.0833743)
(-0.423476 0.144833 -0.122717)
(-0.430435 0.188292 -0.125239)
(-0.409306 0.20489 -0.141787)
(-0.402719 0.227602 -0.153711)
(-0.352483 0.24805 -0.162101)
(-0.299889 0.269398 -0.163585)
(-0.218932 0.2851 -0.153132)
(-0.139523 0.292238 -0.1329)
(-0.0633119 0.29613 -0.111417)
(0.00370929 0.283782 -0.0725471)
(0.0759891 0.253544 -0.0497528)
(0.112975 0.203468 -0.0395477)
(0.132154 0.154363 -0.0263473)
(0.128832 0.105845 -0.0115327)
(0.108919 0.0677271 -0.00472093)
(0.088376 0.0408191 -0.000156813)
(0.0621915 0.0268393 0.000928494)
(0.037235 0.0177754 0.00181349)
(0.00950838 0.0107831 0.00217145)
(-0.00678553 0.0632033 -0.00171195)
(-0.00555157 0.0452358 -0.00504021)
(-0.00190755 0.0472027 -0.00581927)
(-0.000200034 0.0539146 -0.00648831)
(-0.00384282 0.0627075 -0.00771686)
(-0.0119978 0.0729384 -0.00896929)
(-0.0277043 0.0852082 -0.00975968)
(-0.0542262 0.0973196 -0.00622819)
(-0.0860774 0.112091 -0.00561561)
(-0.124889 0.130183 -0.00893886)
(-0.166258 0.151819 -0.0121849)
(-0.223373 0.173496 -0.0194941)
(-0.290729 0.199092 -0.0268482)
(-0.37126 0.219871 -0.0342046)
(-0.450104 0.230681 -0.0402079)
(-0.543841 0.234048 -0.0476944)
(-0.613109 0.244019 -0.0658791)
(-0.68678 0.257473 -0.0860335)
(-0.713054 0.288043 -0.103903)
(-0.775347 0.322566 -0.115372)
(-0.664941 0.359014 -0.095074)
(-0.521519 0.404079 -0.124348)
(-0.509602 0.453466 -0.116843)
(-0.475149 0.480211 -0.12117)
(-0.460024 0.509386 -0.126101)
(-0.403486 0.527881 -0.126496)
(-0.350811 0.541355 -0.121578)
(-0.273919 0.542186 -0.105936)
(-0.205615 0.533095 -0.0834578)
(-0.132591 0.510011 -0.0601564)
(-0.0754125 0.48347 -0.0401388)
(-0.0289123 0.433573 -0.0287491)
(0.0093491 0.364859 -0.0134007)
(0.0419412 0.292459 -0.0101234)
(0.0550576 0.218936 -0.0109658)
(0.0601586 0.157416 -0.0102201)
(0.0598119 0.11072 -0.00562774)
(0.0478565 0.079276 -0.00360447)
(0.0334522 0.054714 -0.000425386)
(0.0103235 0.0311464 0.00170724)
(-0.00535454 0.0850255 -0.00207979)
(-0.00447651 0.0704965 -0.00667445)
(-0.000258424 0.0778181 -0.00946084)
(-0.000650117 0.0930462 -0.00998831)
(-0.00618562 0.11218 -0.0113825)
(-0.0187076 0.136024 -0.0102606)
(-0.0410545 0.164653 -0.0104243)
(-0.0761257 0.194878 -0.0107309)
(-0.117751 0.225951 -0.0143532)
(-0.169619 0.2592 -0.0189651)
(-0.230419 0.291707 -0.0242133)
(-0.301799 0.321037 -0.028117)
(-0.378946 0.342822 -0.0316782)
(-0.468794 0.356942 -0.0329279)
(-0.54687 0.368467 -0.0365433)
(-0.620939 0.382704 -0.0427738)
(-0.676774 0.407206 -0.0600014)
(-0.737777 0.429574 -0.0712625)
(-0.750657 0.472887 -0.0821567)
(-0.801103 0.51583 -0.0780829)
(-0.671177 0.540217 -0.0342832)
(-0.5079 0.578926 -0.0469504)
(-0.487117 0.609303 -0.0318527)
(-0.450723 0.612374 -0.0291865)
(-0.436394 0.623352 -0.0281499)
(-0.38832 0.61972 -0.0250478)
(-0.34648 0.610903 -0.0210144)
(-0.2862 0.588921 -0.0127465)
(-0.234685 0.561154 -0.00143136)
(-0.181486 0.524853 0.00526806)
(-0.147176 0.482505 0.0099908)
(-0.113949 0.437481 0.00845547)
(-0.0885022 0.386204 0.00253169)
(-0.0569163 0.324648 -0.00446453)
(-0.0287923 0.258317 -0.00834924)
(-0.0052506 0.196025 -0.00879384)
(0.0164298 0.145664 -0.00934148)
(0.0239792 0.114777 -0.00689988)
(0.0243914 0.0807426 -0.00283723)
(0.00908984 0.0453082 0.00111992)
(-0.00503565 0.113731 -0.00537384)
(-0.00247644 0.106285 -0.0122139)
(0.00507955 0.120407 -0.0149235)
(0.00463099 0.147278 -0.0144703)
(-0.00290166 0.179313 -0.0158716)
(-0.0169997 0.217897 -0.0158282)
(-0.0459514 0.268278 -0.0151041)
(-0.0931384 0.315141 -0.0118232)
(-0.146122 0.357517 -0.0130803)
(-0.205255 0.399637 -0.0158277)
(-0.26918 0.434036 -0.0188525)
(-0.347383 0.454614 -0.0212782)
(-0.428761 0.46771 -0.0227616)
(-0.506581 0.480986 -0.025087)
(-0.567935 0.502288 -0.0262917)
(-0.631651 0.524597 -0.0287066)
(-0.674203 0.547677 -0.0337497)
(-0.715986 0.567558 -0.0332167)
(-0.707445 0.614938 -0.0270435)
(-0.743673 0.655117 -0.0266065)
(-0.608106 0.671533 0.0203885)
(-0.436439 0.686291 0.0198505)
(-0.416109 0.684986 0.0377753)
(-0.388346 0.651315 0.0378083)
(-0.387774 0.63506 0.0372086)
(-0.35796 0.605477 0.0411062)
(-0.335415 0.57541 0.043076)
(-0.293514 0.536396 0.0469979)
(-0.263462 0.496536 0.039308)
(-0.229235 0.453147 0.0296853)
(-0.204319 0.407516 0.0187589)
(-0.182955 0.371506 0.0108605)
(-0.168753 0.335304 0.00512878)
(-0.146282 0.305787 -0.00635723)
(-0.119147 0.264895 -0.0138682)
(-0.0800373 0.201713 -0.0144639)
(-0.0295459 0.160003 -0.0130164)
(-0.00278266 0.134692 -0.0121846)
(0.0101244 0.101732 -0.00380543)
(0.00775151 0.0562423 0.00122229)
(-0.00602101 0.143551 -0.0104458)
(-0.00188802 0.150863 -0.0183286)
(0.0112961 0.180563 -0.018353)
(0.0120107 0.222673 -0.0200982)
(0.00285246 0.270045 -0.0204286)
(-0.00841805 0.326474 -0.0158507)
(-0.0400075 0.387457 -0.0147328)
(-0.0993067 0.441834 -0.00880241)
(-0.158399 0.486616 -0.00684427)
(-0.223501 0.515921 -0.010255)
(-0.302637 0.534047 -0.0134292)
(-0.380548 0.545677 -0.0141888)
(-0.443564 0.560185 -0.0131954)
(-0.501671 0.577535 -0.0116418)
(-0.545155 0.5949 -0.00804484)
(-0.592845 0.60984 -0.00526194)
(-0.619217 0.630561 -0.00232404)
(-0.639317 0.652942 0.00086763)
(-0.618484 0.697492 0.00229932)
(-0.635426 0.718816 0.0118778)
(-0.50181 0.715891 0.0560944)
(-0.350154 0.682192 0.0588848)
(-0.348558 0.64807 0.0778675)
(-0.34006 0.5819 0.0809289)
(-0.351601 0.546339 0.0807178)
(-0.339665 0.502164 0.0777498)
(-0.331274 0.465936 0.0741824)
(-0.308858 0.424433 0.0651964)
(-0.291518 0.382158 0.0582425)
(-0.273071 0.343463 0.038199)
(-0.259139 0.302981 0.0244342)
(-0.238271 0.27086 0.0104468)
(-0.218712 0.245173 -0.00101505)
(-0.195915 0.233519 -0.0081393)
(-0.189848 0.218628 -0.019428)
(-0.147642 0.184952 -0.0154709)
(-0.0655926 0.155204 -0.0140464)
(-0.0195707 0.13765 -0.0130749)
(0.00360965 0.110783 -0.00629035)
(0.00513718 0.0615205 0.00239077)
(-0.00121548 0.145678 -0.00998089)
(0.0135902 0.168041 -0.0204585)
(0.0335356 0.21407 -0.0244915)
(0.0348877 0.275448 -0.0270236)
(0.0275769 0.341851 -0.0270783)
(0.0129566 0.413259 -0.0209112)
(-0.0290476 0.468409 -0.0133548)
(-0.0980658 0.505075 -0.00294249)
(-0.174742 0.53968 -0.00736871)
(-0.248959 0.56099 -0.0093505)
(-0.311441 0.581599 -0.00954961)
(-0.369327 0.605427 -0.00775355)
(-0.418809 0.628068 -0.00409148)
(-0.464604 0.643963 0.000250864)
(-0.498216 0.657737 0.00555268)
(-0.526691 0.664343 0.00932449)
(-0.529217 0.677989 0.016444)
(-0.536021 0.68309 0.0175924)
(-0.510848 0.697312 0.0189902)
(-0.525927 0.694313 0.0202482)
(-0.434998 0.67121 0.0549719)
(-0.302385 0.570288 0.0626033)
(-0.300063 0.526108 0.0766368)
(-0.303665 0.456223 0.080306)
(-0.325969 0.425115 0.0789931)
(-0.329797 0.387153 0.0769512)
(-0.336345 0.361649 0.0715996)
(-0.331702 0.330424 0.0607604)
(-0.32749 0.301088 0.0435858)
(-0.320672 0.268984 0.0261408)
(-0.312892 0.240373 0.0094595)
(-0.296357 0.217099 -0.00309959)
(-0.274878 0.198839 -0.0110713)
(-0.246423 0.188975 -0.015604)
(-0.230639 0.191541 -0.0211809)
(-0.187035 0.187761 -0.02168)
(-0.0964012 0.166698 -0.0195871)
(-0.0301006 0.148967 -0.0173479)
(0.000749445 0.12272 -0.00988586)
(0.00615086 0.0701872 0.00139214)
(0.00156502 0.14658 -0.00992073)
(0.02711 0.178794 -0.0206996)
(0.0626502 0.228226 -0.022548)
(0.0717257 0.294176 -0.0197663)
(0.0637886 0.356811 -0.0227432)
(0.0316225 0.432657 -0.0122508)
(-0.0339318 0.466131 -4.46685e-05)
(-0.105407 0.505526 -0.00150018)
(-0.167378 0.542037 -0.00324586)
(-0.227323 0.577889 -0.00308818)
(-0.282477 0.610883 -0.00217129)
(-0.333233 0.635009 0.000849494)
(-0.374671 0.651585 0.00750054)
(-0.408933 0.66101 0.0133353)
(-0.43022 0.665477 0.0173254)
(-0.449136 0.658853 0.0225695)
(-0.448343 0.650302 0.025531)
(-0.450962 0.623021 0.0236775)
(-0.434543 0.603811 0.0188944)
(-0.448005 0.562154 0.011669)
(-0.406102 0.544376 0.0309944)
(-0.295297 0.414651 0.0437667)
(-0.274346 0.384641 0.0522725)
(-0.28623 0.329683 0.0604518)
(-0.313502 0.313196 0.0617199)
(-0.330332 0.287572 0.0637415)
(-0.3451 0.273895 0.060886)
(-0.352497 0.25398 0.0488004)
(-0.36112 0.234853 0.0320926)
(-0.363638 0.211056 0.0115866)
(-0.356955 0.188706 0.00158834)
(-0.338889 0.171409 -0.0110725)
(-0.317664 0.162685 -0.0174645)
(-0.281143 0.160404 -0.0218005)
(-0.263982 0.168927 -0.0258919)
(-0.224397 0.191536 -0.0233761)
(-0.128822 0.17416 -0.0216705)
(-0.0453489 0.159481 -0.016318)
(-0.000819912 0.13345 -0.0107213)
(0.00581877 0.0774319 0.0020699)
(0.00303896 0.167908 -0.0109871)
(0.035731 0.211994 -0.023916)
(0.0835707 0.265701 -0.0242158)
(0.0950772 0.325342 -0.0170263)
(0.0947887 0.385378 -0.0177997)
(0.0500825 0.448108 -0.00722428)
(-0.0167771 0.47455 0.00394977)
(-0.0716732 0.524468 0.00200142)
(-0.137595 0.566715 0.00333084)
(-0.192362 0.601611 0.00488374)
(-0.243465 0.625032 0.00802551)
(-0.289024 0.636926 0.011335)
(-0.321723 0.642586 0.0199911)
(-0.349822 0.636206 0.0228851)
(-0.371124 0.619386 0.0249937)
(-0.38802 0.587686 0.0255259)
(-0.39159 0.553927 0.0243575)
(-0.400085 0.502658 0.018071)
(-0.400114 0.459779 0.0109553)
(-0.407322 0.401544 -0.000557611)
(-0.40963 0.386881 0.00246392)
(-0.318755 0.285496 0.0226111)
(-0.264314 0.267975 0.0264937)
(-0.28118 0.235396 0.0387728)
(-0.30759 0.23077 0.0434607)
(-0.333474 0.21634 0.0517627)
(-0.353175 0.21016 0.050879)
(-0.372105 0.19771 0.0394669)
(-0.388673 0.182509 0.02294)
(-0.395759 0.164629 0.00574285)
(-0.391302 0.149778 -0.00184607)
(-0.374097 0.136595 -0.00214682)
(-0.351974 0.128904 -0.0108758)
(-0.317868 0.134863 -0.0209615)
(-0.278656 0.144853 -0.0301594)
(-0.243542 0.182085 -0.0304036)
(-0.159694 0.183708 -0.0241532)
(-0.0549886 0.173554 -0.0219245)
(-0.00244186 0.145263 -0.0132536)
(0.0071038 0.0878756 0.000502303)
(0.00191165 0.193603 -0.011415)
(0.0430813 0.252924 -0.0250864)
(0.104334 0.315427 -0.0251065)
(0.127893 0.371266 -0.0162737)
(0.12522 0.436561 -0.016722)
(0.0685975 0.473166 -0.00600676)
(0.00441765 0.511518 0.00763053)
(-0.0403887 0.543687 0.0075183)
(-0.100971 0.583071 0.0111539)
(-0.154064 0.60632 0.0173534)
(-0.204206 0.620712 0.0175017)
(-0.245645 0.621774 0.0262276)
(-0.277898 0.610247 0.0313246)
(-0.308269 0.579902 0.0335457)
(-0.332593 0.540972 0.0316101)
(-0.354477 0.488152 0.0279679)
(-0.368171 0.434105 0.0217702)
(-0.383281 0.368274 0.0134501)
(-0.391454 0.317291 0.00591984)
(-0.396126 0.262904 -0.00517437)
(-0.412671 0.244162 -0.00989288)
(-0.331596 0.197543 0.00713647)
(-0.259595 0.186745 0.0103522)
(-0.275409 0.17061 0.0234543)
(-0.297628 0.168517 0.0321941)
(-0.328821 0.159892 0.0442026)
(-0.350627 0.15729 0.0452816)
(-0.376782 0.147583 0.0362252)
(-0.39662 0.137813 0.0224374)
(-0.404079 0.12251 0.0194266)
(-0.40707 0.106092 0.0150903)
(-0.396591 0.093386 0.0131628)
(-0.374538 0.083439 0.00998912)
(-0.339414 0.0915282 0.00145739)
(-0.300114 0.108269 -0.0129538)
(-0.259734 0.150115 -0.0287499)
(-0.178961 0.180687 -0.0257048)
(-0.0752416 0.178149 -0.0192043)
(-0.00604643 0.156663 -0.0125639)
(0.00857508 0.0977777 0.0012479)
(0.000711045 0.221818 -0.0109254)
(0.0520762 0.304376 -0.0268808)
(0.126283 0.37029 -0.0265515)
(0.158658 0.424048 -0.0174227)
(0.149233 0.476851 -0.0150282)
(0.0910022 0.500508 -0.0053567)
(0.0338532 0.541432 0.00924636)
(-0.00641543 0.562866 0.0182638)
(-0.0594533 0.591858 0.0193907)
(-0.117778 0.60724 0.021822)
(-0.166731 0.608333 0.0308765)
(-0.20941 0.597156 0.0371425)
(-0.247761 0.569732 0.0401059)
(-0.282997 0.523318 0.0395491)
(-0.314841 0.467596 0.0345471)
(-0.344187 0.401082 0.0266277)
(-0.368081 0.336206 0.0176633)
(-0.387819 0.270831 0.00923772)
(-0.398043 0.222983 0.00210431)
(-0.400108 0.179224 -0.00841647)
(-0.410414 0.159244 -0.0138473)
(-0.327581 0.142571 -0.00134731)
(-0.252156 0.133726 0.00201431)
(-0.263979 0.122547 0.0146809)
(-0.281488 0.118663 0.0268277)
(-0.311721 0.112672 0.0388041)
(-0.335092 0.11057 0.0409237)
(-0.361084 0.103241 0.0354192)
(-0.383809 0.0933703 0.0410263)
(-0.40534 0.0762585 0.037721)
(-0.413598 0.0591596 0.0362486)
(-0.412 0.0470755 0.0256698)
(-0.393314 0.0433226 0.0210081)
(-0.359811 0.0482868 0.0130735)
(-0.30755 0.0667091 -0.0020538)
(-0.262312 0.109133 -0.0193865)
(-0.191947 0.159477 -0.0266415)
(-0.083088 0.178808 -0.020414)
(-0.00578611 0.161948 -0.0128493)
(0.00917565 0.106563 0.000697377)
(0.00259193 0.248227 -0.0106011)
(0.0605123 0.353272 -0.0300261)
(0.145334 0.421155 -0.0291652)
(0.184099 0.470987 -0.0165436)
(0.16883 0.505879 -0.00885508)
(0.114861 0.529051 -0.00301412)
(0.0637521 0.560446 0.0116564)
(0.0237869 0.578533 0.0245032)
(-0.0243884 0.586612 0.0306768)
(-0.0822495 0.595592 0.0342572)
(-0.13444 0.590013 0.0380397)
(-0.183485 0.564978 0.0416941)
(-0.229978 0.52583 0.0429392)
(-0.272808 0.468423 0.0396496)
(-0.31399 0.40064 0.0307266)
(-0.352285 0.327709 0.0220738)
(-0.379573 0.263038 0.0135661)
(-0.396083 0.205631 0.0059707)
(-0.40389 0.164692 -0.00102827)
(-0.403736 0.131444 -0.0102611)
(-0.403054 0.110559 -0.0145791)
(-0.314975 0.10429 -0.00504056)
(-0.238876 0.0885713 -0.00335865)
(-0.241301 0.0759874 0.00865173)
(-0.251187 0.0655349 0.0196748)
(-0.279364 0.0620847 0.0313913)
(-0.299033 0.0600856 0.0364721)
(-0.328055 0.0551697 0.0486401)
(-0.35706 0.0470543 0.0513687)
(-0.378662 0.0355862 0.0599537)
(-0.394054 0.0194684 0.0597059)
(-0.400317 0.00191278 0.0514014)
(-0.399582 -0.00914774 0.0310792)
(-0.378316 -0.00318426 0.0219775)
(-0.334737 0.0175378 0.0231416)
(-0.277032 0.0612088 0.00895037)
(-0.197215 0.126245 -0.0239887)
(-0.0980734 0.171497 -0.0226553)
(-0.0111335 0.168577 -0.0121816)
(0.0126806 0.117802 8.80427e-05)
(0.00340872 0.272588 -0.00784779)
(0.0677797 0.397509 -0.0296259)
(0.161576 0.468331 -0.0285354)
(0.202111 0.507496 -0.0124176)
(0.18823 0.529018 -0.00200474)
(0.141088 0.551059 0.00150673)
(0.0933732 0.571533 0.0179954)
(0.0477253 0.584051 0.0272155)
(0.00527066 0.583695 0.0389093)
(-0.04565 0.581995 0.0456593)
(-0.107729 0.568283 0.045593)
(-0.16427 0.534221 0.0423225)
(-0.219647 0.48128 0.037941)
(-0.277588 0.4124 0.0321872)
(-0.327943 0.340812 0.0268171)
(-0.365404 0.273227 0.0188205)
(-0.391525 0.214393 0.0103629)
(-0.404868 0.163321 0.00305468)
(-0.407686 0.124782 -0.00311844)
(-0.403656 0.0961238 -0.0108742)
(-0.388164 0.0741068 -0.0125497)
(-0.29513 0.0710577 -0.00611467)
(-0.221169 0.0441323 -0.00556204)
(-0.214222 0.0327482 0.0043508)
(-0.213999 0.0207969 0.0137716)
(-0.230988 0.0181496 0.024171)
(-0.248196 0.0169791 0.0408566)
(-0.273671 0.0115669 0.0478198)
(-0.301481 0.00251402 0.0602356)
(-0.33966 -0.0125142 0.0558824)
(-0.37626 -0.033769 0.0486093)
(-0.405009 -0.0568025 0.0408274)
(-0.407056 -0.0775181 0.0283269)
(-0.390205 -0.0818249 0.00847514)
(-0.345752 -0.0597137 -0.00297676)
(-0.287987 -0.0087536 0.00280102)
(-0.206994 0.0725045 0.0038212)
(-0.0997351 0.142051 -0.0274711)
(-0.0107191 0.162556 -0.0100527)
(0.0130429 0.121695 -2.13834e-05)
(0.00439332 0.287905 -0.00464716)
(0.0715994 0.43106 -0.0285334)
(0.168206 0.503342 -0.0277139)
(0.211321 0.531419 -0.00946436)
(0.20522 0.546301 0.00506697)
(0.165316 0.563381 0.0141004)
(0.117799 0.574872 0.0204449)
(0.0733877 0.581694 0.0345431)
(0.030183 0.581233 0.0451968)
(-0.0202185 0.562739 0.0546275)
(-0.0844443 0.539928 0.0479811)
(-0.156916 0.488942 0.0380365)
(-0.228736 0.422182 0.0305479)
(-0.289801 0.35244 0.0283383)
(-0.338388 0.292092 0.024477)
(-0.377202 0.235617 0.0166726)
(-0.403319 0.182482 0.00802264)
(-0.413134 0.134416 0.00140764)
(-0.408448 0.0979462 -0.00347292)
(-0.396372 0.0675709 -0.00942876)
(-0.364278 0.0391202 -0.00995094)
(-0.272298 0.0211304 -0.00832694)
(-0.197203 -0.0106558 -0.00977755)
(-0.170983 -0.0220208 -0.00744721)
(-0.163795 -0.0332009 -9.1837e-05)
(-0.172993 -0.0368319 0.0177708)
(-0.186256 -0.0439292 0.029148)
(-0.215263 -0.0493026 0.0416713)
(-0.25183 -0.0604654 0.0431355)
(-0.294167 -0.0776949 0.0439575)
(-0.340607 -0.0960045 0.040093)
(-0.378149 -0.11703 0.0294596)
(-0.399692 -0.135554 0.0153712)
(-0.392845 -0.147617 0.00440764)
(-0.358493 -0.135578 -0.0114597)
(-0.296942 -0.088813 -0.0115298)
(-0.215531 0.00475477 -0.00320014)
(-0.114752 0.106759 -0.0129634)
(-0.0148277 0.156778 -0.0179756)
(0.0162663 0.132103 0.00135851)
(0.00578828 0.293483 0.00082032)
(0.0738925 0.451326 -0.0246381)
(0.168724 0.525464 -0.0253513)
(0.217396 0.547972 -0.00597908)
(0.223467 0.555655 0.0123244)
(0.187619 0.564974 0.0257921)
(0.141726 0.574858 0.0338997)
(0.0986972 0.579303 0.0391696)
(0.0485154 0.572087 0.0477083)
(-0.00462994 0.544186 0.0579877)
(-0.0805517 0.503133 0.046834)
(-0.167848 0.436424 0.035684)
(-0.237052 0.370173 0.0315281)
(-0.291686 0.310173 0.0263718)
(-0.339781 0.256818 0.0218129)
(-0.383719 0.21165 0.0149955)
(-0.412504 0.167891 0.00717878)
(-0.417588 0.124426 0.00237693)
(-0.406649 0.0695579 -0.00225663)
(-0.392604 0.0293795 -0.0058239)
(-0.355496 -0.0035798 -0.00507394)
(-0.258186 -0.0407795 -0.00412168)
(-0.170281 -0.0761065 -0.0117126)
(-0.131908 -0.094969 -0.00938099)
(-0.116102 -0.108199 -0.00163154)
(-0.119565 -0.110885 0.00705161)
(-0.127799 -0.114211 0.0191613)
(-0.147485 -0.119493 0.0268173)
(-0.181605 -0.123225 0.0326346)
(-0.229774 -0.130325 0.0346894)
(-0.282175 -0.144115 0.031532)
(-0.334452 -0.165409 0.024721)
(-0.371648 -0.1902 0.013456)
(-0.38505 -0.209553 -0.00217092)
(-0.35975 -0.21207 -0.016201)
(-0.300964 -0.171204 -0.0231589)
(-0.218145 -0.085256 -0.0180108)
(-0.114926 0.0527551 0.00718362)
(-0.0156849 0.133298 -0.0183218)
(0.0156051 0.134735 0.000153669)
(0.00541997 0.288038 0.00424696)
(0.0704162 0.455968 -0.0227285)
(0.163202 0.534436 -0.0243928)
(0.21677 0.558298 -0.00464848)
(0.23455 0.562333 0.0175246)
(0.21356 0.56648 0.0329486)
(0.171927 0.575764 0.0425608)
(0.121228 0.571987 0.0470141)
(0.0609892 0.554547 0.0471258)
(-0.0047749 0.515271 0.052265)
(-0.0917968 0.453349 0.0448757)
(-0.178551 0.392187 0.0366082)
(-0.240848 0.331991 0.0311012)
(-0.294279 0.271226 0.0248614)
(-0.338103 0.216384 0.0178407)
(-0.379299 0.173906 0.0111789)
(-0.41196 0.149392 0.00496288)
(-0.436581 0.0875283 -0.000391974)
(-0.428591 0.0238366 0.00498882)
(-0.389307 -0.0234994 0.00194861)
(-0.346641 -0.0556144 -0.00200902)
(-0.252592 -0.0876522 -0.0116958)
(-0.15272 -0.128613 -0.0162152)
(-0.0978966 -0.155078 -0.0168911)
(-0.0678703 -0.16897 -0.0139462)
(-0.0579237 -0.172517 -0.00694989)
(-0.0625714 -0.16517 0.00115203)
(-0.0796343 -0.163261 0.0128331)
(-0.107392 -0.163812 0.0206676)
(-0.152001 -0.170227 0.025437)
(-0.209403 -0.179221 0.0269785)
(-0.270602 -0.200071 0.0240402)
(-0.323201 -0.227233 0.014486)
(-0.356172 -0.259164 0.000766762)
(-0.351292 -0.274901 -0.0166679)
(-0.308697 -0.258469 -0.0292294)
(-0.221615 -0.174797 -0.0327667)
(-0.128517 -0.0284731 -0.016079)
(-0.0262979 0.101684 -0.0151505)
(0.0199641 0.133576 -0.00302472)
(0.00716681 0.258172 0.0112479)
(0.0697739 0.435007 -0.015143)
(0.160147 0.520266 -0.0179058)
(0.221696 0.544042 0.00299204)
(0.252981 0.547497 0.0226878)
(0.242803 0.55146 0.0374892)
(0.19948 0.555008 0.047684)
(0.138693 0.54747 0.0517862)
(0.0636807 0.526753 0.0513486)
(-0.0198335 0.483531 0.0492567)
(-0.104352 0.423609 0.0444632)
(-0.181267 0.370127 0.036927)
(-0.248695 0.3099 0.0307047)
(-0.303615 0.244349 0.0230333)
(-0.342731 0.181953 0.0139234)
(-0.365135 0.137037 0.00710914)
(-0.419559 0.0966453 -0.00195129)
(-0.465146 0.0301936 0.00954935)
(-0.436907 -0.0279087 0.00945042)
(-0.386861 -0.07376 -0.00426253)
(-0.331193 -0.097134 -0.0146544)
(-0.239942 -0.116639 -0.0168704)
(-0.142876 -0.152134 -0.0218396)
(-0.0743263 -0.179694 -0.0263747)
(-0.0306672 -0.204668 -0.0247713)
(-0.00447155 -0.217206 -0.0185076)
(0.00317858 -0.212894 -0.0131554)
(-0.0113348 -0.198834 -0.00350562)
(-0.038565 -0.183799 0.00755176)
(-0.0772617 -0.184859 0.0175278)
(-0.130804 -0.195407 0.0221339)
(-0.196378 -0.222218 0.0223541)
(-0.260132 -0.255829 0.0164772)
(-0.311195 -0.298076 0.004558)
(-0.327924 -0.330748 -0.0108715)
(-0.298479 -0.33318 -0.0249666)
(-0.222498 -0.270532 -0.036823)
(-0.128308 -0.128251 -0.0292465)
(-0.0250015 0.057783 0.00230346)
(0.0156371 0.127871 -0.00432398)
(0.00338291 0.242464 0.0105428)
(0.0594242 0.42208 -0.0129289)
(0.147979 0.513349 -0.0179892)
(0.220569 0.542715 0.00650936)
(0.272944 0.54426 0.0190375)
(0.277949 0.542644 0.0386838)
(0.23667 0.541859 0.046379)
(0.166614 0.531021 0.049319)
(0.0767261 0.509518 0.0479457)
(-0.0189314 0.458283 0.0458633)
(-0.107325 0.40751 0.0398475)
(-0.188928 0.35088 0.0320188)
(-0.263025 0.289522 0.0257272)
(-0.323373 0.225537 0.0168917)
(-0.353701 0.166498 0.00877414)
(-0.379748 0.106757 -0.00205931)
(-0.437694 0.0360219 -0.000546914)
(-0.480106 -0.0116978 0.00908094)
(-0.450008 -0.0666793 -0.0083332)
(-0.374265 -0.108443 -0.0193429)
(-0.30409 -0.12072 -0.0232537)
(-0.221121 -0.132154 -0.0259321)
(-0.128996 -0.152039 -0.0292241)
(-0.062138 -0.168809 -0.0331914)
(-0.0134456 -0.1902 -0.0307917)
(0.0321994 -0.20536 -0.0242046)
(0.0638075 -0.215469 -0.0190635)
(0.0702466 -0.215645 -0.01413)
(0.0451518 -0.207028 -0.0109126)
(-0.00369272 -0.201806 -0.00102765)
(-0.0628426 -0.204577 0.00944924)
(-0.128347 -0.225766 0.0178789)
(-0.193877 -0.258499 0.017535)
(-0.255835 -0.311713 0.00907446)
(-0.28977 -0.36266 -0.0065229)
(-0.285827 -0.393043 -0.023365)
(-0.228073 -0.356915 -0.0388023)
(-0.134779 -0.225544 -0.036802)
(-0.028166 -0.0134336 -0.0128742)
(0.0148312 0.116997 0.000210084)
(-0.0026506 0.201808 0.0130754)
(0.0420818 0.397667 -0.00541596)
(0.131465 0.497075 -0.00804849)
(0.212505 0.530078 0.00248367)
(0.278889 0.530648 0.016489)
(0.300755 0.531316 0.0364043)
(0.263396 0.544758 0.0452013)
(0.186173 0.548234 0.0497839)
(0.0737741 0.539022 0.0465112)
(-0.0328204 0.496718 0.057772)
(-0.116965 0.455383 0.0462766)
(-0.201348 0.399381 0.0348199)
(-0.276106 0.334585 0.0275356)
(-0.332352 0.260384 0.0150816)
(-0.372709 0.18182 -0.000369359)
(-0.41172 0.0848149 -0.00996912)
(-0.456997 0.0070026 -0.00874958)
(-0.487806 -0.0460257 -0.0158855)
(-0.452722 -0.0918977 -0.0275215)
(-0.359501 -0.127997 -0.0315441)
(-0.274107 -0.140146 -0.0323107)
(-0.191572 -0.145129 -0.0337138)
(-0.100573 -0.150163 -0.0358671)
(-0.0329338 -0.154564 -0.0370852)
(0.0151203 -0.155075 -0.0326017)
(0.0576099 -0.156464 -0.0271643)
(0.0885588 -0.160838 -0.0199329)
(0.10502 -0.167834 -0.0118363)
(0.10028 -0.174908 -0.00652855)
(0.0731181 -0.184631 -0.00161634)
(0.0221287 -0.204957 0.00211905)
(-0.0441079 -0.244617 0.00509536)
(-0.12206 -0.286791 0.00287155)
(-0.202542 -0.348918 -0.00297418)
(-0.258141 -0.419542 -0.0148169)
(-0.271728 -0.48058 -0.0304673)
(-0.226687 -0.473854 -0.0463426)
(-0.144997 -0.346545 -0.0468744)
(-0.0361567 -0.117476 -0.0172691)
(0.0124089 0.0897395 0.0151326)
(-0.00698366 0.298555 0.0109268)
(0.0295573 0.512006 -0.00958491)
(0.112886 0.622236 -0.00823744)
(0.200164 0.657783 -0.00135)
(0.29019 0.660477 0.0175504)
(0.348933 0.659172 0.0362703)
(0.329888 0.664228 0.0427692)
(0.243818 0.656776 0.0459724)
(0.109734 0.63634 0.0415407)
(-0.0163727 0.598289 0.0561116)
(-0.11584 0.551491 0.0430806)
(-0.218673 0.482285 0.0260466)
(-0.310118 0.398256 0.0184743)
(-0.386183 0.299261 0.00424966)
(-0.443273 0.182904 -0.0122008)
(-0.471888 0.0764315 -0.0247783)
(-0.487565 -0.0100393 -0.0270346)
(-0.49916 -0.0697764 -0.0377538)
(-0.453353 -0.111502 -0.0483392)
(-0.344883 -0.145378 -0.0474504)
(-0.245429 -0.153474 -0.0412515)
(-0.157276 -0.157283 -0.0416965)
(-0.0654449 -0.156021 -0.0426311)
(0.0061735 -0.151136 -0.0358528)
(0.0598845 -0.139579 -0.0280193)
(0.105795 -0.129933 -0.0225338)
(0.138711 -0.118501 -0.0186125)
(0.153567 -0.110792 -0.0133016)
(0.141979 -0.109013 -0.00947832)
(0.102424 -0.122648 -0.00152975)
(0.0423534 -0.147702 0.00980715)
(-0.0105255 -0.20485 0.0191957)
(-0.067608 -0.285532 0.0160814)
(-0.1498 -0.383413 0.00605809)
(-0.22446 -0.48112 -0.00724053)
(-0.262626 -0.575274 -0.0239642)
(-0.223328 -0.59732 -0.0390854)
(-0.154242 -0.507977 -0.0522665)
(-0.0457333 -0.219304 -0.0208285)
(0.0183243 0.060802 0.0178149)
(-0.0242375 0.335487 -0.00171933)
(0.00395599 0.568958 -0.0228169)
(0.097468 0.693531 -0.024823)
(0.193683 0.749514 -0.0239463)
(0.300164 0.763669 -0.00417328)
(0.371547 0.752686 0.0127218)
(0.347777 0.722332 0.023567)
(0.24543 0.681972 0.0346677)
(0.101407 0.641995 0.0366367)
(-0.0309567 0.597242 0.0535011)
(-0.146088 0.548154 0.0456991)
(-0.266676 0.477334 0.0306109)
(-0.370729 0.39422 0.0244477)
(-0.460583 0.29336 0.00792504)
(-0.510032 0.183503 -0.0116145)
(-0.521448 0.080814 -0.0388758)
(-0.522263 -0.011942 -0.0561681)
(-0.51019 -0.0811637 -0.0648299)
(-0.451708 -0.126382 -0.0668704)
(-0.327463 -0.167646 -0.0601391)
(-0.214257 -0.176132 -0.0460449)
(-0.124221 -0.179608 -0.0460315)
(-0.025701 -0.174728 -0.0460183)
(0.0525339 -0.160398 -0.0300893)
(0.107231 -0.142051 -0.0225345)
(0.153026 -0.130348 -0.0188221)
(0.187857 -0.11767 -0.0128261)
(0.20423 -0.109681 -0.00422711)
(0.193109 -0.103128 -0.000402645)
(0.161588 -0.106405 0.00260806)
(0.0975986 -0.108789 0.0128474)
(0.0132634 -0.144278 0.0215593)
(-0.0652452 -0.215204 0.0301188)
(-0.133496 -0.325837 0.0273761)
(-0.199787 -0.481216 0.018798)
(-0.240648 -0.646015 0.00165229)
(-0.225984 -0.721118 -0.0199619)
(-0.141715 -0.679256 -0.0308679)
(-0.0355528 -0.401455 -0.037386)
(0.00826379 -0.00403414 0.0306034)
(-0.00465795 0.255891 0.0211041)
(0.0258645 0.494189 -0.0115954)
(0.0990433 0.627681 -0.0179499)
(0.191941 0.69518 -0.0188319)
(0.293527 0.715662 -0.00292877)
(0.359013 0.696811 0.0139493)
(0.338809 0.651928 0.029711)
(0.248619 0.609381 0.0444968)
(0.107678 0.573365 0.0505627)
(-0.0296868 0.544222 0.0671582)
(-0.157089 0.504075 0.0648142)
(-0.292506 0.452336 0.0495669)
(-0.412021 0.390657 0.0402008)
(-0.513812 0.310785 0.0198439)
(-0.572895 0.224762 -0.0138116)
(-0.585173 0.120746 -0.0502813)
(-0.56886 0.0205722 -0.08791)
(-0.5351 -0.0586248 -0.0970307)
(-0.464405 -0.119132 -0.0900814)
(-0.322345 -0.173831 -0.0815443)
(-0.187869 -0.193386 -0.0552165)
(-0.0882306 -0.193787 -0.0518189)
(0.0204921 -0.188389 -0.0510056)
(0.105774 -0.166249 -0.0273954)
(0.158197 -0.146515 -0.0136727)
(0.201088 -0.137757 -0.0117466)
(0.235033 -0.127658 -0.00701358)
(0.25177 -0.124389 0.000112167)
(0.241529 -0.121595 0.00674637)
(0.213177 -0.12787 0.0125631)
(0.15102 -0.133564 0.0167735)
(0.0702439 -0.156526 0.0304216)
(-0.0135411 -0.195965 0.0410891)
(-0.134053 -0.266284 0.0374485)
(-0.247342 -0.390101 0.0427777)
(-0.278451 -0.584048 0.0371199)
(-0.244545 -0.720226 0.0179289)
(-0.171647 -0.742256 -0.00667416)
(-0.0344223 -0.52687 -0.0172036)
(0.0314652 -0.0667911 0.000659183)
(-0.00247774 0.21733 0.0281266)
(0.0325794 0.429146 -0.000617759)
(0.105349 0.559756 -0.00801331)
(0.19488 0.631166 -0.00700676)
(0.289638 0.656795 0.0064653)
(0.344295 0.633987 0.0245374)
(0.325929 0.586806 0.0420134)
(0.242378 0.540082 0.0582522)
(0.112406 0.49897 0.0681502)
(-0.0238298 0.478469 0.0818584)
(-0.162288 0.446908 0.0833075)
(-0.303132 0.414731 0.0713721)
(-0.433259 0.37667 0.0622307)
(-0.545694 0.329365 0.0410154)
(-0.618665 0.269411 0.000687652)
(-0.643591 0.189158 -0.0444459)
(-0.620389 0.0933904 -0.0916658)
(-0.570774 0.00108706 -0.122749)
(-0.491038 -0.0746782 -0.117498)
(-0.32966 -0.142191 -0.11113)
(-0.16512 -0.18077 -0.0764697)
(-0.0519834 -0.196357 -0.0607768)
(0.068022 -0.198735 -0.051472)
(0.160635 -0.182104 -0.0143227)
(0.203183 -0.16605 0.00405807)
(0.241256 -0.158228 0.00199817)
(0.274068 -0.147104 0.00365978)