/*--------------------------------*- C++ -*----------------------------------*\
| =========                 |                                                 |
| \\      /  F ield         | OpenFOAM: The Open Source CFD Toolbox           |
|  \\    /   O peration     | Version:  v1806                                 |
|   \\  /    A nd           | Web:      www.OpenFOAM.com                      |
|    \\/     M anipulation  |                                                 |
\*---------------------------------------------------------------------------*/
FoamFile
{
    version     2.0;
    format      ascii;
    class       volVectorField;
    location    "0.0005";
    object      U;
}
// * * * * * * * * * * * * * * * * * * * * * * * * * * * * * * * * * * * * * //

dimensions      [0 1 -1 0 0 0 0];


internalField   nonuniform List<vector> 
64000
(
(0.000971154 -0.00110699 0.000174507)
(0.00714179 -0.00265975 -0.000756495)
(0.0170287 -0.00291402 -0.000858823)
(0.0254984 -0.00261327 -0.000587937)
(0.0320728 -0.00223699 -0.000347194)
(0.0370565 -0.00211819 -0.000353015)
(0.040935 -0.00224584 -0.000633359)
(0.0439595 -0.00224544 -0.000933955)
(0.0459911 -0.00213082 -0.00116677)
(0.0462513 -0.00200186 -0.00126911)
(0.0437748 -0.00196514 -0.00113797)
(0.0376294 -0.00214593 -0.00064163)
(0.0270549 -0.00267204 0.00037439)
(0.0111713 -0.0036765 0.0016897)
(-0.0105638 -0.00493503 0.00342498)
(-0.0380764 -0.00613824 0.00533425)
(-0.0705196 -0.00676011 0.00697051)
(-0.105927 -0.00648098 0.00734109)
(-0.142995 -0.00519706 0.0050852)
(-0.179877 -0.00214391 0.00065111)
(-0.213532 0.00288398 -0.00613132)
(-0.241147 0.00987651 -0.0152405)
(-0.259827 0.0185726 -0.0263889)
(-0.266832 0.0284023 -0.0390287)
(-0.25988 0.0384921 -0.0523538)
(-0.237653 0.0478013 -0.0651108)
(-0.200533 0.0552281 -0.0756792)
(-0.151044 0.0598334 -0.0822263)
(-0.0941579 0.060929 -0.0830523)
(-0.0363715 0.058218 -0.0771576)
(0.0142531 0.0513215 -0.0655123)
(0.0494279 0.0429835 -0.0494195)
(0.0660517 0.0322795 -0.0324519)
(0.0664517 0.0220805 -0.0179836)
(0.0561486 0.0137235 -0.00797143)
(0.0418604 0.00786858 -0.0024444)
(0.028243 0.00443535 -0.000194176)
(0.0171273 0.00286842 0.000273406)
(0.00777968 0.00221024 0.000273759)
(0.00165789 0.000778758 0.000241518)
(0.00207153 -0.00529872 0.000233915)
(0.012714 -0.00977207 -0.00198908)
(0.0289948 -0.00950891 -0.00282511)
(0.0425992 -0.00698473 -0.00299847)
(0.0522344 -0.00391353 -0.00332173)
(0.0581679 -0.000954057 -0.00414035)
(0.0613182 0.00186786 -0.0054715)
(0.0616203 0.00516302 -0.00721374)
(0.0579597 0.00924222 -0.00911544)
(0.0487194 0.0142692 -0.0110001)
(0.032085 0.0202217 -0.0128656)
(0.00636989 0.0272277 -0.0147335)
(-0.0296676 0.0352792 -0.016639)
(-0.0765708 0.0443948 -0.0187265)
(-0.133902 0.055039 -0.0212755)
(-0.199861 0.0677443 -0.0248094)
(-0.27133 0.0831461 -0.0300977)
(-0.344155 0.101455 -0.0380288)
(-0.413809 0.122421 -0.0492735)
(-0.475599 0.146285 -0.0637999)
(-0.524956 0.172358 -0.0812337)
(-0.557928 0.199564 -0.100776)
(-0.571395 0.226523 -0.121184)
(-0.563361 0.251542 -0.140932)
(-0.532903 0.272841 -0.158463)
(-0.480394 0.288473 -0.171853)
(-0.408333 0.296686 -0.179254)
(-0.321221 0.296036 -0.17891)
(-0.225982 0.285632 -0.169715)
(-0.13135 0.265413 -0.15176)
(-0.0449993 0.235865 -0.126686)
(0.0211367 0.199512 -0.0990582)
(0.0612644 0.159925 -0.0706511)
(0.0783027 0.121355 -0.0469619)
(0.0761474 0.08754 -0.0297286)
(0.0632857 0.0613284 -0.0188904)
(0.0471989 0.0433423 -0.0128557)
(0.0319993 0.0321744 -0.00942652)
(0.0175616 0.0243869 -0.00632457)
(0.00513211 0.0131094 -0.00248217)
(0.00235177 -0.010655 -0.000318426)
(0.0148666 -0.0168667 -0.00384857)
(0.0336161 -0.0139833 -0.00528959)
(0.0479566 -0.0065002 -0.00581036)
(0.0565486 0.00273049 -0.00670424)
(0.0597368 0.0126633 -0.00870812)
(0.0580826 0.023622 -0.0116866)
(0.0511678 0.0364537 -0.0152918)
(0.0373922 0.0520137 -0.0192847)
(0.0145814 0.0708546 -0.023319)
(-0.0190628 0.0931938 -0.0272564)
(-0.0645565 0.119008 -0.0309922)
(-0.121845 0.148045 -0.0343991)
(-0.189377 0.179927 -0.0376124)
(-0.264394 0.214418 -0.0411075)
(-0.343092 0.251364 -0.0454907)
(-0.421127 0.290583 -0.0511773)
(-0.49401 0.331717 -0.0583159)
(-0.557614 0.374123 -0.0668249)
(-0.608536 0.416975 -0.0763274)
(-0.644057 0.458954 -0.0862556)
(-0.662175 0.498432 -0.0959545)
(-0.661757 0.53359 -0.104761)
(-0.642405 0.562315 -0.112089)
(-0.604395 0.582252 -0.11696)
(-0.54917 0.591022 -0.118737)
(-0.479295 0.586708 -0.116861)
(-0.398583 0.567919 -0.111039)
(-0.312066 0.534345 -0.101427)
(-0.225542 0.487146 -0.0887797)
(-0.144944 0.429294 -0.0744193)
(-0.0768579 0.363075 -0.0599347)
(-0.0252033 0.296755 -0.0465186)
(0.00873929 0.234098 -0.0355995)
(0.0261677 0.179616 -0.0270975)
(0.0317429 0.13615 -0.0213027)
(0.030356 0.104313 -0.0174296)
(0.0254534 0.0820522 -0.0141473)
(0.0169334 0.0635286 -0.00961786)
(0.00574571 0.0357041 -0.00329599)
(0.00247963 -0.013679 -0.00166735)
(0.0162859 -0.0190267 -0.00684751)
(0.0362669 -0.0112196 -0.00877932)
(0.0496993 0.00372664 -0.00945076)
(0.0552391 0.0220506 -0.011063)
(0.0536264 0.0425985 -0.0143538)
(0.0456534 0.0662298 -0.0189469)
(0.0306046 0.0941173 -0.0240992)
(0.00680752 0.126857 -0.0291527)
(-0.027291 0.164456 -0.0336601)
(-0.0722564 0.20628 -0.0373012)
(-0.127251 0.251174 -0.0398463)
(-0.190289 0.298032 -0.0411511)
(-0.258508 0.345901 -0.0413223)
(-0.328596 0.394142 -0.0407583)
(-0.397216 0.442355 -0.0399152)
(-0.461326 0.490226 -0.0389786)
(-0.518028 0.537327 -0.037995)
(-0.564975 0.582882 -0.0368857)
(-0.600478 0.625806 -0.0355047)
(-0.623359 0.664621 -0.0336968)
(-0.632853 0.697669 -0.0314136)
(-0.628873 0.723865 -0.0290087)
(-0.611857 0.741288 -0.0266249)
(-0.582289 0.746877 -0.0239817)
(-0.541446 0.739035 -0.0211423)
(-0.491087 0.716547 -0.0182677)
(-0.433557 0.679046 -0.0156591)
(-0.37146 0.627383 -0.0137094)
(-0.3073 0.563922 -0.0128679)
(-0.243812 0.493559 -0.0136433)
(-0.183826 0.419775 -0.015494)
(-0.129504 0.348356 -0.0176509)
(-0.0830589 0.283189 -0.0193223)
(-0.0464623 0.227703 -0.0199097)
(-0.0199877 0.18329 -0.0195983)
(-0.00219532 0.149654 -0.0184706)
(0.00837881 0.12395 -0.0159149)
(0.0109153 0.098614 -0.0107112)
(0.00493695 0.0559798 -0.00304436)
(0.00274415 -0.0125505 -0.00416579)
(0.018224 -0.0133499 -0.0116446)
(0.0398218 0.00203584 -0.0139619)
(0.052241 0.0267655 -0.0144877)
(0.0544758 0.0566866 -0.0164422)
(0.0483314 0.0910104 -0.0204998)
(0.0351044 0.13046 -0.0256806)
(0.0143128 0.175429 -0.030742)
(-0.0149591 0.225371 -0.0347349)
(-0.0530792 0.278895 -0.0372908)
(-0.0993027 0.33432 -0.0381217)
(-0.151683 0.389821 -0.0371055)
(-0.207856 0.444001 -0.0342128)
(-0.265232 0.495881 -0.0296057)
(-0.321405 0.544855 -0.0236577)
(-0.374381 0.590544 -0.0167337)
(-0.422574 0.632842 -0.00896243)
(-0.464435 0.671507 -0.000524474)
(-0.498875 0.705815 0.00850704)
(-0.525365 0.7351 0.0179783)
(-0.543587 0.758325 0.0275647)
(-0.552612 0.77443 0.0368635)
(-0.55224 0.782182 0.043749)
(-0.54424 0.780259 0.0473709)
(-0.530653 0.767793 0.0494085)
(-0.510838 0.743983 0.0495783)
(-0.485632 0.708541 0.0476108)
(-0.455621 0.661993 0.0433625)
(-0.420971 0.60584 0.0368516)
(-0.380297 0.542709 0.0283052)
(-0.333584 0.47621 0.0164236)
(-0.282973 0.410038 0.0043837)
(-0.228246 0.347987 -0.00640206)
(-0.172145 0.292868 -0.0146401)
(-0.119096 0.246448 -0.0195393)
(-0.0733395 0.209206 -0.0212798)
(-0.0370755 0.180118 -0.0205952)
(-0.0109651 0.15552 -0.0174936)
(0.0035856 0.126322 -0.0113577)
(0.00385385 0.0720764 -0.00262902)
(0.00318626 -0.00530456 -0.007937)
(0.0214975 0.00345912 -0.0184597)
(0.0462136 0.0286089 -0.0208972)
(0.0587382 0.0642644 -0.0206364)
(0.0590549 0.106722 -0.0220942)
(0.0503447 0.155143 -0.0257129)
(0.0347664 0.209275 -0.0298613)
(0.0125721 0.267948 -0.0329807)
(-0.0165271 0.329217 -0.0342707)
(-0.052113 0.390717 -0.0334851)
(-0.0928395 0.450336 -0.0306967)
(-0.136887 0.506142 -0.0259083)
(-0.182227 0.557001 -0.0191656)
(-0.227037 0.602012 -0.0106456)
(-0.269917 0.640773 -0.00065285)
(-0.309848 0.673285 0.0104593)
(-0.345969 0.69955 0.0221912)
(-0.377393 0.719425 0.0337657)
(-0.404056 0.733084 0.045381)
(-0.425984 0.740666 0.0568322)
(-0.443729 0.742378 0.0668024)
(-0.457325 0.738291 0.0747466)
(-0.467165 0.727479 0.0798455)
(-0.474143 0.709687 0.0816414)
(-0.479011 0.68589 0.0806421)
(-0.48133 0.655889 0.0768523)
(-0.48064 0.619773 0.0703014)
(-0.475746 0.577957 0.0610935)
(-0.464648 0.531299 0.049433)
(-0.444439 0.481209 0.0356633)
(-0.412915 0.428662 0.02095)
(-0.369939 0.377215 0.00627101)
(-0.315478 0.329502 -0.00734501)
(-0.252103 0.287589 -0.0181105)
(-0.185347 0.252579 -0.0247302)
(-0.122335 0.22427 -0.0268143)
(-0.0689944 0.201099 -0.0251085)
(-0.0287039 0.178927 -0.0203933)
(-0.00288104 0.147592 -0.0125783)
(0.00319639 0.0840942 -0.00280988)
(0.00429611 0.0101125 -0.0125692)
(0.026865 0.0334096 -0.0267834)
(0.0565451 0.0692789 -0.0289883)
(0.0713536 0.115268 -0.0270159)
(0.0720943 0.168623 -0.0268436)
(0.0635089 0.228135 -0.0286763)
(0.0487221 0.292132 -0.0304646)
(0.0285219 0.357927 -0.0306269)
(0.00307196 0.422542 -0.028642)
(-0.026962 0.483373 -0.0246838)
(-0.0604937 0.538933 -0.0190134)
(-0.0958904 0.5867 -0.0115981)
(-0.13157 0.626203 -0.00247617)
(-0.166592 0.656838 0.00815398)
(-0.200098 0.678422 0.0201198)
(-0.231393 0.690966 0.0326428)
(-0.260638 0.695235 0.0448642)
(-0.28759 0.692112 0.0561282)
(-0.312403 0.682997 0.0660528)
(-0.335494 0.66919 0.0742738)
(-0.35756 0.652174 0.0803203)
(-0.379068 0.633003 0.0839662)
(-0.400466 0.612178 0.0850662)
(-0.422112 0.59004 0.0836406)
(-0.443916 0.56688 0.0799478)
(-0.464936 0.542315 0.074135)
(-0.483632 0.515781 0.0663242)
(-0.497622 0.486643 0.0566107)
(-0.503815 0.45449 0.0450602)
(-0.498726 0.41936 0.0318963)
(-0.479034 0.381851 0.0173659)
(-0.442785 0.34441 0.00354993)
(-0.389882 0.309487 -0.0102918)
(-0.322195 0.279374 -0.0221705)
(-0.245065 0.254971 -0.0302868)
(-0.167176 0.235327 -0.0332136)
(-0.0979631 0.217884 -0.0308884)
(-0.0442318 0.1981 -0.0245179)
(-0.00841669 0.165404 -0.0149211)
(0.00252674 0.0941576 -0.00337882)
(0.00558687 0.0338895 -0.0176514)
(0.0339049 0.0759423 -0.0357405)
(0.0711741 0.122317 -0.0371791)
(0.0908148 0.176222 -0.0325916)
(0.0943907 0.236651 -0.0297485)
(0.0881496 0.302057 -0.0288623)
(0.0760817 0.369513 -0.0277218)
(0.0593238 0.435359 -0.0248997)
(0.0381144 0.496385 -0.0201681)
(0.0137586 0.550177 -0.013889)
(-0.01371 0.595042 -0.0068423)
(-0.0430123 0.629604 0.0019493)
(-0.0724626 0.653596 0.012566)
(-0.101784 0.665905 0.0239002)
(-0.13061 0.667078 0.0354108)
(-0.158781 0.658032 0.0462553)
(-0.186455 0.640863 0.0557038)
(-0.213663 0.618019 0.0632279)
(-0.240686 0.592111 0.0686044)
(-0.26803 0.565472 0.0718625)
(-0.296384 0.540051 0.0731634)
(-0.326301 0.517082 0.072754)
(-0.358079 0.497022 0.0708978)
(-0.391621 0.479676 0.0678516)
(-0.426199 0.464292 0.0638235)
(-0.460325 0.449549 0.0588823)
(-0.491882 0.433928 0.0529758)
(-0.518118 0.415981 0.0459397)
(-0.535806 0.394726 0.0375365)
(-0.541367 0.369963 0.027509)
(-0.531086 0.34254 0.015763)
(-0.501658 0.314412 0.00292058)
(-0.45173 0.288706 -0.0105053)
(-0.382527 0.267885 -0.0231533)
(-0.298528 0.252995 -0.032931)
(-0.208842 0.242327 -0.0376519)
(-0.125346 0.231621 -0.0360418)
(-0.0587537 0.215045 -0.028833)
(-0.013438 0.181664 -0.0177527)
(0.00196855 0.104028 -0.00424408)
(0.00722099 0.0641845 -0.0221997)
(0.0426006 0.128448 -0.0440739)
(0.0895857 0.184045 -0.044407)
(0.116252 0.24229 -0.0366057)
(0.124464 0.304902 -0.0304592)
(0.121725 0.370446 -0.0265145)
(0.112841 0.43529 -0.0226023)
(0.0993466 0.495439 -0.017454)
(0.0817059 0.547902 -0.0110368)
(0.0606853 0.590577 -0.00380266)
(0.0367632 0.621594 0.00459018)
(0.0111596 0.640943 0.0140498)
(-0.0157375 0.647471 0.0240517)
(-0.0437217 0.64111 0.034143)
(-0.0722527 0.623234 0.0432289)
(-0.101413 0.596276 0.0504984)
(-0.131088 0.563709 0.0554751)
(-0.161299 0.529206 0.0580976)
(-0.192359 0.496032 0.0586892)
(-0.224817 0.466584 0.0577946)
(-0.259306 0.442278 0.0559778)
(-0.296213 0.423517 0.053708)
(-0.335496 0.409793 0.0513187)
(-0.376633 0.399921 0.0490011)
(-0.418581 0.392257 0.0467839)
(-0.459829 0.384907 0.0445071)
(-0.498475 0.37604 0.0418419)
(-0.532153 0.364139 0.0383126)
(-0.55792 0.34832 0.0333377)
(-0.572096 0.3286 0.0263392)
(-0.570412 0.306116 0.0169529)
(-0.548357 0.283153 0.00537568)
(-0.502974 0.262883 -0.00805723)
(-0.434335 0.248763 -0.0215137)
(-0.34605 0.24223 -0.0328678)
(-0.247317 0.241294 -0.0395317)
(-0.151579 0.239724 -0.039457)
(-0.0729711 0.228907 -0.032398)
(-0.0184558 0.196731 -0.0204007)
(0.00135192 0.113878 -0.00518816)
(0.00900362 0.0985588 -0.0254804)
(0.052218 0.186874 -0.0507341)
(0.110344 0.249871 -0.0499223)
(0.145542 0.308652 -0.0387489)
(0.15938 0.368657 -0.0291453)
(0.16033 0.429263 -0.0222935)
(0.154094 0.486814 -0.0161959)
(0.14276 0.537466 -0.00963013)
(0.127043 0.578501 -0.00251863)
(0.107551 0.608103 0.0053431)
(0.0848475 0.625134 0.013807)
(0.0596754 0.628983 0.0226634)
(0.0322239 0.619055 0.0313044)
(0.00265914 0.596724 0.0389308)
(-0.028561 0.564391 0.0445935)
(-0.0609599 0.525971 0.0477154)
(-0.09415 0.485956 0.048322)
(-0.128088 0.448365 0.0469617)
(-0.163122 0.416082 0.0444493)
(-0.199803 0.390563 0.0415888)
(-0.238566 0.371975 0.0389902)
(-0.279467 0.359486 0.0370247)
(-0.322158 0.351624 0.0358484)
(-0.36603 0.346625 0.0354463)
(-0.410324 0.34269 0.0356427)
(-0.454146 0.338104 0.0360964)
(-0.496351 0.331357 0.0362983)
(-0.535198 0.321246 0.0355729)
(-0.567976 0.307101 0.0331417)
(-0.590751 0.289 0.0282187)
(-0.598389 0.268123 0.0202279)
(-0.585212 0.246982 0.00911326)
(-0.546478 0.229084 -0.00438287)
(-0.480189 0.218892 -0.0188082)
(-0.389309 0.219083 -0.0317376)
(-0.283011 0.228217 -0.0401109)
(-0.176425 0.238473 -0.0414976)
(-0.0866762 0.237279 -0.0350382)
(-0.0234893 0.209462 -0.0225523)
(0.000588961 0.123251 -0.00612834)
(0.0106729 0.133648 -0.0270501)
(0.0617861 0.246512 -0.055073)
(0.131567 0.315198 -0.0533807)
(0.176026 0.371295 -0.0391084)
(0.195806 0.424819 -0.0262681)
(0.200061 0.476748 -0.0169431)
(0.195533 0.524034 -0.00937639)
(0.18509 0.563282 -0.00222161)
(0.169764 0.591947 0.00509881)
(0.150135 0.608536 0.012673)
(0.126716 0.61214 0.0204274)
(0.0998537 0.602218 0.0280192)
(0.0697167 0.579143 0.0346832)
(0.0367249 0.545157 0.0394851)
(0.00171086 0.504156 0.0417091)
(-0.0343285 0.460963 0.0412949)
(-0.070755 0.420332 0.0388517)
(-0.107563 0.385635 0.0353872)
(-0.145158 0.358507 0.0318859)
(-0.183973 0.33891 0.0290549)
(-0.224145 0.325664 0.0272621)
(-0.265481 0.317063 0.0266078)
(-0.307665 0.311354 0.0270214)
(-0.350481 0.306991 0.028334)
(-0.393872 0.302676 0.0302913)
(-0.437787 0.297282 0.0325291)
(-0.481865 0.289776 0.0345347)
(-0.524937 0.27924 0.0355928)
(-0.564516 0.264999 0.0348395)
(-0.596459 0.246936 0.0313465)
(-0.614871 0.225942 0.0243165)
(-0.612707 0.204408 0.0134688)
(-0.58318 0.186462 -0.000574279)
(-0.522083 0.177443 -0.0160757)
(-0.430692 0.181892 -0.0306159)
(-0.317796 0.200448 -0.0406754)
(-0.200459 0.224767 -0.0432704)
(-0.099587 0.237652 -0.0372348)
(-0.0282418 0.218409 -0.0243047)
(-0.000248411 0.131696 -0.00713169)
(0.0119698 0.166144 -0.0268241)
(0.0703196 0.302862 -0.0568718)
(0.151394 0.376051 -0.0547861)
(0.205182 0.427288 -0.0380092)
(0.23082 0.471747 -0.0223988)
(0.237829 0.512721 -0.0111181)
(0.234135 0.548225 -0.00270576)
(0.223511 0.57564 0.0043999)
(0.2074 0.592342 0.0112762)
(0.186482 0.597098 0.0180647)
(0.161074 0.58911 0.024721)
(0.131331 0.568216 0.0307477)
(0.0975904 0.535709 0.0352575)
(0.0607658 0.494858 0.0373924)
(0.0222373 0.450479 0.0368383)
(-0.0165316 0.407674 0.0341351)
(-0.0548497 0.370541 0.0302787)
(-0.09289 0.341152 0.0264491)
(-0.131039 0.319504 0.0234652)
(-0.169542 0.304162 0.0216976)
(-0.208334 0.293159 0.0211691)
(-0.247263 0.284718 0.0217302)
(-0.286374 0.277534 0.023193)
(-0.326046 0.270743 0.0253849)
(-0.366914 0.26372 0.028128)
(-0.409625 0.25587 0.031167)
(-0.454436 0.246494 0.0340744)
(-0.500708 0.234762 0.0361997)
(-0.546363 0.219833 0.0366356)
(-0.587355 0.201199 0.0343128)
(-0.617402 0.179265 0.0281987)
(-0.628344 0.156056 0.0177006)
(-0.611455 0.135847 0.00316608)
(-0.559827 0.125026 -0.0136681)
(-0.471502 0.130706 -0.0298054)
(-0.353987 0.156546 -0.0417053)
(-0.225672 0.196073 -0.0455354)
(-0.112376 0.227742 -0.0397026)
(-0.0325725 0.222358 -0.0260168)
(-0.0010187 0.139058 -0.00830575)
(0.0127354 0.193369 -0.0250429)
(0.0770765 0.352228 -0.0562727)
(0.168332 0.429331 -0.0543863)
(0.231019 0.474756 -0.0358831)
(0.262261 0.508913 -0.0181013)
(0.271499 0.538038 -0.00536215)
(0.268074 0.561819 0.00350781)
(0.256676 0.577547 0.0100403)
(0.239004 0.58347 0.0160534)
(0.216179 0.578189 0.0217927)
(0.188234 0.560988 0.0271988)
(0.155284 0.532207 0.0315953)
(0.118029 0.493948 0.0340975)
(0.0779932 0.450258 0.0340909)
(0.0371442 0.406264 0.0317312)
(-0.00288728 0.366686 0.0279798)
(-0.0415323 0.334334 0.0240414)
(-0.0790855 0.309739 0.020916)
(-0.115925 0.291467 0.0190649)
(-0.152156 0.277324 0.0184717)
(-0.187724 0.26538 0.0188921)
(-0.222722 0.254422 0.0200758)
(-0.257609 0.243883 0.021869)
(-0.29322 0.233547 0.0242124)
(-0.33064 0.223263 0.0270757)
(-0.37097 0.212737 0.0303566)
(-0.414977 0.201413 0.0337644)
(-0.462643 0.188426 0.0367208)
(-0.512581 0.172699 0.0383199)
(-0.561329 0.153269 0.0372825)
(-0.602761 0.129896 0.032311)
(-0.628092 0.103989 0.0224212)
(-0.626872 0.0796751 0.00753618)
(-0.589489 0.0644502 -0.0108037)
(-0.510538 0.0670064 -0.0287772)
(-0.392655 0.0963841 -0.042789)
(-0.254454 0.150277 -0.048464)
(-0.126795 0.205084 -0.0429079)
(-0.0367731 0.220094 -0.0280639)
(-0.00158124 0.145347 -0.00967966)
(0.0129122 0.213587 -0.0221108)
(0.0815868 0.391953 -0.0536435)
(0.181428 0.473038 -0.0526095)
(0.25232 0.512637 -0.033173)
(0.288898 0.536432 -0.0138761)
(0.300339 0.55382 -0.000129239)
(0.296686 0.566237 0.00854246)
(0.283897 0.571507 0.0145793)
(0.264603 0.568277 0.0196438)
(0.239758 0.555007 0.0242645)
(0.209326 0.531077 0.0283556)
(0.173535 0.497278 0.0312344)
(0.133533 0.456317 0.032088)
(0.0914495 0.412594 0.0306145)
(0.049668 0.371009 0.027368)
(0.00977621 0.335352 0.0235287)
(-0.0278733 0.307053 0.0202499)
(-0.0636869 0.285251 0.0181762)
(-0.0980403 0.267716 0.0173785)
(-0.131022 0.252279 0.0175538)
(-0.162709 0.237605 0.0183554)
(-0.193429 0.223227 0.019579)
(-0.223892 0.209174 0.0211917)
(-0.255145 0.19559 0.0232733)
(-0.288466 0.182507 0.025933)
(-0.325197 0.169721 0.029211)
(-0.366515 0.156714 0.0329667)
(-0.41307 0.142591 0.0367509)
(-0.464386 0.126099 0.0396507)
(-0.518057 0.105861 0.0403338)
(-0.568883 0.0809075 0.0371726)
(-0.608286 0.051753 0.0286745)
(-0.624622 0.0218469 0.014149)
(-0.605636 -0.00110796 -0.00548693)
(-0.542067 -0.00511945 -0.0263925)
(-0.431783 0.021724 -0.0431434)
(-0.287973 0.0860289 -0.0512564)
(-0.145024 0.166663 -0.0467668)
(-0.0415094 0.209776 -0.0306702)
(-0.00177787 0.150322 -0.0111237)
(0.0125109 0.225994 -0.018468)
(0.0837495 0.420445 -0.049504)
(0.190196 0.505934 -0.0496931)
(0.268375 0.540664 -0.0304039)
(0.310149 0.554904 -0.0101267)
(0.323812 0.561294 0.00441293)
(0.319972 0.56313 0.0128132)
(0.305779 0.559512 0.0181923)
(0.284895 0.548868 0.0222772)
(0.258254 0.529623 0.025784)
(0.225792 0.501229 0.0286447)
(0.187932 0.464784 0.0302194)
(0.146251 0.423299 0.0298709)
(0.103348 0.38112 0.0275595)
(0.0618055 0.342516 0.0241087)
(0.0230334 0.310174 0.0207148)
(-0.0128584 0.284326 0.0183013)
(-0.04638 0.26323 0.0171338)
(-0.0779336 0.244575 0.0169795)
(-0.10766 0.226721 0.0174077)
(-0.135745 0.209074 0.0181106)
(-0.162645 0.191731 0.0190011)
(-0.18914 0.174996 0.0201674)
(-0.216293 0.159076 0.0217875)
(-0.245375 0.143967 0.0240566)
(-0.277789 0.129431 0.0271175)
(-0.314941 0.114952 0.0309706)
(-0.357982 0.0996648 0.0353398)
(-0.40733 0.0822892 0.0394992)
(-0.461888 0.061184 0.0421688)
(-0.517983 0.034741 0.0415397)
(-0.568279 0.00241666 0.0355961)
(-0.601484 -0.0336354 0.0227955)
(-0.603239 -0.066318 0.00321609)
(-0.560056 -0.0817408 -0.0203776)
(-0.465125 -0.0633322 -0.0411044)
(-0.324048 0.00392964 -0.0529278)
(-0.168395 0.109125 -0.0505462)
(-0.0475124 0.188484 -0.0337944)
(-0.00138144 0.153089 -0.0122986)
(0.0116154 0.230569 -0.0145475)
(0.0836668 0.437124 -0.0444384)
(0.194703 0.527492 -0.0461142)
(0.279133 0.558998 -0.0276961)
(0.32593 0.565145 -0.00702664)
(0.3421 0.561868 0.00816387)
(0.338415 0.55433 0.0162473)
(0.323036 0.543147 0.0209881)
(0.300828 0.526667 0.0241479)
(0.272826 0.503205 0.0266202)
(0.239014 0.47222 0.0283986)
(0.200009 0.434906 0.0289454)
(0.157721 0.394261 0.0278034)
(0.115006 0.354254 0.0251659)
(0.0744536 0.318364 0.0218953)
(0.0372642 0.288242 0.019116)
(0.00330724 0.263318 0.0174337)
(-0.02801 0.241584 0.0168251)
(-0.0571097 0.221115 0.0168816)
(-0.0841801 0.200953 0.0171817)
(-0.109456 0.181074 0.0175266)
(-0.13341 0.161834 0.0179461)
(-0.156788 0.143534 0.0186039)
(-0.180565 0.12625 0.0197133)
(-0.205895 0.109839 0.0214904)
(-0.23409 0.0939754 0.0241248)
(-0.266575 0.0781322 0.0277229)
(-0.304742 0.0614974 0.032199)
(-0.349634 0.0428501 0.0371025)
(-0.401331 0.0204876 0.0414122)
(-0.457865 -0.00752517 0.0434376)
(-0.513948 -0.0427154 0.0409094)
(-0.559732 -0.0844798 0.0315858)
(-0.580677 -0.127219 0.0142479)
(-0.560242 -0.157426 -0.00978224)
(-0.486022 -0.153147 -0.0347776)
(-0.356926 -0.0926716 -0.0513654)
(-0.195578 0.030255 -0.0529866)
(-0.0551747 0.152283 -0.037049)
(-0.000204728 0.151887 -0.0126828)
(0.0103925 0.227949 -0.0107206)
(0.081665 0.442255 -0.0389356)
(0.195327 0.537819 -0.0422043)
(0.284941 0.567952 -0.0252347)
(0.336628 0.567936 -0.00473603)
(0.355686 0.556892 0.0108543)
(0.352638 0.541115 0.0187668)
(0.336527 0.523548 0.023034)
(0.313394 0.502547 0.0254142)
(0.284565 0.4763 0.0269717)
(0.25015 0.444155 0.027856)
(0.210897 0.407192 0.0276545)
(0.16889 0.368138 0.0260636)
(0.127054 0.330383 0.0233935)
(0.0878426 0.296624 0.0205005)
(0.0522446 0.267745 0.0182659)
(0.0199831 0.242796 0.0170615)
(-0.0095879 0.219966 0.0166719)
(-0.0368885 0.197894 0.0166437)
(-0.0621058 0.176192 0.0166393)
(-0.0854654 0.155128 0.0165778)
(-0.107406 0.135064 0.0165682)
(-0.128597 0.116139 0.016797)
(-0.149886 0.0982384 0.0174612)
(-0.172269 0.081068 0.018751)
(-0.196891 0.0642115 0.0208529)
(-0.225053 0.0471183 0.0239274)
(-0.258165 0.0290122 0.0280363)
(-0.297577 0.00874917 0.0329945)
(-0.344102 -0.0153128 0.0381516)
(-0.397273 -0.0452844 0.0421273)
(-0.453976 -0.0832936 0.0428297)
(-0.506674 -0.130054 0.0376784)
(-0.54226 -0.182154 0.0244664)
(-0.543087 -0.227833 0.00283994)
(-0.49193 -0.243267 -0.0235489)
(-0.380759 -0.198099 -0.0449843)
(-0.22264 -0.069553 -0.0521064)
(-0.0640824 0.0964922 -0.0394257)
(0.00168174 0.143738 -0.0117599)
(0.00900402 0.219153 -0.00722454)
(0.0781377 0.436659 -0.0333844)
(0.192584 0.537459 -0.0382375)
(0.286359 0.568066 -0.0231847)
(0.342994 0.563953 -0.00338369)
(0.365155 0.546559 0.012033)
(0.363169 0.524262 0.0202733)
(0.347068 0.501482 0.0243598)
(0.323519 0.477021 0.0261699)
(0.294412 0.44907 0.0269958)
(0.260085 0.416774 0.0271834)
(0.221349 0.380939 0.0264749)
(0.180285 0.343834 0.0246897)
(0.139719 0.308213 0.0221558)
(0.101908 0.276067 0.0196444)
(0.0676679 0.247835 0.017816)
(0.0366642 0.222545 0.0168511)
(0.00826611 0.198798 0.0164537)
(-0.0179061 0.175767 0.0162083)
(-0.0420013 0.153417 0.0158852)
(-0.0642049 0.132073 0.0154931)
(-0.0849028 0.111957 0.015177)
(-0.10468 0.0930048 0.0151084)
(-0.124265 0.0749333 0.0154432)
(-0.144498 0.0573359 0.0163258)
(-0.166344 0.0397345 0.0179098)
(-0.190919 0.0215557 0.0203617)
(-0.219505 0.0020405 0.0238225)
(-0.253482 -0.0199061 0.0282985)
(-0.294113 -0.0458861 0.0334621)
(-0.34196 -0.0781248 0.0384125)
(-0.395713 -0.119119 0.0414436)
(-0.45041 -0.170668 0.0400864)
(-0.495385 -0.231408 0.0316709)
(-0.513617 -0.292254 0.0145726)
(-0.484713 -0.330305 -0.00976157)
(-0.393833 -0.307251 -0.0343059)
(-0.245635 -0.186292 -0.0466036)
(-0.0738332 0.0169643 -0.039171)
(0.0037161 0.124633 -0.00897147)
(0.00758729 0.205382 -0.00421966)
(0.073518 0.421567 -0.0281112)
(0.187072 0.527258 -0.0343888)
(0.283945 0.560009 -0.021563)
(0.345332 0.553851 -0.0028339)
(0.37115 0.531729 0.0123773)
(0.370991 0.504473 0.0209588)
(0.355497 0.477516 0.025055)
(0.332023 0.450405 0.0265084)
(0.303133 0.421479 0.0267999)
(0.269461 0.389683 0.0264805)
(0.231836 0.35543 0.0254567)
(0.192183 0.320433 0.0236378)
(0.153087 0.28681 0.0213282)
(0.116582 0.256001 0.0191429)
(0.0833891 0.228232 0.0175737)
(0.0531976 0.202731 0.0166826)
(0.0254574 0.178552 0.0161684)
(-0.000132334 0.155269 0.0156919)
(-0.0236621 0.132998 0.0151161)
(-0.0452687 0.111978 0.0145036)
(-0.0652824 0.0922427 0.0140019)
(-0.0842163 0.0735577 0.013752)
(-0.102702 0.0555235 0.0138642)
(-0.121455 0.0376727 0.0144357)
(-0.141274 0.0195009 0.0155776)
(-0.163081 0.000424842 0.0174323)
(-0.187962 -0.0203117 0.0201585)
(-0.217202 -0.0437979 0.0238704)
(-0.252206 -0.0716474 0.0285021)
(-0.294158 -0.106126 0.0335682)
(-0.343168 -0.150077 0.037877)
(-0.396612 -0.206211 0.0393675)
(-0.446653 -0.27503 0.0353622)
(-0.478099 -0.350387 0.0234775)
(-0.469282 -0.411937 0.00330799)
(-0.399146 -0.41802 -0.0210317)
(-0.263911 -0.315349 -0.0376733)
(-0.0853897 -0.0875225 -0.0355423)
(0.00466993 0.0912471 -0.0037911)
(0.00624584 0.187886 -0.00178264)
(0.0682053 0.398483 -0.0233385)
(0.179382 0.508262 -0.0307911)
(0.278306 0.544534 -0.020354)
(0.34419 0.538319 -0.00298375)
(0.374197 0.513329 0.0119828)
(0.376689 0.482388 0.0209116)
(0.362465 0.452107 0.0251846)
(0.339563 0.422913 0.0264991)
(0.311316 0.393444 0.0264563)
(0.278738 0.36249 0.0258021)
(0.242652 0.330041 0.0246107)
(0.204728 0.297219 0.0228589)
(0.167212 0.265536 0.0207926)
(0.131909 0.236025 0.0188762)
(0.0994957 0.208843 0.0174631)
(0.0697651 0.183491 0.0165594)
(0.0422997 0.159425 0.0159028)
(0.0169008 0.136474 0.0152379)
(-0.00645804 0.114772 0.0144924)
(-0.0278623 0.0944063 0.013753)
(-0.0475932 0.0752509 0.0131495)
(-0.0661084 0.0569448 0.0127926)
(-0.0839672 0.0390277 0.0127554)
(-0.10179 0.0210125 0.0130959)
(-0.120245 0.00240052 0.0138837)
(-0.140076 -0.0173898 0.015223)
(-0.162162 -0.0391171 0.0172559)
(-0.187602 -0.0638809 0.0201425)
(-0.217756 -0.0933136 0.0239775)
(-0.254148 -0.129781 0.028613)
(-0.29792 -0.176441 0.0333725)
(-0.348436 -0.23682 0.0367511)
(-0.40068 -0.313176 0.0363661)
(-0.441971 -0.402379 0.029472)
(-0.450678 -0.487621 0.0142416)
(-0.400932 -0.527031 -0.00778179)
(-0.280232 -0.451863 -0.0274939)
(-0.100644 -0.214093 -0.0286155)
(0.00305375 0.0424115 0.00211648)
(0.00504768 0.16787 7.41318e-05)
(0.0625329 0.36906 -0.0191961)
(0.170057 0.481685 -0.0275346)
(0.27 0.522454 -0.0195133)
(0.340054 0.517961 -0.00372749)
(0.374693 0.491844 0.0109131)
(0.38065 0.458465 0.0201815)
(0.368425 0.425603 0.0247868)
(0.346627 0.394717 0.0261816)
(0.319399 0.364895 0.0260045)
(0.288235 0.334882 0.0251719)
(0.25398 0.304274 0.0239231)
(0.218006 0.27363 0.022295)
(0.182171 0.243915 0.0204698)
(0.148028 0.215833 0.0187782)
(0.116247 0.189531 0.017468)
(0.0867648 0.164768 0.0165265)
(0.0593308 0.141297 0.0157488)
(0.033863 0.119098 0.0149525)
(0.0103953 0.0982488 0.0141065)
(-0.0111031 0.078707 0.0133038)
(-0.0308678 0.0602049 0.0126445)
(-0.0493168 0.0423147 0.0122189)
(-0.0669545 0.0245531 0.0120736)
(-0.0843277 0.00644304 0.0122394)
(-0.102007 -0.0125052 0.0127475)
(-0.120593 -0.0328426 0.0136661)
(-0.140761 -0.0553226 0.0151043)
(-0.163392 -0.0810524 0.0172226)
(-0.189707 -0.111709 0.0202059)
(-0.221362 -0.149783 0.0241622)
(-0.26023 -0.19876 0.0288842)
(-0.307326 -0.262962 0.0334746)
(-0.360237 -0.346322 0.0360173)
(-0.409025 -0.448667 0.0336264)
(-0.432921 -0.557078 0.0232305)
(-0.402871 -0.631179 0.00396428)
(-0.297918 -0.59181 -0.0175868)
(-0.121471 -0.357429 -0.0211961)
(-0.00244515 -0.0215716 0.00579213)
(0.00402828 0.146445 0.00139084)
(0.0567485 0.335002 -0.0157366)
(0.159544 0.448866 -0.024665)
(0.259499 0.494626 -0.0189777)
(0.333269 0.493339 -0.00494138)
(0.372888 0.46774 0.0092715)
(0.383096 0.433069 0.0188226)
(0.373637 0.398285 0.023887)
(0.353525 0.365973 0.0255697)
(0.327683 0.335812 0.0254557)
(0.298172 0.306643 0.0245892)
(0.265938 0.277763 0.0233667)
(0.232078 0.249235 0.0218931)
(0.198043 0.221541 0.0203003)
(0.165122 0.195097 0.0188097)
(0.133969 0.17003 0.017588)
(0.104672 0.146279 0.0166218)
(0.0771552 0.123797 0.0157644)
(0.051457 0.102633 0.0148923)
(0.027685 0.0828044 0.0139963)
(0.00584844 0.0641648 0.0131616)
(-0.0142406 0.0463534 0.0124711)
(-0.0329476 0.0289094 0.0119943)
(-0.0507368 0.0113491 0.0117614)
(-0.0681126 -0.00678378 0.0117813)
(-0.0855611 -0.0259479 0.0120695)
(-0.103557 -0.0466642 0.0126528)
(-0.122616 -0.0696631 0.0136055)
(-0.143409 -0.0960538 0.0150681)
(-0.166965 -0.127559 0.0172714)
(-0.194959 -0.166814 0.0205175)
(-0.22978 -0.217683 0.0250211)
(-0.273814 -0.285336 0.0305092)
(-0.326973 -0.375396 0.0356307)
(-0.381961 -0.490555 0.0374804)
(-0.419269 -0.621691 0.031819)
(-0.407819 -0.73081 0.0154652)
(-0.318876 -0.732509 -0.00723895)
(-0.14882 -0.5109 -0.01581)
(-0.012987 -0.0986578 0.00498668)
(0.00319209 0.124598 0.00224848)
(0.0510203 0.297991 -0.0129403)
(0.148191 0.41124 -0.0221886)
(0.247162 0.461963 -0.0186775)
(0.324113 0.465006 -0.00651052)
(0.368837 0.441345 0.00706053)
(0.383976 0.406417 0.0168536)
(0.378122 0.37034 0.0224904)
(0.360374 0.336816 0.0246524)
(0.336333 0.30623 0.0247927)
(0.308688 0.277669 0.0240321)
(0.278601 0.250272 0.0229085)
(0.246974 0.223711 0.0216064)
(0.214885 0.198052 0.0202354)
(0.183343 0.173443 0.0189353)
(0.152951 0.149946 0.0178109)
(0.123917 0.12758 0.0168522)
(0.096327 0.106401 0.0159613)
(0.0703313 0.0864794 0.0150591)
(0.0461105 0.067784 0.0141499)
(0.0237287 0.0500957 0.0133024)
(0.00305133 0.0330197 0.0125931)
(-0.0162355 0.0160791 0.0120719)
(-0.0345524 -0.00119802 0.0117601)
(-0.0523529 -0.0192447 0.0116578)
(-0.070066 -0.0384735 0.0117604)
(-0.0880796 -0.0593796 0.0120746)
(-0.106774 -0.0826601 0.0126426)
(-0.126635 -0.109413 0.0135797)
(-0.148513 -0.141397 0.0151406)
(-0.174038 -0.181408 0.0177846)
(-0.205994 -0.23375 0.0221186)
(-0.247946 -0.304597 0.0285044)
(-0.301853 -0.401465 0.0362146)
(-0.362721 -0.529912 0.0423741)
(-0.412082 -0.684053 0.0415414)
(-0.417123 -0.827635 0.0280032)
(-0.343103 -0.870445 0.00324275)