/*--------------------------------*- C++ -*----------------------------------*\
| =========                 |                                                 |
| \\      /  F ield         | OpenFOAM: The Open Source CFD Toolbox           |
|  \\    /   O peration     | Version:  v1806                                 |
|   \\  /    A nd           | Web:      www.OpenFOAM.com                      |
|    \\/     M anipulation  |                                                 |
\*---------------------------------------------------------------------------*/
FoamFile
{
    version     2.0;
    format      ascii;
    class       vectorField;
    location    "0.138";
    object      currentcloudofpoints;
}
// * * * * * * * * * * * * * * * * * * * * * * * * * * * * * * * * * * * * * //


2409
(
(1.52054 1.77953 1.49949)
(0.696377 1.35579 1.6381)
(0.834431 1.42258 1.42461)
(1.51958 1.65502 0.749017)
(1.29327 1.72503 1.11917)
(1.05563 1.29016 0.871389)
(1.35099 1.113 1.38135)
(0.659339 1.30695 0.885145)
(0.737573 1.25388 0.831873)
(1.09872 0.912685 0.920681)
(0.840411 1.37172 1.35067)
(1.31956 0.916085 1.39098)
(1.52135 1.37609 1.08852)
(1.32656 1.36342 0.946414)
(1.33892 0.917998 1.15432)
(0.978259 1.26775 1.64837)
(1.43093 0.942134 1.38378)
(1.40027 1.54636 1.2654)
(1.74643 1.14466 1.06261)
(1.64256 1.48426 1.44657)
(0.346588 1.03068 1.15036)
(0.923112 1.67329 1.12058)
(1.6139 1.39835 1.4191)
(1.53488 1.41264 1.13832)
(0.611085 1.35106 1.30079)
(0.841421 1.08071 1.55376)
(0.690346 0.896564 1.25012)
(0.971509 1.63318 1.53984)
(1.56245 1.63541 1.4234)
(1.54758 1.44893 0.780378)
(0.787221 1.7058 0.988112)
(1.49498 1.46597 0.650788)
(1.09104 1.14792 0.795928)
(0.764387 1.57519 0.753896)
(1.38034 0.992818 0.731092)
(0.89493 1.19684 0.560615)
(1.54563 1.42435 0.805961)
(1.46504 1.40428 0.684126)
(1.16477 1.39676 0.294292)
(0.780737 1.11723 0.905525)
(0.736399 1.59582 0.731893)
(1.1239 0.876527 1.01873)
(0.925117 1.19331 0.556017)
(1.57841 1.19032 0.591705)
(0.478799 1.3492 0.849539)
(0.935568 1.49383 0.380225)
(1.05728 1.33981 0.444362)
(1.56256 1.39302 1.08052)
(1.26266 1.17978 1.6393)
(1.38322 1.495 1.60703)
(0.582542 0.947344 0.985329)
(1.40305 1.54942 1.17365)
(1.64772 1.61428 1.50012)
(1.53269 1.36188 1.56144)
(1.68363 1.24625 1.18891)
(1.39279 1.56463 1.63702)
(1.16997 1.42184 1.45324)
(1.53636 1.62657 0.45017)
(1.1363 1.78917 0.807108)
(1.20191 1.47426 0.607439)
(1.49466 1.58119 1.25781)
(0.942372 1.09516 0.599927)
(1.26518 1.35099 0.73971)
(0.633012 1.74702 0.942037)
(1.42939 1.492 0.726165)
(1.17378 1.26919 1.47044)
(1.59814 1.71597 1.29628)
(1.88949 1.2836 1.24104)
(1.49261 1.31361 1.07513)
(1.5718 1.54304 1.37755)
(0.395307 1.01147 1.18867)
(1.57865 1.54084 1.21064)
(0.765978 1.15647 1.13342)
(1.25685 1.63807 0.794349)
(1.29806 1.28725 0.570224)
(1.59394 1.31186 1.23167)
(1.69794 1.38147 1.09983)
(1.37111 1.04434 1.49305)
(0.675733 1.47638 1.07326)
(1.77532 1.14195 1.39508)
(1.57323 1.26937 1.26464)
(1.66033 0.990752 1.11656)
(1.32183 1.25527 1.55158)
(0.497597 0.901557 0.992991)
(0.638691 1.48567 1.27824)
(0.806194 0.996883 1.61146)
(1.39884 1.6075 1.52995)
(0.995236 1.03409 1.61971)
(0.994188 0.980424 1.65135)
(1.48935 1.33901 1.1959)
(0.765708 1.03176 1.17319)
(0.575262 1.13453 1.14905)
(0.512268 1.54562 1.2487)
(1.14582 1.34856 1.65833)
(0.903275 0.975203 1.62897)
(0.905611 0.984511 1.20342)
(1.23629 1.64493 1.0513)
(0.865029 1.27761 1.28532)
(0.977547 1.4995 1.71316)
(0.919445 0.947346 1.16386)
(0.965636 1.03788 1.39148)
(1.26659 0.895134 1.30647)
(0.853676 1.35262 1.44859)
(1.2383 1.52264 0.791358)
(0.731975 1.17992 0.910928)
(1.37077 0.947599 1.56765)
(0.954094 1.41865 1.70145)
(0.89283 1.33231 1.42407)
(1.00922 1.2819 1.6582)
(0.678454 1.20654 1.30703)
(1.58298 1.3537 1.5066)
(0.650961 1.48073 0.75346)
(0.853945 1.15962 0.979433)
(1.19578 0.850687 0.899765)
(0.870736 1.68956 1.08931)
(0.795616 0.998991 0.468792)
(0.778677 1.89572 0.849995)
(0.860566 1.45997 0.471482)
(1.11944 1.03704 0.385382)
(1.01308 1.13766 0.31795)
(1.16947 1.00788 1.15856)
(1.13633 1.19955 0.251101)
(0.943552 1.40184 0.977166)
(1.06104 1.54502 1.50168)
(1.04962 0.933819 0.442498)
(0.782523 1.19617 0.500719)
(1.05775 1.0587 0.621489)
(1.02881 1.37067 0.356442)
(0.628047 1.38456 0.811999)
(0.622634 0.968521 1.0274)
(0.731661 1.67329 0.901345)
(1.15091 1.15842 0.826388)
(1.39286 1.38793 0.462647)
(1.33775 1.31499 0.31157)
(1.07844 1.09714 0.759354)
(0.644269 1.39033 0.769556)
(0.65871 1.45659 0.7038)
(1.09518 0.873423 1.03012)
(1.01408 0.926833 0.736351)
(1.37474 1.37529 0.311995)
(1.37137 1.2536 0.358198)
(1.35531 1.17853 0.399175)
(1.30048 0.957167 0.432019)
(1.75881 1.48583 1.19118)
(1.36705 1.78683 1.26632)
(1.6829 1.47027 1.46262)
(1.20216 1.77389 1.42337)
(0.716146 1.15893 1.1849)
(0.781147 1.01958 0.970279)
(0.831703 1.34974 0.684121)
(1.3048 1.78997 1.10256)
(1.48536 1.18269 0.686698)
(1.17945 1.39779 0.761311)
(1.65516 1.21993 1.39749)
(1.36286 1.59832 1.37185)
(1.23043 1.34453 1.67682)
(0.747008 0.768508 1.16405)
(1.53743 0.946037 1.21787)
(1.52706 1.83635 0.660155)
(1.21535 1.57459 0.846848)
(1.61173 1.81973 0.789652)
(0.896336 1.23283 0.796249)
(1.39398 1.67065 0.432319)
(0.757475 1.22612 0.604943)
(1.02771 1.4356 0.306037)
(1.22764 1.29064 1.06286)
(1.34934 1.65463 0.718289)
(1.29478 1.70449 0.819047)
(1.3433 1.65308 1.05305)
(1.33272 1.84389 0.537037)
(1.20144 1.57164 0.322373)
(1.29565 0.949773 0.45182)
(1.33304 0.982265 0.429346)
(0.9451 0.902176 0.998616)
(1.13786 1.39804 0.865926)
(1.13274 1.70367 1.10729)
(1.29499 1.77628 0.6602)
(1.57421 1.51911 1.50019)
(1.42484 1.11993 1.12078)
(0.821457 1.4003 1.53551)
(1.01911 1.66159 0.967337)
(0.976005 1.33862 1.13923)
(1.28714 1.61672 0.751889)
(0.885541 1.50954 0.302881)
(1.77713 1.32375 1.41353)
(1.58011 1.13653 1.32492)
(0.433259 1.30563 1.09389)
(0.900833 1.01965 1.15211)
(1.47685 1.34798 1.01905)
(1.40287 0.998096 1.22114)
(0.963084 1.14074 0.886423)
(1.38566 1.0458 1.07429)
(1.64903 1.27114 1.22376)
(1.39795 1.09592 1.33088)
(1.23626 1.35048 1.25769)
(1.66582 1.49676 1.07425)
(1.17914 1.42299 1.55201)
(1.74115 1.06768 1.13645)
(1.0221 1.12548 0.904486)
(1.63772 1.15481 1.26465)
(1.65147 1.31335 1.22178)
(1.35968 1.10803 1.42434)
(0.748425 1.54204 0.656664)
(1.32372 1.54633 0.546147)
(1.28076 1.00375 0.415915)
(0.84493 1.51875 1.03927)
(1.26298 1.60291 1.57791)
(1.61214 1.56837 1.23807)
(0.960395 1.38366 1.60753)
(0.760624 1.43715 0.585279)
(0.945444 1.45045 0.476927)
(0.589936 1.766 0.8222)
(1.27536 1.76377 0.775404)
(1.33689 1.29275 0.550585)
(0.773699 1.63172 0.552114)
(1.25972 1.13473 1.116)
(1.31532 1.23181 0.80274)
(1.56893 1.62476 1.19947)
(1.65946 1.27493 1.27743)
(1.36337 1.32524 1.48858)
(1.11869 1.19381 1.07039)
(1.30788 1.08483 1.01149)
(1.63072 0.991053 1.24834)
(1.05647 1.3984 1.08875)
(1.64664 1.23736 0.988717)
(1.78168 1.10174 1.02987)
(1.3063 1.3293 0.788447)
(1.50405 1.11123 1.13918)
(1.62813 1.02469 1.16659)
(0.73386 1.4978 0.934196)
(1.54187 1.17209 1.29472)
(1.61495 1.05855 1.16834)
(1.55981 1.0718 1.13263)
(1.12719 1.65974 1.13728)
(0.988786 1.43426 1.68717)
(1.55214 1.41566 1.42426)
(1.31795 1.40048 0.722173)
(1.26066 1.56149 0.755056)
(1.48875 1.59819 1.16369)
(1.14105 1.3527 0.550916)
(1.69275 1.66727 1.09611)
(1.51646 0.984604 1.32415)
(1.59851 1.4546 1.02043)
(1.16844 1.72507 1.34857)
(0.837661 1.16756 1.20565)
(0.801461 1.23873 0.814188)
(1.5842 1.60349 1.19409)
(1.28028 1.52262 0.609218)
(1.4169 1.01731 1.31897)
(1.67129 1.16541 0.964553)
(1.71384 0.982529 1.14279)
(0.921649 0.949745 1.33678)
(1.23596 1.39278 1.49569)
(0.974866 1.37491 1.67805)
(0.824884 0.774286 1.31677)
(0.926983 1.4295 1.72806)
(1.32235 1.28715 1.3551)
(0.690076 1.34093 0.739279)
(1.20466 1.09865 1.06974)
(0.658198 1.29527 0.77859)
(1.14548 1.38919 1.28467)
(1.73582 1.31624 1.23364)
(0.753786 1.15616 0.944994)
(1.13677 1.80515 0.770716)
(1.64151 1.1544 1.33046)
(1.20159 1.20468 1.0727)
(1.20835 1.35902 1.27281)
(0.946733 1.20865 1.04923)
(0.887456 1.17708 0.543556)
(0.855084 1.25786 0.678725)
(0.651314 1.38573 0.759398)
(0.795022 1.31884 0.66527)
(0.873325 1.2803 0.636692)
(1.41955 0.978895 1.09565)
(1.26398 1.30866 1.05882)
(1.16208 1.16061 1.0727)
(1.37588 1.31728 0.934962)
(1.19997 1.70916 1.41074)
(1.28302 1.34812 0.91334)
(1.56028 1.22748 0.943937)
(1.35843 1.80744 1.13454)
(1.38609 1.74342 1.12941)
(1.55327 1.39181 1.15861)
(1.83225 1.14275 1.01335)
(1.6829 1.17357 0.942459)
(1.23089 1.85051 1.35542)
(1.58943 1.12785 1.18291)
(1.58826 1.09215 1.27326)
(1.76733 1.05054 1.22467)
(1.76727 1.26602 0.951283)
(1.37908 1.09699 1.33861)
(1.66157 1.35162 1.21529)
(1.06983 1.24894 1.07225)
(1.43119 1.01536 1.30319)
(1.64905 1.20747 1.29987)
(1.60655 1.03966 1.30103)
(1.33484 1.71345 1.15191)
(1.3246 1.67975 1.14365)
(1.2837 1.73567 1.07533)
(1.16038 1.18416 0.818353)
(1.58266 1.69993 1.17043)
(1.20927 1.65405 1.25558)
(0.861815 1.30171 0.662256)
(1.67938 1.23852 0.926065)
(1.72944 1.47092 1.02915)
(1.51135 1.2931 1.6442)
(1.71648 1.30844 1.26037)
(1.49311 1.23751 1.20776)
(0.977822 1.28341 1.61038)
(1.61123 1.04349 1.17996)
(1.5747 1.11591 1.23615)
(0.954786 1.36519 0.719871)
(1.33454 0.971202 1.3847)
(0.7948 1.06901 1.1489)
(1.109 1.4364 1.62518)
(0.941679 1.31416 1.53518)
(1.82148 1.32655 1.03247)
(1.76833 1.31872 1.13541)
(1.61085 1.07419 1.15158)
(1.28482 1.21601 0.93824)
(1.61643 1.31026 0.98405)
(1.47278 1.16561 1.22712)
(1.65976 1.0763 1.07448)
(1.63296 1.06807 1.17947)
(1.61691 1.05935 1.15695)
(1.63595 1.05043 1.18382)
(1.59825 1.01552 1.12905)
(1.76611 1.218 1.03435)
(1.74049 1.59669 1.32716)
(1.11387 1.75402 0.772433)
(1.37303 1.79003 1.15882)
(1.24604 1.74701 1.07655)
(1.30467 1.65833 1.43842)
(1.13968 1.5729 1.14931)
(1.49056 1.41495 0.960631)
(1.09125 1.7816 1.38182)
(1.40071 1.74339 1.26605)
(1.32283 1.46932 0.60689)
(1.35987 1.64349 1.44992)
(1.23222 1.37662 0.620305)
(1.64212 1.21691 1.39774)
(0.869306 1.68355 1.04451)
(0.876249 1.11678 0.491552)
(1.67337 1.39945 1.4357)
(1.66933 1.43961 1.42218)
(1.34647 1.69875 0.593246)
(1.0652 1.74932 1.36034)
(1.25906 1.25442 0.759804)
(0.922228 0.96548 1.20228)
(1.29442 1.49248 0.807754)
(0.911162 1.17691 1.02299)
(0.974949 1.42248 1.67585)
(0.585662 1.39052 1.13496)
(1.30785 1.60138 1.3752)
(1.81676 1.24549 1.21657)
(1.24939 1.62555 1.2563)
(1.83964 1.41911 1.05301)
(1.45942 1.50686 1.4506)
(1.47311 1.25461 0.881191)
(1.62081 1.04155 1.24133)
(0.856769 1.3065 1.34789)
(0.886082 1.34741 1.55817)
(1.33038 1.61052 1.45177)
(0.824377 1.49944 1.15963)
(1.88077 1.36705 1.01357)
(1.54369 1.00877 1.08749)
(1.51738 0.978932 1.08916)
(0.96132 1.25903 1.09351)
(1.60345 1.09258 1.19936)
(1.59023 0.976419 1.17018)
(1.77049 1.19138 1.00473)
(1.55205 0.968547 1.25963)
(1.15572 1.81093 1.06148)
(1.72082 1.58403 1.23906)
(1.31746 1.15377 1.11192)
(1.65662 1.32318 1.0533)
(1.48346 1.08486 1.20796)
(1.7041 1.17756 0.912095)
(1.40549 1.17867 1.04861)
(1.56387 1.04387 1.16108)
(1.10172 1.19447 1.68541)
(0.605249 1.43865 1.38031)
(0.478604 1.31151 1.29055)
(0.922056 1.08861 1.29125)
(0.717454 1.53057 1.44603)
(1.22108 1.39757 1.61914)
(0.456888 1.0016 1.33848)
(1.49109 1.59565 1.11662)
(0.524059 1.32844 1.12687)
(1.32508 1.42328 1.56624)
(0.861837 0.974197 1.57943)
(1.26113 1.18451 0.838941)
(0.866456 1.17495 1.7223)
(0.793719 1.21249 1.26093)
(1.2382 1.47202 1.67343)
(0.589284 1.31138 1.20572)
(0.592401 1.49206 1.28234)
(1.02496 1.14819 1.59824)
(0.28046 1.35147 1.20317)
(0.853539 1.30978 1.65251)
(1.09993 1.26269 1.65765)
(1.17777 1.55417 1.45525)
(1.29024 1.49809 1.48847)
(0.850598 0.96862 1.5941)
(0.970047 1.22114 1.642)
(1.38979 1.54586 1.12353)
(1.40852 1.0737 1.1797)
(0.553116 1.55614 1.26251)
(0.491264 1.37322 1.15464)
(0.656785 1.311 1.23832)
(0.9449 1.2791 1.46404)
(0.692864 1.02932 1.61368)
(1.20114 1.13794 1.25216)
(0.980426 1.02881 1.26849)
(0.783937 1.4368 1.10261)
(1.45589 1.52893 1.10227)
(1.69218 1.5683 1.28227)
(0.374173 1.08336 1.22032)
(0.645165 1.05249 1.33361)
(0.517818 1.34361 1.09246)
(1.06993 1.65562 1.40253)
(0.241762 1.34779 0.88819)
(0.531512 1.48927 1.49077)
(0.742723 1.3428 1.4646)
(0.489377 0.933143 1.1178)
(0.289499 1.49884 1.09274)
(0.282233 1.32584 1.1412)
(0.723236 1.34501 1.50735)
(1.03236 1.01266 1.58072)
(1.27949 1.10983 1.15949)
(1.16316 1.15385 1.5727)
(0.843575 0.838265 1.35194)
(0.864682 1.3469 1.04939)
(1.53808 0.966454 1.17337)
(1.07287 1.22913 1.06375)
(1.36627 1.56214 1.60096)
(1.33143 1.47686 1.39376)
(0.869217 1.23129 0.957502)
(0.731398 1.56815 1.40458)
(1.29939 1.13174 1.06957)
(1.26087 1.73627 1.50767)
(0.514939 1.60191 1.42427)
(0.56533 1.57143 1.16208)
(1.29836 1.67286 1.23568)
(0.792002 1.69387 1.47637)
(0.632938 1.22092 1.52799)
(1.56911 1.46827 1.11813)
(0.820923 1.00325 1.13212)
(0.309026 0.92695 1.15771)
(0.301548 1.42534 1.23341)
(1.03524 1.21756 1.30227)
(0.898525 1.3818 1.48921)
(1.1591 1.26274 0.80914)
(0.903474 0.947868 0.90939)
(0.613387 1.47177 1.43376)
(1.57206 1.65468 1.39295)
(1.40845 1.35171 1.31519)
(1.37619 1.7901 1.28538)
(1.58416 1.80314 0.782694)
(1.31554 1.37066 0.636792)
(1.07874 1.13492 1.66406)
(0.951213 1.05694 1.4867)
(1.5821 1.64246 1.20301)
(1.27829 1.51543 1.5069)
(1.36726 1.80172 1.41004)
(1.24154 1.43161 1.52358)
(1.20046 1.51026 1.71805)
(1.25884 1.09836 1.51546)
(1.15786 1.53126 1.74021)
(0.783971 1.03731 1.39905)
(1.00315 1.13652 1.55765)
(0.918803 1.43877 1.70586)
(0.993406 1.05733 1.65649)
(0.682509 1.26082 1.09188)
(1.01872 1.09198 1.61782)
(1.08405 1.18905 1.66239)
(1.02144 1.11058 1.59972)
(0.728147 0.837955 1.23665)
(1.10721 1.21558 1.6495)
(1.33982 1.57363 1.32697)
(1.22721 1.27472 1.10046)
(1.37382 1.37593 1.42536)
(1.31737 1.54539 1.58883)
(1.37834 1.50651 1.4194)
(1.22216 1.30398 1.67695)
(1.41993 1.42233 0.748515)
(1.25985 1.65223 1.28045)
(0.820615 0.74819 1.26835)
(0.389293 1.35092 0.983009)
(1.48147 1.54409 1.36248)
(0.598416 1.30003 1.25773)
(1.12778 1.10234 1.40464)
(0.968912 1.13354 1.66599)
(1.00036 1.06248 1.26989)
(1.0136 1.54374 1.40753)
(1.24269 1.40802 1.5886)
(1.18505 1.60949 1.25543)
(0.476764 1.49765 1.35617)
(1.02533 1.59678 1.25231)
(0.812241 1.57188 1.48675)
(0.792886 1.38248 1.5586)
(1.82658 1.43305 1.26354)
(0.300939 1.22573 0.988715)
(0.809442 0.994095 1.13689)
(1.5702 1.5979 1.0618)
(1.17377 1.70295 1.39563)
(1.76549 1.48567 1.2128)
(1.20606 1.34753 1.05877)
(1.65772 1.46704 1.24704)
(1.22738 1.06126 1.40684)
(0.836056 0.753157 1.21629)
(0.670897 1.34475 1.5547)
(1.05034 1.61061 1.42093)
(0.888214 1.409 1.29649)
(1.18922 0.928761 0.760353)
(0.926567 1.22801 0.95024)
(0.972221 1.46759 1.26711)
(1.40257 1.67671 1.45445)
(1.59631 1.4687 1.2748)
(1.74587 1.53304 1.05065)
(1.46612 1.57971 1.06244)
(0.839015 1.42099 1.53175)
(0.87577 1.63505 1.60625)
(0.983601 1.56988 1.57072)
(1.60788 1.24875 1.40937)
(1.35901 1.7268 1.51931)
(0.970435 1.10431 1.73961)
(0.962492 1.09111 1.72061)
(1.26358 1.50576 0.699268)
(0.897849 1.70739 1.49662)
(1.02023 1.43228 1.77655)
(0.870994 0.971502 1.58841)
(0.772222 1.40181 1.69051)
(0.938414 1.64803 1.42198)
(0.395792 1.36216 1.15106)
(1.24853 1.11524 1.54166)
(0.658422 1.28302 1.57445)
(1.07566 1.54735 1.44582)
(1.09998 1.3247 1.75211)
(1.07122 1.86498 0.94093)
(1.17602 1.39853 1.20834)
(0.547114 1.63758 1.25439)
(0.69266 1.44178 1.40398)
(0.628449 1.47587 1.32704)
(1.53094 1.5533 1.3744)
(1.10156 1.56844 0.724444)
(0.69722 1.23991 1.61584)
(0.520225 1.32809 1.10248)
(0.781066 0.922651 1.35834)
(0.53002 1.6843 0.774916)
(1.17781 1.76927 0.944284)
(1.24455 1.0574 0.505976)
(0.632169 1.444 0.716796)
(1.26892 1.47183 1.16393)
(1.32481 1.719 0.6739)
(1.1905 1.75984 0.867296)
(1.084 1.39566 0.464378)
(0.835519 1.00971 0.68596)
(1.60361 1.77826 0.833631)
(1.52112 1.80037 0.810367)
(1.36175 1.48412 0.480171)
(1.10859 1.82862 0.874149)
(0.557002 1.64584 0.76257)
(0.592994 1.31536 0.581438)
(1.50145 1.71333 0.542974)
(0.993737 1.4152 0.287848)
(0.684361 1.43179 0.56937)
(1.16967 0.933833 0.657109)
(1.18054 1.46714 0.531916)
(0.908686 1.83841 1.03273)
(0.60594 1.58859 0.49435)
(0.743859 1.44956 0.853468)
(0.847715 1.35864 0.624942)
(1.55491 1.39894 0.656548)
(0.761401 1.2698 0.37624)
(0.756089 1.27531 0.695957)
(1.14938 1.12326 1.25223)
(1.0761 1.68271 0.303452)
(1.24897 1.67288 0.595377)
(0.869039 1.44098 0.190095)
(1.36254 1.48832 0.608013)
(1.30724 1.75034 0.956086)
(1.00598 1.45198 0.331965)
(0.848148 1.65744 0.411131)
(1.45858 1.25541 0.355384)
(0.545259 1.70993 1.03718)
(0.481656 1.56547 0.679673)
(1.03829 0.747139 0.860356)
(0.845524 1.17578 0.366192)
(0.84962 1.39298 0.622551)
(1.06021 1.24133 1.53036)
(1.56199 1.5045 0.899146)
(0.793703 1.32638 0.576915)
(1.13204 1.01447 0.593493)
(0.847525 1.32593 0.21472)
(1.24631 1.44329 0.415809)
(1.02046 0.916819 0.701817)
(1.4262 1.63325 0.458703)
(0.797561 1.51897 1.12374)
(1.31469 1.38769 0.5036)
(1.04231 1.52328 0.293864)
(1.15 1.50596 0.52256)
(0.978227 1.77565 1.05945)
(1.49482 1.57623 0.465823)
(1.48684 1.56833 0.508833)
(1.28869 1.70173 0.541334)
(1.01927 1.5231 0.372027)
(1.08591 1.28669 0.272207)
(1.19413 1.0467 0.57948)
(1.241 1.09205 0.535782)
(1.36671 1.63726 0.698717)
(1.25494 1.82805 0.989488)
(1.27324 1.80001 0.913749)
(1.4444 1.71972 0.580492)
(1.52891 1.71859 0.541185)
(1.48985 1.39465 1.06575)
(1.37343 1.24593 0.79863)
(1.56574 1.66185 0.500195)
(1.37526 1.69341 0.640147)
(1.23426 1.75635 0.728013)
(1.31147 1.5736 1.15345)
(1.31345 1.58217 1.15231)
(1.05616 0.826192 0.492861)
(0.905578 1.00277 0.286478)
(1.19044 1.78991 0.401545)
(1.25521 1.82674 0.502549)
(1.07932 1.29015 0.302077)
(0.510042 1.445 0.653972)
(0.991006 1.30286 0.414199)
(0.656844 1.08705 0.393734)
(1.05307 1.37865 1.54148)
(0.791914 0.926632 0.783261)
(0.781242 1.28358 0.76238)
(1.22728 1.32314 0.221348)
(0.991358 1.15156 0.28852)
(0.447229 1.72379 0.927642)
(1.26863 1.79028 0.916722)
(0.909971 1.8893 0.857757)
(0.887858 1.46913 0.908661)
(1.47917 1.69662 0.538439)
(0.73746 1.79509 0.731142)
(0.729485 1.81137 0.615244)
(1.24896 1.6954 0.948334)
(0.876218 1.65614 0.685144)
(0.900787 1.47979 0.475511)
(1.80665 1.3851 1.24157)
(0.675757 1.67461 1.04911)
(0.573791 1.79215 0.678972)
(0.901933 1.5435 0.252591)
(1.38537 1.59977 0.416715)
(1.01079 1.32817 0.357957)
(1.5167 1.33405 0.636098)
(0.807424 1.33585 0.692729)
(0.679446 1.11323 0.398988)
(1.02337 1.68804 0.974944)
(1.55085 1.39909 0.783546)
(1.26927 1.50399 0.597727)
(1.75658 1.57332 0.665674)
(1.13303 1.49749 0.882662)
(1.61921 1.77966 0.714834)
(1.18633 1.55717 0.330893)
(1.41622 1.75349 0.54612)
(0.74247 1.1295 0.381377)
(1.27111 1.52391 0.61579)
(1.28621 1.71559 0.390941)
(0.800717 1.83729 0.765406)
(1.28545 1.66464 0.675706)
(1.47237 1.39267 0.958872)
(1.09657 1.40167 0.355956)
(0.870693 1.65371 0.437495)
(0.893953 1.65103 0.680851)
(1.1225 1.39988 0.344484)
(1.36985 1.44573 0.505397)
(0.675893 1.49787 0.497774)
(0.512226 1.5599 0.840472)
(1.02896 1.15685 0.849605)
(0.558584 1.70154 0.692678)
(0.537281 1.63605 0.62806)
(0.682263 1.51535 0.705893)
(0.735678 1.24921 1.0879)
(1.10701 1.51575 0.453053)
(0.973346 1.41899 1.5582)
(1.13458 1.31112 0.901667)
(1.00904 1.10948 0.611516)
(0.76479 1.73208 1.06894)
(1.10663 1.49824 1.50354)
(0.584288 1.36813 0.774246)
(0.904352 1.22998 0.285751)
(1.7223 1.50163 0.75549)
(1.23951 1.74642 1.47791)
(1.01185 1.62125 0.737467)
(0.87759 0.807625 0.503034)
(0.915591 1.2989 0.68077)
(1.11786 0.744123 0.942001)
(0.683254 0.969174 0.519315)
(1.29147 1.51371 0.720405)
(1.50803 1.45929 0.659949)
(1.16864 1.42476 0.355665)
(1.77423 1.25814 1.35333)
(1.27985 1.32628 0.491665)
(0.782619 1.52718 0.807064)
(1.52758 1.44451 0.903335)
(1.52466 1.48073 1.04265)
(0.670812 1.3005 0.752788)
(1.28457 1.64613 0.7453)
(1.46184 1.5915 0.558654)
(1.20231 1.78593 0.434332)
(1.25782 1.5613 0.848145)
(0.722542 1.42802 0.830939)
(0.729428 0.839128 0.488362)
(1.16788 1.45742 0.543702)
(1.13067 1.45258 0.468254)
(1.0183 1.71967 1.06793)
(0.688683 1.76529 1.05702)
(1.64012 1.65752 0.779633)
(1.38582 1.70293 0.919532)
(1.57192 0.975968 0.893166)
(0.941629 1.26686 1.06368)
(1.25504 1.52158 0.901233)
(0.879009 1.28331 0.581314)
(0.934885 1.61401 1.06664)
(1.50905 1.05329 0.762887)
(1.39388 1.67295 0.978446)
(1.34438 1.76507 0.856227)
(1.37 1.65451 0.671982)
(1.31621 1.14862 0.938542)
(1.34721 1.14197 0.830369)
(1.50195 1.44714 0.724407)
(1.78893 1.17905 0.896914)
(1.20966 1.17937 0.616274)
(0.734799 1.32879 0.664722)
(0.670878 1.83612 0.929913)
(1.27854 1.13087 0.749497)
(1.15931 1.35914 1.18483)
(0.973316 1.25687 0.83682)
(1.52899 1.00041 0.878327)
(1.29662 1.15839 0.76709)
(1.42646 1.81109 0.681034)
(1.46869 1.44884 0.864972)
(1.37915 1.10778 0.896545)
(1.25608 1.31806 0.839097)
(1.34776 1.39009 0.514903)
(1.44708 1.69452 1.01717)
(0.875167 1.00779 0.603667)
(0.815807 1.3574 1.00699)
(1.70567 1.23337 0.800073)
(1.01217 1.19337 0.856506)
(1.18354 1.10911 0.540239)
(1.40958 1.65552 0.652865)
(1.48741 1.4936 1.31448)
(0.724431 1.56757 0.634549)
(0.910507 1.13937 0.541898)
(0.665232 1.37471 0.741968)
(1.52203 1.60732 0.849087)
(1.57687 1.73041 0.899985)
(1.66173 1.74803 0.891607)
(1.49805 1.75565 0.788291)
(1.67029 1.62696 0.723856)
(1.75978 1.52536 0.610902)
(1.5963 1.71616 0.659927)
(1.61518 1.50199 0.670884)
(1.762 1.44785 0.800631)
(1.67595 1.3543 0.793206)
(1.71491 1.26103 0.79066)
(1.75121 1.26931 0.853437)
(1.47405 1.01672 0.794436)
(0.683241 1.53874 0.838003)
(1.24404 1.5309 1.19873)
(1.04494 1.83546 0.497061)
(1.2886 1.65985 1.37026)
(1.73761 1.47759 0.996072)
(0.996554 1.23709 0.893731)
(1.15205 1.3295 0.947422)
(0.984361 1.2266 0.873799)
(1.38993 1.12201 0.921608)
(1.68101 1.16276 0.88747)
(0.833467 1.72659 0.991883)
(1.05723 0.945233 0.791096)
(1.66593 1.16728 0.867308)
(1.17007 1.2909 0.787703)
(1.3019 1.03419 1.0423)
(1.25574 1.32716 0.387621)
(1.41035 1.12826 1.44225)
(1.27384 1.57526 0.765309)
(1.29256 1.11386 1.08654)
(0.748071 1.53452 0.6576)
(0.92649 0.894811 0.441397)
(1.27682 1.17158 0.26959)
(0.723449 1.05003 0.387603)
(1.54148 1.81518 0.648828)
(1.30293 1.60929 0.780787)
(1.24278 1.68919 1.3618)
(1.63589 1.56647 0.508585)
(1.3123 1.72025 0.788445)
(1.38679 1.63606 0.704149)
(1.3881 1.69927 1.16283)
(1.41422 1.84759 1.06626)
(1.35526 1.60045 1.21733)
(1.22734 1.65488 0.716661)
(0.891539 1.19911 0.857996)
(1.011 1.15066 0.986506)
(0.665172 1.37527 0.735703)
(0.615845 1.4368 1.0103)
(0.669799 1.42837 0.691444)
(0.943431 1.12109 0.614456)
(0.874375 1.08423 0.560482)
(1.02461 1.1616 0.649613)
(0.902677 1.1603 0.561443)
(1.34422 1.66176 0.714064)
(1.38757 1.79862 0.910669)
(1.67952 1.41892 0.774317)
(1.34466 1.65025 0.707245)
(1.31795 1.79331 0.502345)
(1.19444 1.81964 0.548597)
(1.478 1.61822 0.838049)
(1.24736 1.48116 1.21418)
(1.32536 1.80348 0.514054)
(1.38062 1.81122 0.675485)
(1.35492 1.08351 0.651763)
(1.27252 0.979039 0.459104)
(0.997733 1.24317 0.605453)
(1.22592 1.13488 0.568249)
(0.83692 1.43602 0.67643)
(1.80276 1.40374 0.759191)
(1.35552 1.55328 1.25627)
(1.22718 1.62791 0.535611)
(1.4472 1.4939 0.709156)
(0.8471 1.53747 1.06575)
(0.387965 1.3379 1.18561)
(1.59866 1.69793 0.864856)
(1.28381 1.59587 0.507765)
(1.32571 1.61537 0.819836)
(1.32937 1.60911 0.937886)
(1.75298 1.57939 0.830691)
(1.29978 1.87764 0.864419)
(1.5796 1.84696 0.813255)
(0.790414 1.02939 1.09208)
(1.34741 1.66744 0.712424)
(0.711606 1.77538 0.921901)
(1.10383 0.989429 0.760309)
(1.29848 1.22059 0.329254)
(1.44733 1.09537 0.627037)
(0.772187 1.74502 0.958894)
(1.32543 1.17638 0.385835)
(1.34361 1.22816 0.355667)
(0.610821 1.57706 0.790151)
(0.67408 1.07009 1.09461)
(1.1259 1.04609 0.682712)
(0.766488 0.959269 0.528289)
(1.20779 1.57273 0.679366)
(1.47924 1.42164 1.03528)
(1.50611 1.65716 1.17084)
(1.49359 1.46182 0.749515)
(1.36534 1.66959 0.679401)
(1.54062 1.12138 0.960662)
(1.50272 1.16834 0.718581)
(1.56142 1.02033 0.81738)
(1.20836 1.46022 0.874607)
(1.51819 1.11444 0.694609)
(0.745566 1.26848 0.975629)
(1.2491 1.14435 0.918089)
(1.34919 1.57329 0.752805)
(1.002 1.13138 0.687296)
(0.869002 1.26685 0.631536)
(0.905707 1.68638 1.05992)
(0.577715 1.58632 0.755184)
(1.54993 0.989518 0.823993)
(1.4123 1.03271 0.721784)
(1.40116 1.52751 0.646664)
(0.981517 1.45374 0.940808)
(0.796871 1.76613 0.964784)
(0.729918 1.19783 0.954646)
(1.19628 1.25593 0.881706)
(1.53816 1.06648 0.947028)
(1.48387 1.12495 0.982967)
(1.5969 1.01653 0.822476)
(0.949998 1.15913 0.8835)
(0.582915 1.59316 0.740909)
(1.21792 1.10766 0.587423)
(0.698548 1.76735 0.994357)
(1.18029 1.10967 0.675759)
(1.5348 1.39632 1.10503)
(1.64483 1.479 1.19934)
(1.35496 1.69371 1.6182)
(1.62697 1.34584 1.52909)
(1.57904 1.53983 1.5472)
(1.66437 1.55757 1.47919)
(1.47429 1.63965 1.33925)
(1.35122 1.79999 1.15297)
(1.15972 1.3477 1.26894)
(1.44152 1.55442 1.10748)
(1.53177 1.33837 1.67652)
(1.15949 1.07889 1.32222)
(0.699033 1.48172 1.07318)
(0.651896 0.97468 1.00435)
(0.872265 1.77954 1.04028)
(1.27926 1.66275 1.55733)
(1.63091 1.18811 1.42822)
(1.26627 1.0695 1.62413)
(0.824073 1.77052 1.19568)
(0.634666 1.5307 1.20786)
(0.878457 1.10792 1.59492)
(1.31732 1.20444 1.14767)
(0.400371 0.837845 1.17417)
(1.25214 1.18802 1.20162)
(1.55651 1.6208 1.50396)
(1.38517 1.27977 1.60813)
(1.10518 1.45068 1.42887)
(0.698537 1.74064 1.27758)
(0.995071 1.47749 1.65052)
(1.81849 1.41945 1.18904)
(1.07215 1.53807 1.61396)
(0.495014 1.57309 1.42705)
(1.71494 1.23345 1.36042)
(1.31795 1.49793 1.11655)
(1.54313 1.50631 1.33521)
(1.79618 1.28871 1.36801)
(1.11477 1.27472 1.51118)
(1.48471 1.61875 1.58967)
(1.58943 1.65579 1.45981)
(1.25858 1.13958 1.64623)
(0.914081 1.01109 1.39286)
(1.68665 1.57821 1.43084)
(1.58569 1.22592 0.831751)
(0.86446 1.31339 1.75481)
(1.5713 1.54214 1.17861)
(1.50967 1.35734 1.53857)
(1.2674 1.42286 1.42319)
(1.30832 1.72434 0.510029)
(1.82613 1.29474 1.171)
(0.856845 1.31651 0.761024)
(1.18166 1.34439 1.5921)
(0.62211 1.53744 1.15822)
(1.52858 1.71431 1.26228)
(1.29784 1.57645 1.02499)
(1.10966 1.68344 1.28508)
(1.68697 1.49252 1.23493)
(1.52218 1.46515 1.61055)
(1.42402 1.30553 1.60112)
(1.64807 1.5849 1.26523)
(1.31382 1.2325 1.6142)
(1.04361 1.67053 1.33862)
(0.807855 1.55759 0.91405)
(1.43372 1.4033 1.04935)
(1.34154 1.54151 0.993892)
(1.49115 1.36631 1.57598)
(1.2126 1.3696 0.603602)
(1.01507 1.23327 1.50276)
(1.50754 1.24452 1.62626)
(1.22491 1.45453 0.95964)
(1.10466 1.15257 1.44018)
(0.98044 1.12923 0.901521)
(1.77325 1.53946 0.931342)
(1.79871 1.11605 1.32111)
(1.47425 1.09494 1.10339)
(1.59812 1.08335 1.26727)
(1.54293 1.52652 1.13001)
(1.50077 1.26372 0.971171)
(1.67996 1.02492 1.08899)
(1.58231 1.24742 1.13217)
(1.25119 0.928887 1.38698)
(1.64381 0.986166 1.04918)
(1.76115 1.29598 1.07995)
(1.24331 1.6031 0.707864)
(1.5942 1.4684 1.47778)
(1.5927 1.55172 1.59139)
(1.5882 1.41537 1.01603)
(1.61614 1.02496 1.08429)
(1.70092 1.05832 1.12761)
(1.57303 1.1964 1.06538)
(1.55903 1.07564 1.23115)
(0.702975 1.30783 0.63059)
(1.5331 1.10378 1.11936)
(1.0953 0.997462 0.909883)
(1.65262 1.23591 1.03091)
(1.54531 1.14581 0.553053)
(1.3503 1.30215 0.791802)
(1.57548 1.07633 1.23398)
(0.663655 1.43814 1.17926)
(1.06361 1.74205 1.45997)
(1.39873 1.39657 0.402708)
(1.41471 0.968801 0.66063)
(1.23117 1.46704 0.655089)
(1.65161 1.3344 0.936204)
(1.40754 0.957056 1.3858)
(1.609 1.39542 1.02131)
(1.2009 0.946368 1.39745)
(1.3721 0.992506 1.52435)
(1.81224 1.30309 1.16924)
(1.44083 1.14564 1.1526)
(1.25452 1.68998 1.18794)
(1.35724 1.15228 0.448345)
(1.55022 1.14635 1.04158)
(1.75002 1.36958 1.17691)
(1.69749 1.6402 1.29326)
(1.78741 1.57559 1.04777)
(1.50525 1.40925 1.57936)
(1.74516 1.30551 1.39275)
(1.31194 1.65567 1.33756)
(1.65932 1.36679 1.21136)
(1.32908 0.998269 1.34702)
(1.34588 0.924045 1.36005)
(1.74774 1.27445 1.39981)
(0.74607 1.7393 0.834339)
(1.59082 1.04854 1.03371)
(1.49988 1.07726 1.11034)
(1.18685 1.42684 1.05243)
(1.75751 1.27033 1.43843)
(1.69424 1.45897 1.06887)
(1.36316 1.47476 1.49024)
(1.40602 1.18811 0.772521)
(1.09911 1.60317 0.776073)
(1.67643 1.39223 1.16796)
(1.35947 1.16429 1.25539)
(0.871729 1.43313 1.44535)
(1.6409 0.999981 1.11121)
(1.65987 0.987977 1.11867)
(0.932654 1.46011 1.06224)
(1.46854 1.02069 1.15773)
(1.67503 1.3827 1.1142)
(1.61861 1.09384 1.05811)
(1.75994 0.972954 1.11906)
(1.67824 0.98945 1.11468)
(0.839926 1.23939 0.536155)
(1.63169 0.990555 1.13277)
(0.833845 1.13536 0.437047)
(1.05644 1.10552 0.954619)
(1.55703 1.03627 0.877553)
(1.568 1.28495 1.24231)
(1.00616 1.00684 0.944615)
(1.30307 0.983507 0.78577)
(1.32236 1.41629 0.560413)
(1.72884 1.34737 1.3115)
(1.7213 1.22836 1.10694)
(1.08285 1.12666 0.957894)
(1.63999 1.23897 1.12273)
(1.40489 1.29072 0.413381)
(0.615269 1.18429 1.13192)
(0.678374 1.74909 0.962213)
(0.704269 1.73087 0.974019)
(0.665219 1.75492 0.927677)
(1.17071 1.1025 0.874912)
(1.02194 0.87098 1.09321)
(0.953317 1.69299 0.554694)
(1.28278 1.23353 1.4025)
(1.18113 1.42722 0.192144)
(0.855686 0.822836 0.784233)
(1.57845 1.58969 0.772864)
(1.30067 1.15951 0.365)
(1.52641 1.43978 0.694017)
(1.31357 0.964809 0.752137)
(1.5156 1.72801 0.788355)
(1.50284 1.73282 0.83035)
(0.840266 1.53035 1.02767)
(1.00622 1.36212 0.637703)
(1.5915 1.55439 0.819459)
(1.05563 1.77285 0.531238)
(0.714811 1.60273 0.698967)
(0.634913 1.78799 0.918608)
(1.53665 1.51646 0.93679)
(1.43725 1.09764 0.876169)
(0.569285 1.57482 0.688674)
(1.06176 1.00687 0.933954)
(1.63359 1.54192 0.686748)
(1.52824 1.2381 0.63394)
(0.87192 1.16126 0.495066)
(0.677214 1.41864 0.680994)
(1.48248 1.11801 1.26805)
(1.18214 1.26074 0.801541)
(1.26597 1.18629 0.873941)
(0.913609 0.932759 0.69363)
(1.7145 1.03473 0.882783)
(1.25837 1.10956 0.437219)
(1.68395 1.11437 0.913063)
(1.50162 1.31812 1.08991)
(1.29295 1.31601 1.14681)
(1.66118 1.02514 1.07497)
(1.58169 1.09226 1.13259)
(1.25611 1.08344 0.461221)
(1.38662 1.2468 0.70206)
(0.88015 1.34511 0.66874)
(1.51208 1.16358 1.28493)
(1.57221 1.19206 1.27827)
(1.36115 1.28782 0.363597)
(1.33026 1.10272 0.930434)
(0.82545 1.38279 1.38536)
(1.57183 1.12326 1.15437)
(1.76315 1.26716 1.16637)
(1.53982 1.16681 1.20798)
(1.24162 1.12923 0.404481)
(1.55542 1.12688 1.30704)
(1.0953 1.51968 0.587142)
(0.720412 1.38037 0.302874)
(1.45666 1.81411 0.701612)
(1.05768 1.52361 0.417159)
(1.62984 1.55176 0.705311)
(1.37522 1.25848 0.274357)
(0.946978 0.922061 0.72772)
(1.27499 1.50996 1.19806)
(0.663551 1.54234 0.459316)