/*--------------------------------*- C++ -*----------------------------------*\
| =========                 |                                                 |
| \\      /  F ield         | OpenFOAM: The Open Source CFD Toolbox           |
|  \\    /   O peration     | Version:  v1806                                 |
|   \\  /    A nd           | Web:      www.OpenFOAM.com                      |
|    \\/     M anipulation  |                                                 |
\*---------------------------------------------------------------------------*/
FoamFile
{
    version     2.0;
    format      ascii;
    class       volVectorField;
    location    "0.138";
    object      U;
}
// * * * * * * * * * * * * * * * * * * * * * * * * * * * * * * * * * * * * * //

dimensions      [0 1 -1 0 0 0 0];


internalField   nonuniform List<vector> 
64000
(
(-0.0172955 -0.00306134 -0.0109729)
(0.000377634 -0.00250326 -0.0102378)
(-0.00134303 0.00621289 -0.00134323)
(-0.0042298 0.00711143 -0.000545126)
(-0.00952096 0.00660004 -0.000977677)
(-0.0147595 0.00565252 -0.00122002)
(-0.0212424 0.0044383 -0.00149587)
(-0.0311656 0.0038736 -0.000220462)
(-0.0417621 0.00243801 0.000382292)
(-0.0548671 0.00115935 0.000701952)
(-0.0661822 -0.00175704 0.00113832)
(-0.0823943 -0.00518617 0.00136533)
(-0.0975642 -0.00969213 0.000877006)
(-0.120402 -0.0140799 0.00045086)
(-0.138806 -0.0146643 0.000373434)
(-0.172591 -0.0117354 -0.000207871)
(-0.187676 -0.00346081 -0.00136605)
(-0.220974 -0.0104105 -0.00524154)
(-0.205904 -0.0145965 0.00299559)
(-0.261807 -0.0339748 -0.0212901)
(-0.199749 -0.0166089 -0.0119875)
(-0.109398 -0.0210931 -0.0329894)
(-0.138185 -0.00377557 -0.017316)
(-0.132648 -0.0044699 -0.0360161)
(-0.155759 0.00216252 -0.0460547)
(-0.140813 0.00998448 -0.0570181)
(-0.125858 0.0210466 -0.0609945)
(-0.0811426 0.0327586 -0.0579212)
(-0.044914 0.0391588 -0.0551124)
(0.00534173 0.0543577 -0.037943)
(0.0554321 0.0454427 -0.0363308)
(0.0971251 0.0393383 -0.0260852)
(0.114414 0.0282782 -0.0136246)
(0.115869 0.0141764 -0.00629155)
(0.101347 0.00583963 0.0028519)
(0.0807868 -0.00137703 0.00358412)
(0.0611464 -0.00528088 0.00655662)
(0.0391594 -0.00488599 0.00696393)
(0.0216627 -0.00310655 0.00625649)
(0.00437628 -0.00164035 0.00412277)
(-0.0144358 0.0358541 -0.00821576)
(-0.00893821 0.0161988 -0.00770243)
(-0.00295554 0.020545 -0.00386546)
(-0.000865839 0.0219112 -0.00292952)
(-0.0014612 0.0238687 -0.00363104)
(-0.00523439 0.0250704 -0.00433016)
(-0.0120664 0.0280492 -0.00626944)
(-0.0262241 0.0293316 -0.00632072)
(-0.0442289 0.0314791 -0.00758916)
(-0.0700493 0.0329107 -0.00820676)
(-0.0985203 0.0379692 -0.00535587)
(-0.137196 0.0446124 -0.00314427)
(-0.179506 0.0553166 -0.00719109)
(-0.22996 0.0623396 -0.00964216)
(-0.27591 0.0721694 -0.0157137)
(-0.33875 0.0765806 -0.0266561)
(-0.406481 0.082019 -0.0479754)
(-0.489273 0.0795433 -0.0631592)
(-0.520163 0.0859098 -0.0802882)
(-0.591311 0.0855715 -0.0937015)
(-0.499654 0.123576 -0.0828048)
(-0.389444 0.143642 -0.121974)
(-0.403358 0.188665 -0.124051)
(-0.384175 0.205835 -0.140368)
(-0.379425 0.229062 -0.152375)
(-0.33123 0.249678 -0.160865)
(-0.280951 0.271261 -0.162704)
(-0.202797 0.287331 -0.152523)
(-0.125748 0.294578 -0.132287)
(-0.053181 0.300476 -0.11062)
(0.0148146 0.285988 -0.0700956)
(0.0885005 0.253805 -0.0493536)
(0.122884 0.203284 -0.0384715)
(0.140854 0.154296 -0.0259329)
(0.135802 0.106233 -0.0109108)
(0.114057 0.0678431 -0.00406467)
(0.0924062 0.0411848 0.000524299)
(0.0653451 0.0271227 0.00160178)
(0.0393016 0.0182498 0.00238677)
(0.0101547 0.0113148 0.00292066)
(-0.00579708 0.0537325 -0.000803227)
(-0.00318794 0.0350825 -0.00440177)
(0.000984639 0.0371237 -0.00513714)
(0.00365652 0.0435792 -0.00590498)
(0.00174876 0.0520362 -0.00689024)
(-0.0038681 0.0621131 -0.00795801)
(-0.0167007 0.0737304 -0.0098132)
(-0.0402613 0.0853606 -0.00703982)
(-0.0697914 0.100431 -0.0048594)
(-0.107062 0.11884 -0.00840969)
(-0.146957 0.141323 -0.0113769)
(-0.199458 0.163095 -0.0174951)
(-0.262437 0.189755 -0.0262545)
(-0.342318 0.212022 -0.0340126)
(-0.419046 0.22558 -0.0397532)
(-0.510858 0.22914 -0.0476805)
(-0.579742 0.238163 -0.0658205)
(-0.65263 0.252544 -0.0857701)
(-0.678469 0.28375 -0.103653)
(-0.734862 0.319524 -0.11414)
(-0.621557 0.355649 -0.0942042)
(-0.486164 0.402229 -0.123547)
(-0.481729 0.452849 -0.115616)
(-0.449592 0.480327 -0.119806)
(-0.436435 0.510126 -0.124782)
(-0.382169 0.528924 -0.125334)
(-0.331715 0.542605 -0.120734)
(-0.257577 0.543642 -0.105605)
(-0.191703 0.534792 -0.0831924)
(-0.120887 0.51198 -0.0597475)
(-0.0653427 0.487152 -0.0395982)
(-0.0193166 0.434845 -0.0275826)
(0.0192427 0.365528 -0.0117969)
(0.0511494 0.293085 -0.00943723)
(0.0620773 0.219941 -0.00996489)
(0.0651149 0.158219 -0.00963964)
(0.0637897 0.111957 -0.00497945)
(0.0510568 0.0804716 -0.00290661)
(0.0356839 0.0557875 0.000160155)
(0.0111073 0.0321889 0.002439)
(-0.00437728 0.071464 -0.00103533)
(-0.00227984 0.0561243 -0.00546715)
(0.00251758 0.0632252 -0.008646)
(0.0031108 0.0787585 -0.00923631)
(-0.000626359 0.0981555 -0.0103875)
(-0.0109411 0.1215 -0.00965425)
(-0.0309717 0.149248 -0.00951335)
(-0.0625195 0.179206 -0.00994924)
(-0.100658 0.210406 -0.0135313)
(-0.150103 0.244589 -0.0183738)
(-0.208671 0.27829 -0.0239407)
(-0.277212 0.309583 -0.0276172)
(-0.351627 0.330536 -0.0313766)
(-0.439296 0.344938 -0.0324493)
(-0.515271 0.357674 -0.0360021)
(-0.587581 0.372889 -0.0425446)
(-0.642084 0.398776 -0.0598613)
(-0.702183 0.422463 -0.0709382)
(-0.71474 0.467235 -0.0818512)
(-0.760044 0.511546 -0.0768775)
(-0.626905 0.536389 -0.0329783)
(-0.471035 0.576574 -0.0460042)
(-0.458303 0.608221 -0.0304498)
(-0.424374 0.612095 -0.0276794)
(-0.412307 0.623747 -0.0267176)
(-0.366718 0.62051 -0.0237016)
(-0.327262 0.611847 -0.0199464)
(-0.269733 0.589631 -0.0121393)
(-0.220471 0.562116 -0.000812437)
(-0.169434 0.526375 0.00601709)
(-0.13679 0.484509 0.0108352)
(-0.104483 0.440047 0.00923607)
(-0.0792435 0.387679 0.00345384)
(-0.0478738 0.325141 -0.00362082)
(-0.021669 0.259631 -0.00730706)
(9.08205e-05 0.19878 -0.00696505)
(0.0208296 0.148419 -0.00852612)
(0.0269629 0.116973 -0.00617637)
(0.0264551 0.0822639 -0.00216014)
(0.00986135 0.0465625 0.00169776)
(-0.00444021 0.096756 -0.00452653)
(-0.000764565 0.0883012 -0.0113577)
(0.00804933 0.102549 -0.0138171)
(0.00906175 0.130011 -0.0136029)
(0.00247114 0.162138 -0.014776)
(-0.0102203 0.200767 -0.0150016)
(-0.0360557 0.249292 -0.0142015)
(-0.0792823 0.296689 -0.0112282)
(-0.128741 0.340148 -0.0123121)
(-0.185256 0.383552 -0.015175)
(-0.24672 0.41749 -0.018154)
(-0.322348 0.438417 -0.0205738)
(-0.40104 0.451642 -0.0220322)
(-0.476189 0.464931 -0.0243391)
(-0.534745 0.485907 -0.0255799)
(-0.596295 0.510489 -0.0287726)
(-0.637997 0.536009 -0.0339653)
(-0.678705 0.55847 -0.03294)
(-0.669714 0.608251 -0.027361)
(-0.701239 0.650454 -0.0263302)
(-0.562468 0.66858 0.021304)
(-0.398266 0.684533 0.0200828)
(-0.386395 0.684487 0.0385419)
(-0.361223 0.651665 0.0387421)
(-0.363065 0.636114 0.0382184)
(-0.336048 0.607052 0.0418491)
(-0.31636 0.576937 0.044019)
(-0.277115 0.53771 0.04832)
(-0.248713 0.497604 0.040612)
(-0.216491 0.454876 0.0310329)
(-0.193204 0.409687 0.0201539)
(-0.17388 0.374355 0.0118669)
(-0.160914 0.338461 0.00609483)
(-0.137222 0.308657 -0.00509044)
(-0.109847 0.268664 -0.0123795)
(-0.0736376 0.206428 -0.0135121)
(-0.0261193 0.162796 -0.0121563)
(-0.000792842 0.136635 -0.011424)
(0.0116425 0.10278 -0.00320524)
(0.00848514 0.0565974 0.00175993)
(-0.00558608 0.121356 -0.00941255)
(-0.000125648 0.128489 -0.0168886)
(0.0147886 0.15896 -0.0169671)
(0.0164701 0.201859 -0.0186124)
(0.0085707 0.249505 -0.0198523)
(-0.00244425 0.306461 -0.0158247)
(-0.0312288 0.366371 -0.0137533)
(-0.0840814 0.422019 -0.00800099)
(-0.138976 0.466164 -0.00640072)
(-0.203198 0.495283 -0.0107151)
(-0.281023 0.513772 -0.0133096)
(-0.355478 0.525953 -0.0138515)
(-0.416125 0.541361 -0.0126636)
(-0.472524 0.559488 -0.010477)
(-0.511581 0.577695 -0.0059145)
(-0.554665 0.593921 -0.00427648)
(-0.579327 0.61616 -0.00266537)
(-0.598298 0.64033 0.000625254)
(-0.577957 0.689912 0.00185715)
(-0.590916 0.714437 0.0121017)
(-0.454451 0.712842 0.0568693)
(-0.310929 0.681377 0.0590854)
(-0.31793 0.648707 0.0789334)
(-0.311983 0.583404 0.0821658)
(-0.326121 0.548391 0.0819988)
(-0.317452 0.504729 0.0789828)
(-0.312219 0.468321 0.0752015)
(-0.292785 0.426895 0.0660192)
(-0.276877 0.384129 0.0589182)
(-0.259919 0.345316 0.0393916)
(-0.247633 0.30472 0.0257506)
(-0.227811 0.272487 0.0120892)
(-0.209425 0.247849 -9.92848e-05)
(-0.186253 0.23657 -0.00707948)
(-0.180822 0.222041 -0.0184207)
(-0.143249 0.187547 -0.0148085)
(-0.0639418 0.1562 -0.0130519)
(-0.0183059 0.137878 -0.0122588)
(0.00437047 0.110522 -0.00553069)
(0.00548663 0.0604295 0.00304088)
(-0.000279293 0.123991 -0.00849255)
(0.0163969 0.146032 -0.0186736)
(0.0380522 0.1917 -0.0228323)
(0.0403929 0.252556 -0.0251315)
(0.033754 0.318665 -0.0265916)
(0.0191835 0.389507 -0.0210263)
(-0.0189553 0.446456 -0.0125448)
(-0.0836228 0.482283 -0.00314615)
(-0.158184 0.515792 -0.0071474)
(-0.228737 0.535762 -0.00926185)
(-0.288085 0.557623 -0.00937478)
(-0.342887 0.582413 -0.007503)
(-0.38943 0.606353 -0.00380395)
(-0.432542 0.624454 0.000619009)
(-0.462806 0.6411 0.00568934)
(-0.488489 0.648585 0.0095535)
(-0.489622 0.663126 0.0172425)
(-0.491563 0.668487 0.0192402)
(-0.464912 0.687401 0.0186858)
(-0.4795 0.688719 0.0204147)
(-0.385823 0.665349 0.055916)
(-0.260822 0.569645 0.0623569)
(-0.268439 0.527992 0.0775336)
(-0.274962 0.458697 0.081489)
(-0.300022 0.428013 0.0802584)
(-0.307421 0.39042 0.0782725)
(-0.3173 0.364656 0.0731118)
(-0.315681 0.333465 0.0623394)
(-0.31334 0.30359 0.0452832)
(-0.30817 0.270968 0.02765)
(-0.30203 0.241676 0.0107384)
(-0.286372 0.217752 -0.0020461)
(-0.265634 0.19903 -0.0102008)
(-0.236617 0.188898 -0.014543)
(-0.221748 0.190383 -0.0197477)
(-0.183058 0.18723 -0.0207094)
(-0.0953054 0.165728 -0.0184929)
(-0.0293052 0.147421 -0.0164352)
(0.00128261 0.120877 -0.00906779)
(0.00636453 0.0678462 0.00206116)
(0.00211755 0.128236 -0.00898064)
(0.0286209 0.159546 -0.0197066)
(0.0652542 0.207871 -0.021545)
(0.0753777 0.272599 -0.0182738)
(0.0686418 0.334276 -0.0222219)
(0.0387951 0.410117 -0.0121884)
(-0.0241862 0.443491 -0.000206794)
(-0.0921053 0.480629 -0.00137198)
(-0.150418 0.517124 -0.00320101)
(-0.207187 0.552183 -0.00300923)
(-0.258731 0.585108 -0.00216996)
(-0.305912 0.609463 0.000978974)
(-0.343677 0.62728 0.00741743)
(-0.374629 0.638303 0.0131847)
(-0.392845 0.644974 0.01733)
(-0.409198 0.640198 0.0228049)
(-0.407305 0.634105 0.0262669)
(-0.404727 0.608853 0.0258032)
(-0.385108 0.592403 0.0192005)
(-0.400183 0.555048 0.0116089)
(-0.353978 0.537597 0.0328797)
(-0.248613 0.412043 0.0432892)
(-0.240979 0.386453 0.0528841)
(-0.25706 0.332361 0.0615591)
(-0.287126 0.316273 0.0629378)
(-0.307932 0.291093 0.0650754)
(-0.326219 0.277126 0.0628195)
(-0.336876 0.256863 0.0509893)
(-0.347487 0.237269 0.0348088)
(-0.351699 0.212668 0.012807)
(-0.346836 0.189762 0.0029232)
(-0.329593 0.171798 -0.00979429)
(-0.309162 0.162149 -0.0166869)
(-0.272828 0.159044 -0.020746)
(-0.255394 0.165737 -0.0243542)
(-0.219785 0.188875 -0.0222035)
(-0.128133 0.171603 -0.0204732)
(-0.0448786 0.156406 -0.0152772)
(-0.000489159 0.129958 -0.00979021)
(0.00600407 0.0736051 0.00283592)
(0.00340014 0.148828 -0.0101798)
(0.0368235 0.191978 -0.0230686)
(0.085734 0.245808 -0.023206)
(0.098444 0.304627 -0.0161821)
(0.100013 0.364504 -0.0168752)
(0.0561705 0.425227 -0.00814155)
(-0.00911071 0.450997 0.0036856)
(-0.0596534 0.498659 0.00178798)
(-0.12196 0.540359 0.00312874)
(-0.172975 0.574303 0.00469383)
(-0.219862 0.597148 0.00773401)
(-0.261009 0.609193 0.0111986)
(-0.289429 0.615432 0.0196294)
(-0.313903 0.610061 0.0225299)
(-0.33163 0.594985 0.0248246)
(-0.345512 0.565565 0.0257058)
(-0.347614 0.534894 0.0251029)
(-0.350825 0.488297 0.0202237)
(-0.347197 0.449539 0.0113978)
(-0.356782 0.39501 -0.000894149)
(-0.355985 0.383187 0.0038865)
(-0.268773 0.281424 0.0228973)
(-0.227553 0.268668 0.0269678)
(-0.251226 0.237602 0.0399013)
(-0.280743 0.233611 0.0447137)
(-0.310907 0.219809 0.0530691)
(-0.3347 0.213282 0.0531796)
(-0.356814 0.200562 0.0425396)
(-0.375803 0.185176 0.0258424)
(-0.384709 0.166183 0.00842943)
(-0.381734 0.150604 -0.000779091)
(-0.365783 0.136848 -0.00108621)
(-0.344539 0.127932 -0.00993625)
(-0.310728 0.132999 -0.0197554)
(-0.271056 0.141399 -0.0289312)
(-0.238881 0.177533 -0.0291255)
(-0.158982 0.179824 -0.0229775)
(-0.0550321 0.169016 -0.0208682)
(-0.00227161 0.14017 -0.0122439)
(0.00731847 0.082524 0.00126062)
(0.00184586 0.173695 -0.0107682)
(0.0440326 0.232472 -0.0242675)
(0.106175 0.294814 -0.0245412)
(0.13049 0.349823 -0.0158912)
(0.127891 0.414192 -0.0164876)
(0.072997 0.447362 -0.00639501)
(0.0110976 0.486804 0.00651784)
(-0.0298602 0.516221 0.00761502)
(-0.0854839 0.554367 0.0104188)
(-0.135366 0.577278 0.0168413)
(-0.180711 0.590857 0.016891)
(-0.217507 0.591758 0.0256616)
(-0.245263 0.579957 0.030683)
(-0.271174 0.550272 0.0331023)
(-0.291209 0.512758 0.0315217)
(-0.309224 0.462458 0.0283932)
(-0.319486 0.412681 0.0229512)
(-0.328332 0.354373 0.0153265)
(-0.334168 0.307305 0.0058912)
(-0.341903 0.256042 -0.00571332)
(-0.358047 0.24108 -0.00941027)
(-0.280604 0.194419 0.00780386)
(-0.21991 0.186548 0.010791)
(-0.244169 0.172416 0.0247422)
(-0.269961 0.1712 0.0336105)
(-0.30611 0.16334 0.045765)
(-0.3323 0.160328 0.0481299)
(-0.361655 0.150555 0.0391083)
(-0.384422 0.139995 0.0257359)
(-0.394085 0.124195 0.0218832)
(-0.398327 0.106563 0.0177025)
(-0.389158 0.0927327 0.0148519)
(-0.368219 0.0815809 0.0114334)
(-0.333634 0.0883047 0.0025815)
(-0.294218 0.103672 -0.0114149)
(-0.25552 0.143973 -0.0276782)
(-0.17823 0.174722 -0.0243208)
(-0.0758681 0.171925 -0.0180219)
(-0.00613023 0.14984 -0.0114914)
(0.00882303 0.0907175 0.00202549)
(0.000828901 0.201185 -0.010512)
(0.0526968 0.283616 -0.0269011)
(0.127363 0.348588 -0.0261603)
(0.160174 0.401675 -0.017201)
(0.150107 0.452014 -0.0147765)
(0.0945999 0.474959 -0.00653154)
(0.039758 0.515188 0.00779452)
(0.00175861 0.5364 0.0180561)
(-0.0453057 0.560617 0.0191343)
(-0.099452 0.576321 0.0209554)
(-0.144045 0.576379 0.0299908)
(-0.181789 0.564068 0.0363109)
(-0.215036 0.536013 0.039347)
(-0.24501 0.490363 0.0391593)
(-0.271472 0.435405 0.0349602)
(-0.294948 0.374369 0.0278267)
(-0.312361 0.315594 0.0191894)
(-0.327177 0.256004 0.00982642)
(-0.337997 0.210496 0.00180792)
(-0.342597 0.170167 -0.00853257)
(-0.353006 0.153913 -0.0132761)
(-0.274633 0.140555 -0.000619744)
(-0.210428 0.133436 0.00251193)
(-0.23124 0.124249 0.0160583)
(-0.252987 0.121096 0.0282314)
(-0.288771 0.115469 0.0405193)
(-0.317145 0.113187 0.0433658)
(-0.346804 0.105304 0.0378814)
(-0.372414 0.0947503 0.0432619)
(-0.396137 0.0768485 0.04093)
(-0.406548 0.059099 0.039865)
(-0.406184 0.0453986 0.0307906)
(-0.388597 0.0406402 0.025235)
(-0.355512 0.0445291 0.0167254)
(-0.302903 0.0619772 0.000573987)
(-0.259013 0.101651 -0.0171596)
(-0.19128 0.151736 -0.0256)
(-0.083894 0.170625 -0.019198)
(-0.00608659 0.1531 -0.0116863)
(0.00944439 0.097547 0.001504)
(0.0026627 0.227042 -0.0102972)
(0.0606028 0.331604 -0.0299041)
(0.145443 0.398812 -0.0290453)
(0.183525 0.447313 -0.0163134)
(0.168305 0.479738 -0.00891589)
(0.117748 0.503289 -0.00372884)
(0.0694183 0.532695 0.010127)
(0.0294167 0.550933 0.0214558)
(-0.0132282 0.556297 0.0305165)
(-0.0642 0.562149 0.0332985)
(-0.113042 0.555799 0.0367787)
(-0.157121 0.528945 0.0407769)
(-0.197287 0.488291 0.0425056)
(-0.234244 0.433597 0.0397244)
(-0.266403 0.370118 0.0325607)
(-0.295458 0.301982 0.0227568)
(-0.318999 0.241864 0.0134126)
(-0.332976 0.187466 0.00576487)
(-0.340652 0.14941 -0.00113974)
(-0.342195 0.120516 -0.010034)
(-0.341379 0.103654 -0.0134754)
(-0.25884 0.103742 -0.00405021)
(-0.195524 0.0892202 -0.00245325)
(-0.207424 0.0782807 0.0102905)
(-0.222424 0.0678813 0.0214174)
(-0.256506 0.0635671 0.0329038)
(-0.281589 0.0612125 0.0379616)
(-0.314406 0.0557426 0.0507287)
(-0.346571 0.0467826 0.0544353)
(-0.370398 0.0340219 0.0644563)
(-0.387802 0.0161324 0.0627161)
(-0.39556 -0.00283006 0.0519655)
(-0.395351 -0.0151344 0.0308826)
(-0.374601 -0.0100399 0.0213556)
(-0.332576 0.00976482 0.0228421)
(-0.275851 0.0534893 0.0116877)
(-0.197155 0.116383 -0.0216354)
(-0.099702 0.161244 -0.021403)
(-0.0117263 0.157754 -0.0110131)
(0.0129911 0.106743 0.000843466)
(0.00332872 0.251378 -0.00761828)
(0.0674234 0.37568 -0.0296568)
(0.160482 0.445828 -0.0285846)
(0.199805 0.483109 -0.012359)
(0.186985 0.5036 -0.00231472)
(0.143005 0.52528 0.00110556)
(0.0973959 0.54389 0.015853)
(0.0533206 0.554896 0.0251251)
(0.0136104 0.555092 0.0358722)
(-0.031175 0.547186 0.0445093)
(-0.0875754 0.532108 0.0445092)
(-0.139999 0.496125 0.0418895)
(-0.1858 0.44569 0.0391614)
(-0.232625 0.37961 0.0325091)
(-0.275471 0.31165 0.0260869)
(-0.306771 0.245541 0.0178468)
(-0.328172 0.189403 0.00941794)
(-0.338195 0.142123 0.00259667)
(-0.34021 0.107966 -0.00313383)
(-0.337643 0.0835307 -0.0104241)
(-0.320428 0.0661074 -0.0106437)
(-0.234582 0.0718083 -0.00470832)
(-0.176702 0.0437353 -0.0042106)
(-0.179889 0.0329157 0.00591762)
(-0.186386 0.0213747 0.0158821)
(-0.209401 0.0172523 0.0256836)
(-0.231391 0.0151438 0.0428563)
(-0.261033 0.00869541 0.0510779)
(-0.292437 -0.00171027 0.0636858)
(-0.333615 -0.0180874 0.0574249)
(-0.372259 -0.0410475 0.0503673)
(-0.401788 -0.0650045 0.0422851)
(-0.404453 -0.0869391 0.0296112)
(-0.387727 -0.092411 0.00905117)
(-0.342007 -0.0710507 -0.00300211)
(-0.286776 -0.0201865 0.00130995)
(-0.20883 0.0623863 0.00658692)
(-0.101419 0.128671 -0.025358)
(-0.0115806 0.148977 -0.00874888)
(0.0132276 0.107994 0.00107327)
(0.00414262 0.266337 -0.0045639)
(0.070557 0.408795 -0.0287561)
(0.165566 0.480149 -0.0280289)
(0.207771 0.507049 -0.00975253)
(0.203295 0.521373 0.00473629)
(0.165955 0.537401 0.0131782)
(0.120072 0.547255 0.0192303)
(0.0779485 0.552326 0.0314945)
(0.0355926 0.55033 0.0421149)
(-0.00974131 0.529167 0.0518154)
(-0.0663818 0.503464 0.0472375)
(-0.130022 0.455331 0.039014)
(-0.190724 0.390887 0.0297084)
(-0.24473 0.320031 0.0261304)
(-0.285634 0.258905 0.0221171)
(-0.316117 0.204156 0.0145999)
(-0.336143 0.154703 0.00645867)
(-0.341748 0.111191 0.00068251)
(-0.336501 0.0786331 -0.00364758)
(-0.325998 0.052131 -0.00836935)
(-0.289354 0.0273121 -0.0067518)
(-0.208511 0.0173286 -0.00647677)
(-0.154546 -0.0139644 -0.00651638)
(-0.136191 -0.0268446 -0.00317273)
(-0.136164 -0.0388236 0.00256265)
(-0.152673 -0.040495 0.0216463)
(-0.170906 -0.0487912 0.0331162)
(-0.204066 -0.0562227 0.0448118)
(-0.244048 -0.0686896 0.0456236)
(-0.28881 -0.0870642 0.0460971)
(-0.336924 -0.105894 0.0422245)
(-0.375577 -0.127645 0.0315253)
(-0.397925 -0.146942 0.0171622)
(-0.391146 -0.159665 0.00600181)
(-0.357259 -0.148582 -0.0114385)
(-0.294571 -0.103821 -0.0116586)
(-0.217408 -0.00949573 -0.0053615)
(-0.119749 0.0939789 -0.0108672)
(-0.0155423 0.141105 -0.0176218)
(0.0165648 0.11652 0.00225699)
(0.00535107 0.273153 0.000834015)
(0.0721187 0.43003 -0.0251181)
(0.165324 0.503466 -0.0261367)
(0.213271 0.525587 -0.00664583)
(0.220616 0.532568 0.0119616)
(0.186906 0.540157 0.0249309)
(0.142378 0.547824 0.0324328)
(0.100876 0.550342 0.0372686)
(0.0524018 0.540833 0.0440754)
(0.00407303 0.512913 0.0541298)
(-0.0605297 0.471238 0.0468571)
(-0.138378 0.40725 0.0337711)
(-0.20189 0.338396 0.0285965)
(-0.248491 0.276085 0.0230318)
(-0.28626 0.221847 0.0183591)
(-0.319579 0.176561 0.0117856)
(-0.340848 0.135164 0.00448215)
(-0.342428 0.0951478 0.000749819)
(-0.331363 0.046296 -0.00204154)
(-0.319124 0.0114853 -0.00350757)
(-0.276178 -0.0191082 4.93553e-05)
(-0.189112 -0.0517718 -0.0012258)
(-0.126891 -0.0802618 -0.00755845)
(-0.0998679 -0.100151 -0.00543889)
(-0.0873232 -0.117592 0.00212758)
(-0.0972262 -0.121669 0.00839038)
(-0.114238 -0.123213 0.0213564)
(-0.138185 -0.128849 0.0298108)
(-0.174926 -0.134743 0.0355364)
(-0.225398 -0.143143 0.0374685)
(-0.279485 -0.157933 0.0342483)
(-0.332729 -0.179928 0.0271949)
(-0.370515 -0.205267 0.0157205)
(-0.384258 -0.224941 -0.000348345)
(-0.359076 -0.227997 -0.0148715)
(-0.301079 -0.187605 -0.0229058)
(-0.217788 -0.10416 -0.0174383)
(-0.117959 0.0366387 0.00676565)
(-0.0192326 0.114445 -0.0151543)
(0.0159314 0.115995 0.000398846)
(0.0045541 0.267193 0.00375435)
(0.0679185 0.434359 -0.0235667)
(0.159237 0.512712 -0.0253838)
(0.21203 0.536346 -0.00571658)
(0.230257 0.53965 0.0165876)
(0.210353 0.541963 0.0317258)
(0.170126 0.548829 0.0411291)
(0.121504 0.543311 0.044998)
(0.063758 0.524858 0.0452294)
(0.00477805 0.486111 0.0473296)
(-0.0716919 0.425206 0.0424091)
(-0.151501 0.361356 0.0332875)
(-0.207594 0.299506 0.0271571)
(-0.252216 0.238006 0.0204656)
(-0.286198 0.182146 0.0133761)
(-0.31589 0.138116 0.00715713)
(-0.338978 0.110474 0.0019771)
(-0.35569 0.0568597 -0.000297255)
(-0.345283 0.000128995 0.0068157)
(-0.311237 -0.044022 0.00505587)
(-0.264809 -0.0738755 0.00127665)
(-0.177433 -0.106737 -0.0103548)
(-0.104219 -0.139532 -0.0127498)
(-0.0682606 -0.16432 -0.0118327)
(-0.0457686 -0.181966 -0.00822543)
(-0.0371307 -0.189945 -0.00129848)
(-0.0457384 -0.183174 0.0043181)
(-0.0709038 -0.179392 0.015488)
(-0.103034 -0.178768 0.0240633)
(-0.148931 -0.187722 0.0288791)
(-0.207355 -0.197902 0.0302037)
(-0.269286 -0.219249 0.0270184)
(-0.322358 -0.247156 0.0171486)
(-0.355433 -0.279199 0.0030317)
(-0.351185 -0.294562 -0.0150327)
(-0.309402 -0.277767 -0.0276787)
(-0.223277 -0.194435 -0.0322098)
(-0.133441 -0.0503678 -0.0161717)
(-0.0295423 0.0838286 -0.0135395)
(0.0204154 0.111829 -0.00224934)
(0.00637102 0.240489 0.0108469)
(0.067409 0.416738 -0.0158183)
(0.156216 0.501848 -0.0188142)
(0.21653 0.5251 0.00202205)
(0.247583 0.527219 0.0223541)
(0.237943 0.528883 0.0361956)
(0.196082 0.529743 0.0462539)
(0.138106 0.520593 0.0496272)
(0.0668422 0.499265 0.0486469)
(-0.00981 0.457714 0.0450462)
(-0.0860945 0.396036 0.0408503)
(-0.156094 0.339765 0.0328049)
(-0.215672 0.27891 0.0258331)
(-0.261919 0.213221 0.0179339)
(-0.29164 0.150869 0.00892798)
(-0.305656 0.103751 0.00257927)
(-0.342724 0.0602855 -0.00344678)
(-0.374792 0.00595954 0.00962113)
(-0.351513 -0.0504164 0.0100023)
(-0.307937 -0.0974579 -0.00344683)
(-0.250401 -0.120194 -0.0114601)
(-0.163503 -0.146121 -0.0121836)
(-0.0895859 -0.180895 -0.0153701)
(-0.0442425 -0.208157 -0.0173861)
(-0.00991564 -0.231824 -0.014763)
(0.0130095 -0.240267 -0.0100059)
(0.0182067 -0.237758 -0.00594923)
(0.00114535 -0.22554 0.00118106)
(-0.0331821 -0.2119 0.0100556)
(-0.0765498 -0.211468 0.020972)
(-0.129796 -0.220647 0.0256303)
(-0.19593 -0.246592 0.0255236)
(-0.25991 -0.280869 0.0196366)
(-0.310258 -0.322252 0.0073858)
(-0.326698 -0.352697 -0.00867004)
(-0.298784 -0.353082 -0.0237459)
(-0.224855 -0.290611 -0.0352337)
(-0.129595 -0.151205 -0.0285229)
(-0.0283849 0.0373492 0.00319184)
(0.0120805 0.104537 -0.00223203)
(0.00211954 0.225012 0.00944237)
(0.0562271 0.404572 -0.014301)
(0.143107 0.496025 -0.019444)
(0.213881 0.525401 0.00509919)
(0.264982 0.526011 0.0182352)
(0.269759 0.52173 0.0370356)
(0.230617 0.517776 0.0445787)
(0.164645 0.506025 0.0466636)
(0.0804115 0.483797 0.0446853)
(-0.0096227 0.433924 0.0409376)
(-0.0917868 0.379982 0.0369146)
(-0.165099 0.321445 0.0269468)
(-0.230272 0.259153 0.0199513)
(-0.281217 0.195268 0.0110968)
(-0.303912 0.136384 0.00305164)
(-0.321609 0.0747178 -0.0062483)
(-0.355633 0.00767232 -0.00225381)
(-0.385376 -0.035599 0.0062145)
(-0.366152 -0.0902644 -0.0080672)
(-0.296742 -0.133749 -0.0176899)
(-0.228002 -0.147781 -0.0172647)
(-0.151634 -0.167928 -0.0177979)
(-0.0794493 -0.197242 -0.0210941)
(-0.0308073 -0.219491 -0.0229937)
(0.0141682 -0.23928 -0.0184659)
(0.0554102 -0.251363 -0.0138508)
(0.0771381 -0.257153 -0.0108007)
(0.0758897 -0.255835 -0.0073844)
(0.0497666 -0.246777 -0.00385295)
(0.00233375 -0.237839 0.0040916)
(-0.0585103 -0.241191 0.0129584)
(-0.126863 -0.261747 0.0204074)
(-0.192948 -0.292709 0.0205649)
(-0.252169 -0.344111 0.0114039)
(-0.285602 -0.395031 -0.00615084)
(-0.284886 -0.425536 -0.0245514)
(-0.233045 -0.387752 -0.0399247)
(-0.14018 -0.251136 -0.0358375)
(-0.0318425 -0.0420267 -0.0136855)
(0.0123483 0.0898867 0.00454118)
(-0.00323487 0.19222 0.012968)
(0.0400349 0.388086 -0.00567752)
(0.127502 0.487261 -0.00876226)
(0.2061 0.519588 0.00236665)
(0.269573 0.518282 0.0161475)
(0.289696 0.512084 0.0350584)
(0.255649 0.520035 0.0433302)
(0.183753 0.521909 0.0464498)
(0.077404 0.510441 0.0429319)
(-0.0247451 0.467735 0.0515891)
(-0.10389 0.423689 0.0440257)
(-0.179029 0.367014 0.0290726)
(-0.243936 0.302331 0.0211972)
(-0.290455 0.230408 0.00921198)
(-0.323366 0.152695 -0.00540443)
(-0.350408 0.0601541 -0.011951)
(-0.372026 -0.0145549 -0.010603)
(-0.392574 -0.0712663 -0.0163764)
(-0.368713 -0.115139 -0.0273857)
(-0.284076 -0.152837 -0.0285371)
(-0.203758 -0.169772 -0.0268187)
(-0.133246 -0.181946 -0.0254979)
(-0.0621739 -0.196466 -0.0264438)
(-0.00664445 -0.209085 -0.0271585)
(0.0406469 -0.215673 -0.0231499)
(0.0825398 -0.221999 -0.0181439)
(0.109449 -0.225357 -0.0119465)
(0.119506 -0.229118 -0.00678119)
(0.109931 -0.232249 -0.00289456)
(0.0771179 -0.241184 0.000936341)
(0.023355 -0.258394 0.00599914)
(-0.0410996 -0.292116 0.0090551)
(-0.118149 -0.328299 0.00667425)
(-0.199731 -0.389832 0.000331594)
(-0.25707 -0.461548 -0.01126)
(-0.270635 -0.522387 -0.0268558)
(-0.222377 -0.513848 -0.0428326)
(-0.144212 -0.3818 -0.0472858)
(-0.041237 -0.148653 -0.0168559)
(0.0102459 0.0619383 0.0170084)
(-0.00831057 0.290868 0.00994774)
(0.0261148 0.506106 -0.0105375)
(0.107356 0.615955 -0.00968248)
(0.191017 0.650974 -0.00246467)
(0.273303 0.651155 0.0166244)
(0.328053 0.639088 0.0353684)
(0.316319 0.638479 0.0411161)
(0.237729 0.628749 0.0428454)
(0.110502 0.605805 0.0381335)
(-0.0103577 0.565484 0.0495866)
(-0.103638 0.51806 0.0415957)
(-0.195318 0.448895 0.0206162)
(-0.274877 0.366343 0.0121889)
(-0.340671 0.270805 -0.00148263)
(-0.387865 0.158512 -0.015905)
(-0.405998 0.057389 -0.0268624)
(-0.405977 -0.028377 -0.0276072)
(-0.405988 -0.0940319 -0.0356592)
(-0.369058 -0.134396 -0.0459454)
(-0.273768 -0.170279 -0.0434395)
(-0.181324 -0.185461 -0.0362145)
(-0.104422 -0.193845 -0.0332545)
(-0.0335607 -0.196837 -0.035056)
(0.0232518 -0.197271 -0.0290048)
(0.0765629 -0.194377 -0.0211403)
(0.12516 -0.191187 -0.0164874)
(0.156382 -0.181498 -0.0122799)
(0.166476 -0.173832 -0.00850493)
(0.151382 -0.172069 -0.00520287)
(0.112383 -0.18649 0.00163912)
(0.0557561 -0.211378 0.0112402)
(0.002905 -0.269255 0.0191872)
(-0.06006 -0.345297 0.0162128)
(-0.146588 -0.432838 0.00820907)
(-0.22119 -0.5221 -0.00376915)
(-0.259771 -0.612598 -0.0203249)
(-0.221942 -0.633936 -0.0356792)
(-0.151051 -0.548156 -0.0487367)
(-0.0422103 -0.257365 -0.0206029)
(0.0190321 0.0251343 0.0168166)
(-0.0228971 0.324122 -0.000310166)
(0.0035918 0.557641 -0.0231967)
(0.0928497 0.682489 -0.0256605)
(0.184242 0.737506 -0.0246685)
(0.277276 0.749478 -0.00612365)
(0.343775 0.733233 0.0123335)
(0.33181 0.700685 0.0217225)
(0.238033 0.659011 0.0309307)
(0.100142 0.617158 0.0324906)
(-0.0257542 0.570885 0.0473627)
(-0.133385 0.520614 0.0429025)
(-0.242659 0.448747 0.0246477)
(-0.333411 0.364787 0.0175549)
(-0.410848 0.265291 0.00236733)
(-0.451021 0.161707 -0.014643)
(-0.453822 0.0601577 -0.0383794)
(-0.442352 -0.0284043 -0.0519105)
(-0.419473 -0.10397 -0.0588803)
(-0.368348 -0.149013 -0.0608801)
(-0.261164 -0.19057 -0.0556328)
(-0.15559 -0.207261 -0.0419062)
(-0.0747214 -0.214601 -0.0399234)
(0.00319179 -0.217579 -0.0401649)
(0.0649138 -0.206915 -0.0266315)
(0.11768 -0.19351 -0.020578)
(0.169808 -0.184509 -0.0174888)
(0.207051 -0.171796 -0.0110198)
(0.218777 -0.160664 -0.00309243)
(0.202127 -0.150186 0.000538373)
(0.165172 -0.150999 0.00413674)
(0.098433 -0.156437 0.013717)
(0.0202024 -0.201429 0.02331)
(-0.0465356 -0.275885 0.0311251)
(-0.112154 -0.391551 0.0261462)
(-0.186855 -0.544547 0.0173652)
(-0.235381 -0.697101 0.00166867)
(-0.224662 -0.765173 -0.0189037)
(-0.142565 -0.719447 -0.0290877)
(-0.03645 -0.441848 -0.0350074)
(0.00821922 -0.0436093 0.0321446)
(-0.00521338 0.250699 0.0196114)
(0.0237171 0.486656 -0.0118296)
(0.0931317 0.61996 -0.019223)
(0.179551 0.685585 -0.0182509)
(0.268626 0.702981 -0.00397726)
(0.330003 0.685477 0.0134966)
(0.321141 0.639857 0.0273806)
(0.238911 0.595484 0.0399612)
(0.104711 0.557878 0.0455532)
(-0.0265201 0.527081 0.0605375)
(-0.147088 0.484085 0.05969)
(-0.271034 0.428991 0.0420883)
(-0.376136 0.363085 0.0321491)
(-0.460434 0.280484 0.0130277)
(-0.50976 0.197254 -0.0185772)
(-0.513631 0.0940803 -0.0486842)
(-0.489211 -0.00158046 -0.0815043)
(-0.448071 -0.0820606 -0.0858012)
(-0.380269 -0.141914 -0.0806614)
(-0.259798 -0.19148 -0.0749064)
(-0.135855 -0.217488 -0.0524789)
(-0.0471112 -0.228147 -0.0473604)
(0.0408961 -0.2325 -0.0431122)
(0.114306 -0.217741 -0.0261166)
(0.167229 -0.200605 -0.0168331)
(0.217836 -0.192076 -0.0155222)
(0.256003 -0.182077 -0.0103867)
(0.271889 -0.175861 -0.0022709)
(0.257483 -0.167093 0.004229)
(0.222727 -0.166937 0.00965982)
(0.152094 -0.166389 0.0151387)
(0.0709843 -0.188505 0.0305997)
(-0.0143722 -0.231098 0.0392791)
(-0.133641 -0.310769 0.03849)
(-0.229881 -0.449118 0.0437206)
(-0.256886 -0.644961 0.0361868)
(-0.232562 -0.778451 0.0169177)
(-0.164917 -0.79907 -0.00731212)
(-0.0304773 -0.582516 -0.018302)
(0.0329557 -0.122612 0.00161922)
(-0.00310191 0.214874 0.0260979)
(0.0303178 0.425419 -0.00131359)
(0.0990998 0.556166 -0.00971295)
(0.180691 0.626554 -0.00683309)
(0.264846 0.649822 0.0054271)
(0.316723 0.630502 0.0233838)
(0.306967 0.583915 0.0391518)
(0.231262 0.535483 0.053248)
(0.107642 0.493836 0.06219)
(-0.0232661 0.47007 0.0743156)
(-0.155693 0.435856 0.0758327)
(-0.28654 0.398311 0.0618845)
(-0.402597 0.352312 0.0514381)
(-0.495455 0.295796 0.030774)
(-0.555467 0.229049 -0.00599548)
(-0.570221 0.148214 -0.0454389)
(-0.536977 0.0525057 -0.0848857)
(-0.480548 -0.0322905 -0.105055)
(-0.401927 -0.107106 -0.0993066)
(-0.264714 -0.164675 -0.0967857)
(-0.123201 -0.20252 -0.068765)
(-0.0225446 -0.230265 -0.0563966)
(0.079818 -0.237402 -0.0452926)
(0.163107 -0.22795 -0.018428)
(0.210799 -0.213436 -0.00705255)
(0.257767 -0.206121 -0.00777414)
(0.296248 -0.195481 -0.00569454)