/*--------------------------------*- C++ -*----------------------------------*\
| =========                 |                                                 |
| \\      /  F ield         | OpenFOAM: The Open Source CFD Toolbox           |
|  \\    /   O peration     | Version:  v1806                                 |
|   \\  /    A nd           | Web:      www.OpenFOAM.com                      |
|    \\/     M anipulation  |                                                 |
\*---------------------------------------------------------------------------*/
FoamFile
{
    version     2.0;
    format      ascii;
    class       surfaceScalarField;
    location    "0.04";
    object      phi;
}
// * * * * * * * * * * * * * * * * * * * * * * * * * * * * * * * * * * * * * //

dimensions      [0 3 -1 0 0 0 0];
oriented        oriented;


internalField   nonuniform List<scalar> 
187200
(
7.79851e-06
8.32465e-07
-8.6322e-06
3.98036e-05
-1.39865e-05
-1.80184e-05
6.062e-05
-8.36019e-06
-1.24561e-05
7.93777e-05
-8.17504e-06
-1.05826e-05
9.74746e-05
-6.61768e-06
-1.14792e-05
0.000114877
-4.53866e-06
-1.28643e-05
0.000130152
-3.32323e-07
-1.49424e-05
0.00014487
1.59759e-06
-1.63148e-05
0.00015788
4.92564e-06
-1.79358e-05
0.000166777
7.67913e-06
-1.65757e-05
0.000176252
8.69277e-06
-1.81682e-05
0.00017785
1.59713e-05
-1.75696e-05
0.00016518
2.35233e-05
-1.08538e-05
0.00013072
4.06562e-05
-6.19594e-06
8.38009e-05
4.38527e-05
3.06569e-06
3.78082e-05
3.08717e-05
1.51206e-05
-2.00936e-05
3.24487e-05
2.54529e-05
-8.30627e-05
5.30194e-05
9.94944e-06
-0.000179927
9.99501e-05
-3.08641e-06
-0.00030698
0.000134874
-7.82023e-06
-0.000508
0.000203792
-2.7721e-06
-0.000681989
0.000232172
-5.81829e-05
-0.000775957
0.000269647
-0.000175679
-0.000812503
0.000309403
-0.000272857
-0.000784515
0.000337584
-0.000365573
-0.000714376
0.000370555
-0.000440694
-0.000602893
0.000391589
-0.000503071
-0.000468173
0.000406597
-0.000541316
-0.000304484
0.000395148
-0.000558836
-0.000143912
0.000378225
-0.000538798
-1.85633e-05
0.000337727
-0.000463075
6.09215e-05
0.000297005
-0.00037649
8.86986e-05
0.000231634
-0.000259411
7.78521e-05
0.000174052
-0.000163205
4.84303e-05
0.00012208
-9.26581e-05
2.54515e-05
8.07237e-05
-5.77449e-05
9.21768e-06
5.57629e-05
-3.95294e-05
6.5159e-07
4.28072e-05
-3.42409e-05
-3.70558e-06
3.24327e-05
-2.80752e-05
2.16105e-05
-2.53157e-05
9.25562e-06
5.73815e-06
-1.41612e-05
4.63118e-05
-2.5838e-05
-2.52043e-05
8.44825e-05
-2.16877e-05
-2.48429e-05
0.000115402
-1.29516e-05
-2.61429e-05
0.00013756
-2.60329e-06
-2.61724e-05
0.000152412
1.12674e-05
-3.06575e-05
0.00016
2.88052e-05
-3.67261e-05
0.000161992
4.2353e-05
-4.27467e-05
0.000154096
6.57715e-05
-5.29501e-05
0.00013375
8.79708e-05
-5.9946e-05
9.00209e-05
0.000128325
-7.59038e-05
2.72167e-05
0.000171055
-9.22799e-05
-5.61815e-05
0.000205963
-9.90416e-05
-0.000154543
0.000247575
-0.000108557
-0.000286086
0.000304479
-0.000129083
-0.000475612
0.000384122
-0.000163726
-0.000669103
0.000460139
-0.0002342
-0.000870221
0.000547094
-0.000292956
-0.0010441
0.000639319
-0.000365487
-0.00119881
0.000734716
-0.000445135
-0.00132185
0.000845412
-0.000518579
-0.00141188
0.000932115
-0.000609912
-0.00144109
0.00102554
-0.000726688
-0.00141719
0.00109161
-0.000806104
-0.00132352
0.00113244
-0.000888517
-0.0011748
0.00116395
-0.000942124
-0.000979061
0.00116605
-0.000970195
-0.000751353
0.00114437
-0.000965485
-0.000519516
0.00108487
-0.000921555
-0.000294526
0.00100308
-0.000849845
-0.000104605
0.000875229
-0.000727423
5.51516e-05
0.000736922
-0.000599673
0.000131446
0.000589
-0.00043366
0.000156015
0.000459473
-0.00030999
0.000139182
0.000341783
-0.00020287
0.000107601
0.00025203
-0.000139726
7.45314e-05
0.000187995
-9.91621e-05
4.73763e-05
0.000147502
-7.75396e-05
1.96118e-05
0.000117212
-5.70143e-05
7.95367e-05
-3.83143e-05
1.9249e-05
-1.76178e-06
-1.17489e-05
5.76318e-05
-3.27519e-05
-3.14688e-05
9.75641e-05
-2.28215e-05
-3.87984e-05
0.000126943
-1.74029e-06
-4.05903e-05
0.000144026
2.85576e-05
-4.82436e-05
0.000148119
6.29107e-05
-5.5736e-05
0.0001396
0.000105338
-6.80142e-05
0.000119853
0.000146191
-8.4091e-05
8.89142e-05
0.000207398
-0.000110688
3.21129e-05
0.00027617
-0.000131398
-4.96836e-05
0.000355935
-0.000145813
-0.000148409
0.000436159
-0.000166379
-0.000309022
0.000546366
-0.000179789
-0.000495725
0.000652717
-0.00021844
-0.00070478
0.000764493
-0.00025096
-0.00089417
0.000874179
-0.000300667
-0.00106573
0.000981343
-0.000349639
-0.00122358
0.00110622
-0.000401289
-0.00136239
0.00123378
-0.000455647
-0.00148535
0.00136967
-0.000512002
-0.00157946
0.00149684
-0.000557317
-0.001638
0.00158505
-0.000594394
-0.00163354
0.00167876
-0.000657677
-0.00158707
0.00172645
-0.000681321
-0.00148358
0.00174354
-0.000714586
-0.00133936
0.00174086
-0.000721128
-0.00116154
0.00169778
-0.000709544
-0.000960635
0.00162148
-0.000678017
-0.000751773
0.0015071
-0.000631099
-0.000534105
0.00135905
-0.000573639
-0.000356921
0.00119232
-0.000494273
-0.000198036
0.00100756
-0.000429524
-8.31268e-05
0.000814576
-0.000340485
-2.11052e-06
0.000648789
-0.000270331
3.17956e-05
0.000506868
-0.000198992
4.61242e-05
0.000389714
-0.000152013
4.61985e-05
0.000308751
-0.00012083
3.62661e-05
0.000256991
-9.95561e-05
1.68852e-05
0.000206381
-6.97883e-05
0.000135423
-3.90008e-05
1.93444e-05
-2.71414e-06
-1.83918e-05
5.81274e-05
-2.51341e-05
-4.6401e-05
9.68222e-05
-2.05869e-06
-5.94573e-05
0.000122124
3.82619e-05
-6.53036e-05
0.000126709
9.74951e-05
-7.35229e-05
0.000114228
0.000162378
-8.69866e-05
9.18207e-05
0.000237704
-0.000109959
5.71125e-05
0.000318529
-0.00013763
5.97774e-06
0.000428559
-0.000170027
-7.28679e-05
0.000543743
-0.000188728
-0.000192728
0.000678439
-0.000202644
-0.000351714
0.000809361
-0.000214216
-0.000519417
0.000940112
-0.000226044
-0.000680585
0.00105655
-0.000242668
-0.000837573
0.00118663
-0.000265152
-0.000986895
0.00131207
-0.000288569
-0.00113046
0.00143565
-0.00031074
-0.00125593
0.00155594
-0.000324256
-0.00136288
0.00167421
-0.000333464
-0.0014552
0.0017919
-0.000329909
-0.00153085
0.00188559
-0.000313099
-0.00158467
0.00193282
-0.000293959
-0.00157878
0.00198035
-0.000307475
-0.00154597
0.00197959
-0.000285949
-0.00146627
0.00194729
-0.000283455
-0.00136068
0.00190048
-0.000265217
-0.00123356
0.00181626
-0.000245599
-0.00109212
0.00170526
-0.000225222
-0.000939238
0.00156069
-0.000206462
-0.000776721
0.00139728
-0.000200748
-0.000602947
0.00121952
-0.000200977
-0.000435474
0.00103721
-0.000197121
-0.000292137
0.000866291
-0.000195052
-0.000166948
0.000711175
-0.000187576
-8.22847e-05
0.000587872
-0.000165667
-2.48332e-05
0.000480774
-0.000148511
9.51166e-06
0.000406296
-0.000131889
2.25187e-05
0.000352701
-0.000108717
1.76618e-05
0.000287668
-7.64297e-05
0.000189115
-3.60298e-05
1.82131e-05
1.45028e-05
-3.54301e-05
5.99247e-05
1.07671e-05
-7.76129e-05
0.000102079
4.80457e-05
-9.22588e-05
0.000123045
0.000117995
-0.000100699
0.000124037
0.000204446
-0.000107944
9.53695e-05
0.000311027
-0.000119982
6.47163e-05
0.000420469
-0.000152112
2.26964e-05
0.000547108
-0.00018656
-3.45137e-05
0.000693452
-0.000207684
-0.000121778
0.000842893
-0.000211886
-0.000223919
0.000992571
-0.000211991
-0.000339888
0.0011316
-0.000206267
-0.000478342
0.00127602
-0.000197451
-0.000627519
0.00140206
-0.000196324
-0.000766073
0.00151757
-0.000192379
-0.000886812
0.0016153
-0.000182494
-0.000987725
0.00169769
-0.00016113
-0.00107425
0.001774
-0.000131539
-0.00116553
0.001845
-7.95077e-05
-0.00125021
0.00190649
-2.99129e-05
-0.00134293
0.0019475
3.08111e-05
-0.0014091
0.00192036
7.86258e-05
-0.00141789
0.00190626
8.28803e-05
-0.00141705
0.00187657
0.000102189
-0.00138105
0.00182116
9.01392e-05
-0.00133212
0.00176498
8.65558e-05
-0.00126722
0.00167522
7.61326e-05
-0.00119617
0.00157179
6.24306e-05
-0.00110316
0.00144121
2.64698e-05
-0.000986721
0.001298
-1.7162e-05
-0.000844971
0.00114291
-6.51383e-05
-0.000685063
0.000992423
-0.000115123
-0.000524881
0.000851604
-0.000145496
-0.000379904
0.000729321
-0.000163122
-0.000246846
0.000633023
-0.000178209
-0.00013937
0.000535953
-0.000162655
-5.88314e-05
0.000471585
-0.000145828
-7.18975e-06
0.000422671
-0.000121612
8.68931e-06
0.000352058
-8.02686e-05
0.000230771
-3.29676e-05
1.75981e-05
5.9221e-05
-6.23164e-05
5.98818e-05
8.43712e-05
-0.000115888
0.000112721
0.000137346
-0.00014214
0.000131165
0.000236645
-0.000137093
0.000129279
0.000346427
-0.000140095
8.93539e-05
0.000498892
-0.00014794
6.25014e-05
0.00063082
-0.000183499
2.20452e-05
0.00079589
-0.000208325
-2.51134e-05
0.000953315
-0.000212705
-9.18908e-05
0.0011072
-0.00019753
-0.000171088
0.00125146
-0.000179694
-0.000265545
0.00138338
-0.000157325
-0.000356444
0.00149704
-0.000130125
-0.000445529
0.00159368
-0.000102542
-0.000529422
0.00167279
-7.13323e-05
-0.000618389
0.00173071
-2.64431e-05
-0.00072973
0.00176762
4.14196e-05
-0.000829385
0.00177726
9.63932e-05
-0.000920036
0.00177968
0.000155966
-0.000998952
0.00176506
0.000220347
-0.00108662
0.00177106
0.000264106
-0.00118148
0.00172285
0.000292377
-0.0012244
0.00166182
0.000287349
-0.00126825
0.0016225
0.000297921
-0.00128422
0.00155333
0.000283792
-0.001292
0.00150001
0.000272763
-0.00128705
0.00142603
0.00024424
-0.00127555
0.00134865
0.000211636
-0.00124108
0.00125253
0.000154207
-0.00116378
0.00115249
6.82121e-05
-0.0010559
0.00103881
-3.78114e-06
-0.000908958
0.00092658
-8.10977e-05
-0.000734813
0.000817602
-0.000140142
-0.000556247
0.000723247
-0.000172493
-0.000376466
0.000646975
-0.000193732
-0.000231934
0.000579123
-0.000187703
-0.000111894
0.00052017
-0.000168625
-3.23734e-05
0.000478206
-0.000135056
4.64106e-06
0.000402804
-8.77607e-05
0.000267322
-3.19109e-05
2.20984e-05
0.000132363
-9.52403e-05
8.96287e-05
0.000184411
-0.00016757
0.000145829
0.0002663
-0.000185154
0.000164595
0.000386985
-0.000169105
0.000147288
0.000523335
-0.000159601
0.000127717
0.000688051
-0.000169588
0.000113008
0.000842584
-0.000197055
9.20987e-05
0.00102104
-0.000204239
5.9489e-05
0.00116857
-0.000182644
3.82202e-06
0.00131449
-0.000151629
-6.25058e-05
0.0014366
-0.000118811
-0.000134919
0.0015391
-8.3312e-05
-0.000209807
0.00161925
-4.73245e-05
-0.000286008
0.00167142
-1.53555e-06
-0.000358502
0.00169629
4.89904e-05
-0.000426297
0.00169773
0.000100776
-0.000491443
0.00167419
0.000158572
-0.00057929
0.00164212
0.000222985
-0.000678447
0.00159685
0.00028199
-0.000781174
0.00153504
0.000332743
-0.000874535
0.00149778
0.000366636
-0.000995589
0.00145043
0.000393471
-0.00106538
0.00135101
0.000380604
-0.00114411
0.00132639
0.000374833
-0.00120701
0.00127203
0.000344201
-0.00126346
0.00123985
0.000316598
-0.0013087
0.00119739
0.000273885
-0.00134223
0.00115233
0.00022985
-0.00135348
0.00109764
0.000166135
-0.00131038
0.00103689
7.25034e-05
-0.00122862
0.000959628
-2.58149e-06
-0.00110097
0.000877318
-7.8386e-05
-0.000926148
0.000792878
-0.000150097
-0.000726004
0.000713886
-0.000190781
-0.000504693
0.000655182
-0.000229518
-0.000322446
0.000619892
-0.000223016
-0.000166745
0.000564587
-0.000200118
-5.75954e-05
0.000527655
-0.000158599
-1.91959e-06
0.000448441
-0.000101313
0.000300833
-3.5431e-05
2.88381e-05
0.00023051
-0.000126985
0.000121903
0.000308535
-0.000217189
0.000194186
0.000421847
-0.00022783
0.000222768
0.000555906
-0.000197504
0.00020834
0.000713673
-0.00017591
0.000199559
0.000878288
-0.000181456
0.00019429
0.00103798
-0.000190123
0.000186735
0.00120205
-0.000173453
0.000157427
0.00133705
-0.00013917
0.000114259
0.00145483
-9.71626e-05
6.20683e-05
0.00154756
-5.87682e-05
1.81146e-06
0.00161269
-1.33352e-05
-6.65869e-05
0.00164452
4.31292e-05
-0.000132133
0.00164646
9.05015e-05
-0.000201195
0.00162119
0.00014417
-0.000272116
0.0015709
0.000197752
-0.000343814
0.00149986
0.000246026
-0.000426015
0.00143046
0.000293867
-0.000515391
0.00135351
0.000332722
-0.000624026
0.00127953
0.000364144
-0.000715351
0.00121203
0.000377078
-0.000842599
0.00118951
0.00038817
-0.000956692
0.00109869
0.000366418
-0.00106071
0.00107911
0.000351297
-0.00116024
0.0010507
0.000320874
-0.00124873
0.00103827
0.000290071
-0.00132425
0.00102355
0.00024936
-0.00138857
0.000999028
0.000217627
-0.0014285
0.00097334
0.000164223
-0.00142063
0.000930777
9.82482e-05
-0.00136692
0.000877532
2.8378e-05
-0.00125788
0.000811332
-4.30484e-05
-0.00108494
0.000746245
-0.000126308
-0.000881034
0.000692696
-0.000182716
-0.000646754
0.000642315
-0.000221412
-0.000413521
0.000639447
-0.00025279
-0.000220341
0.000595458
-0.000224051
-8.12333e-05
0.000569324
-0.000180777
-8.54474e-06
0.000490643
-0.00011489
0.000332034
-3.97451e-05
5.11198e-05
0.000331522
-0.000152132
0.000165211
0.000453321
-0.000258876
0.000261374
0.000592315
-0.000266631
0.000299461
0.000735392
-0.000217573
0.000297753
0.000895838
-0.000180456
0.000292985
0.00105086
-0.000167809
0.000282985
0.00120279
-0.000154815
0.00028474
0.00133562
-0.000135333
0.00027297
0.00144613
-9.73127e-05
0.000236468
0.00153934
-4.80104e-05
0.000188339
0.0015915
4.1818e-06
0.000128394
0.00161166
6.09817e-05
5.93211e-05
0.00160322
0.000110375
-1.0574e-05
0.00156041
0.000155951
-8.40839e-05
0.00149282
0.000201878
-0.000163024
0.00140666
0.00024318
-0.000245004
0.00130581
0.000276031
-0.000336942
0.0012207
0.000301694
-0.00042559
0.00112607
0.000316082
-0.000531295
0.00105925
0.000325985
-0.000638187
0.000995708
0.000323212
-0.00075419
0.000984513
0.000320999
-0.000892219
0.000926368
0.00031035
-0.00101137
0.000906519
0.000291744
-0.00112932
0.000893606
0.000275041
-0.00123705
0.000897527
0.000248468
-0.00133354
0.000892985
0.000227063
-0.00142004
0.000885457
0.000200071
-0.00148627
0.000866365
0.000173199
-0.00151352
0.000830698
0.000127329
-0.00148285
0.000783763
6.30955e-05
-0.00138597
0.000731176
-1.67173e-05
-0.00121906
0.000673986
-9.46532e-05
-0.000997364
0.000633597
-0.000162598
-0.000747895
0.000604524
-0.000211679
-0.000493044
0.000626777
-0.000242181
-0.000275143
0.000620743
-0.000243187
-0.000105772
0.000598345
-0.000198392
-1.63354e-05
0.000530647
-0.000129441
0.000361892
-4.61928e-05
6.65874e-05
0.000432304
-0.000167369
0.00020492
0.000605356
-0.000290368
0.000325903
0.000763087
-0.000291755
0.000382043
0.000906489
-0.000227238
0.000395992
0.00105564
-0.000173748
0.000390114
0.00119233
-0.000135589
0.000380561
0.00132677
-0.000114424
0.000373524
0.00143345
-9.07879e-05
0.000358789
0.00151243
-5.15683e-05
0.000340384
0.00155887
-1.12868e-06
0.000299758
0.0015827
4.94296e-05
0.000228936
0.00157301
0.00010947
0.000155122
0.00152196
0.000155071
7.91075e-05
0.00144123
0.000195197
-3.98605e-06
0.00134715
0.00022876
-9.21338e-05
0.00124024
0.000254568
-0.000189406
0.00113108
0.000271999
-0.000294448
0.00104729
0.000278455
-0.000396112
0.000953352
0.000274385
-0.00049844
0.000896574
0.000265003
-0.000610141
0.000851883
0.000255525
-0.000711166
0.000836002
0.000249536
-0.000838789
0.000807285
0.000246706
-0.000967844
0.000793574
0.000242001
-0.00109231
0.000777399
0.000240677
-0.00120759
0.000786485
0.000226322
-0.00131629
0.000783559
0.000218125
-0.00142037
0.000778468
0.000211065
-0.0015083
0.000753174
0.000201124
-0.0015595
0.000719948
0.000161948
-0.00155687
0.000682719
9.84165e-05
-0.00148126
0.00064307
1.24993e-05
-0.00133485
0.000605643
-7.80687e-05
-0.00111503
0.000570998
-0.000157224
-0.00085935
0.00054564
-0.000196797
-0.00057354
0.000565383
-0.000224417
-0.000321543
0.000616448
-0.000247702
-0.000129215
0.000611921
-0.000205904
-2.28298e-05
0.000561604
-0.000137343
0.000389256
-5.01939e-05
8.28476e-05
0.000522293
-0.000172837
0.000248328
0.000751808
-0.000311931
0.000393216
0.000926461
-0.000308263
0.000468168
0.0010602
-0.00022866
0.000496836
0.00118692
-0.000159947
0.000492899
0.00130006
-0.000103796
0.000482419
0.00140917
-7.19179e-05
0.00046463
0.00148699
-3.57559e-05
0.000434846
0.00154082
1.3987e-06
0.000398149
0.00156248
3.30901e-05
0.000358642
0.00154311
7.90974e-05
0.000302144
0.00149359
0.000135919
0.000226302
0.00142083
0.000176979
0.000137204
0.00132047
0.000209853
4.63377e-05
0.00120707
0.000230953
-4.75901e-05
0.00109307
0.000241096
-0.000158015
0.000993712
0.000247797
-0.000266674
0.000913095
0.000242852
-0.000384081
0.000839047
0.000231711
-0.000491442
0.000789524
0.000214412
-0.000586945
0.00074749
0.000199896
-0.000679037
0.000730222
0.000197872
-0.000786745
0.000713639
0.000201354
-0.000908627
0.00070213
0.000213325
-0.00103581
0.000685748
0.000218829
-0.00115247
0.000674919
0.000228229
-0.00127212
0.000678333
0.000224874
-0.00139667
0.00066085
0.000242174
-0.00150529
0.000638769
0.000223027
-0.00158007
0.000611387
0.000183337
-0.00161018
0.000582658
0.000130169
-0.00156632
0.000555299
4.39106e-05
-0.00143593
0.000517311
-4.20604e-05
-0.00120748
0.000490934
-0.000148379
-0.000929271
0.000474341
-0.000206914
-0.000637945
0.000499666
-0.000225609
-0.000371196
0.000566568
-0.000216869
-0.000154789
0.00061564
-0.000220126
-3.02646e-05
0.000579907
-0.000142827
0.000415873
-5.68816e-05
9.25593e-05
0.000598539
-0.000168805
0.000283036
0.000883209
-0.000321877
0.000454539
0.00106749
-0.000312532
0.000550656
0.00118756
-0.000223484
0.000590831
0.00129114
-0.000144402
0.000591992
0.00137568
-7.67791e-05
0.000579678
0.00145555
-3.40723e-05
0.000550358
0.00150708
9.22875e-06
0.000509182
0.00153579
4.6204e-05
0.000455648
0.00152595
9.00602e-05
0.000397027
0.00148829
0.000113439
0.000327518
0.00141513
0.000147966
0.00025765
0.00131155
0.000179151
0.000172386
0.00119933
0.000206404
8.04435e-05
0.00108389
0.000215117
-1.86203e-05
0.00097516
0.000216977
-0.000132905
0.000890018
0.000217978
-0.000240723
0.000810072
0.000210842
-0.000358435
0.000757995
0.000198765
-0.000459397
0.000710562
0.000179924
-0.000550848
0.000672325
0.000166617
-0.000635721
0.000648539
0.000166557
-0.000726097
0.000626316
0.000177699
-0.000825668
0.000608221
0.00019348
-0.00094802
0.000593059
0.00021504
-0.00106978
0.000565188
0.000231491
-0.00119871
0.000552042
0.00025522
-0.00133463
0.00054178
0.000254996
-0.00145864
0.000523709
0.000239067
-0.00156294
0.000508052
0.000207638
-0.00161574
0.000491529
0.000143921
-0.0016007
0.000475594
6.46708e-05
-0.00150558
0.000438764
-1.65742e-05
-0.00132341
0.000413216
-0.000104452
-0.00103544
0.000400129
-0.000213759
-0.000708381
0.000419569
-0.000246963
-0.000404757
0.000488472
-0.000225527
-0.000176363
0.000586034
-0.000198787
-3.70086e-05
0.000586675
-0.000146123
0.000438021
-5.91565e-05
9.95481e-05
0.000657979
-0.000158989
0.00031306
0.000989417
-0.00031972
0.000510881
0.00118101
-0.000311338
0.000624821
0.00128745
-0.000213825
0.00067239
0.00136889
-0.000125319
0.000676976
0.00142759
-5.64934e-05
0.000662318
0.0014757
-5.48567e-06
0.000626204
0.00149731
4.58904e-05
0.000574782
0.00149885
8.83631e-05
0.000508958
0.00146989
0.000121884
0.000434218
0.00141141
0.000151626
0.000352783
0.00132392
0.000172641
0.000272285
0.00121323
0.000178809
0.00018463
0.00109565
0.000191337
9.51001e-05
0.000979534
0.000193888
-5.59961e-07
0.000879105
0.000191715
-0.000105762
0.000802519
0.0001927
-0.000216703
0.000731968
0.000189044
-0.0003213
0.000685364
0.000177228
-0.000410933
0.000640415
0.00015978
-0.000496631
0.000605536
0.000152486
-0.000573745
0.00057677
0.000148883
-0.000652352
0.00054585
0.000159073
-0.000741893
0.000518098
0.000179665
-0.000839154
0.000485809
0.00020451
-0.000964749
0.000462289
0.000228494
-0.00108926
0.00042633
0.000250221
-0.00123286
0.000426175
0.000259208
-0.00137145
0.000413815
0.00024848
-0.0014942
0.000413428
0.000217372
-0.00158776
0.000406411
0.00017868
-0.00161026
0.000379298
0.000118794
-0.0015583
0.000336148
5.06585e-05
-0.00140299
0.000296713
-3.88114e-05
-0.00114482
0.00028747
-0.000145505
-0.000799679
0.00031879
-0.000244363
-0.000458724
0.000405213
-0.000257696
-0.000198063
0.00051639
-0.000191016
-4.44134e-05
0.000582291
-0.000149266
0.000458784
-6.51784e-05
0.000106263
0.000693248
-0.000141531
0.000339362
0.00106768
-0.000311367
0.0005585
0.00126866
-0.000306797
0.000688576
0.0013632
-0.000205824
0.000744794
0.00142003
-0.000107357
0.000749924
0.00145415
-3.16899e-05
0.00073174
0.00147411
1.97704e-05
0.000686839
0.00146824
7.39653e-05
0.00062917
0.00144608
0.000110439
0.000557653
0.00139691
0.000144504
0.000471837
0.00132581
0.000171409
0.000376032
0.00122961
0.000190115
0.000280182
0.00111763
0.000191452
0.000194401
0.000998285
0.000183144
0.000111096
0.000886586
0.000176253
1.60392e-05
0.000802732
0.00017143
-8.1449e-05
0.00072615
0.000173858
-0.000185897
0.000665041
0.000171375
-0.000277101
0.000618386
0.000158184
-0.000361509
0.000576531
0.000148291
-0.000435811
0.000535212
0.000144626
-0.000503583
0.000499964
0.000144578
-0.000563606
0.000459402
0.000146471
-0.000640647
0.00043297
0.00016217
-0.000724825
0.000385807
0.00018418
-0.000834541
0.00036162
0.000210385
-0.000961788
0.000321248
0.00023233
-0.00109134
0.000308817
0.000246912
-0.00123698
0.000316949
0.000242505
-0.00138603
0.000324894
0.000237576
-0.00150257
0.000309147
0.000213808
-0.00157737
0.000265952
0.000188144
-0.00157706
0.000208867
0.000126977
-0.00147214
0.000155015
3.67762e-05
-0.00123853
0.0001264
-7.25419e-05
-0.000900769
0.000164655
-0.000183627
-0.000518731
0.000284157
-0.000260981
-0.000225797
0.000443681
-0.000220225
-5.08057e-05
0.000553453
-0.000146153
0.000477055
-6.90768e-05
0.000105972
0.000712025
-0.00012475
0.000352321
0.00111737
-0.000296035
0.000591395
0.00132963
-0.000300038
0.000739036
0.00141689
-0.000201338
0.000800925
0.00145373
-9.55849e-05
0.000802504
0.00146285
-1.02857e-05
0.00077759
0.00145227
4.67577e-05
0.000731095
0.00142553
8.92116e-05
0.000668216
0.0013834
0.000125556
0.000589476
0.00131615
0.000159496
0.000500789
0.00123342
0.00018108
0.000404444
0.00113055
0.000195407
0.000301482
0.00102281
0.000197782
0.000201745
0.000916213
0.000181809
0.000106349
0.000817574
0.000164409
2.20978e-05
0.000726205
0.000160779
-6.21865e-05
0.00064926
0.000161175
-0.000149808
0.000599734
0.000152929
-0.000229446
0.000553159
0.000144865
-0.00029947
0.000505538
0.000141017
-0.000366728
0.000459681
0.00014279
-0.000423555
0.000421302
0.000135488
-0.000479514
0.000375033
0.000140329
-0.000531954
0.000342469
0.000142941
-0.000611489
0.00030371
0.00016163
-0.00069668
0.000261375
0.000185436
-0.000821357
0.000233462
0.000212462
-0.000937988
0.000204843
0.000220605
-0.00109132
0.000230066
0.000240214
-0.00123682
0.000222597
0.000247802
-0.00137854
0.000196144
0.000254721
-0.00149085
0.000148494
0.000229768
-0.00154067
7.98298e-05
0.000178859
-0.00149201
7.34101e-06
9.90139e-05
-0.00131226
-4.62038e-05
-7.14831e-06
-0.00100428
-2.78592e-05
-0.000115469
-0.000596811
9.48507e-05
-0.000218158
-0.00024613
0.000341976
-0.000248977
-5.88087e-05
0.000507689
-0.000141555
0.000486696
-6.84489e-05
0.000116862
0.000674295
-7.91322e-05
0.000373702
0.00111913
-0.000258601
0.000623202
0.00135011
-0.000269979
0.000783884
0.0014329
-0.000176693
0.000853259
0.00145501
-7.0661e-05
0.000851378
0.00144042
2.43143e-05
0.000822209
0.00141106
7.03751e-05
0.000772664
0.00136298
0.000112086
0.000708908
0.00130824
0.000138919
0.000628876
0.00123661
0.000159569
0.000529145
0.00115303
0.000180122
0.000414012
0.00105155
0.000194129
0.000303916
0.000939517
0.00019339
0.000214312
0.00082327
0.000182547
0.000134806
0.000728478
0.000168601
4.98201e-05
0.000652464
0.000158728
-4.35264e-05
0.000589446
0.00015316
-0.000118099
0.000535959
0.000138348
-0.000182688
0.000484428
0.000133319
-0.000240266
0.000434437
0.000128681
-0.000300887
0.000387987
0.000132314
-0.000349792
0.000344462
0.000125745
-0.000404228
0.000302033
0.000127436
-0.000445471
0.000259398
0.000124314
-0.000503752
0.000230211
0.00013178
-0.000582655
0.00017812
0.000162158
-0.000680229
0.000141424
0.000189612
-0.000795503
0.000104445
0.000215672
-0.000918257
0.000117612
0.000235208
-0.00106734
0.000107755
0.000263924
-0.00122342
8.12529e-05
0.000270976
-0.00136618
3.2085e-05
0.000259164
-0.00146299
-4.51995e-05
0.000221842
-0.00146835
-0.000141499
0.000154203
-0.00134826
-0.000224619
5.83187e-05
-0.00108238
-0.000241821
-5.19144e-05
-0.000698775
-0.000135477
-0.000153278
-0.000290108
0.000147068
-0.00021376
-6.44491e-05
0.000440031
-0.000158002
0.000489086
-6.68381e-05
0.000106862
0.000617666
-5.02329e-05
0.000364797
0.0011053
-0.000244104
0.000630028
0.00134912
-0.000264243
0.00081133
0.00142928
-0.000177683
0.000886611
0.00143569
-5.59608e-05
0.000886181
0.00140363
3.72167e-05
0.000850945
0.00135278
9.35207e-05
0.00078858
0.0012994
0.000125953
0.000703971
0.00124077
0.000152075
0.000616691
0.00115137
0.000172526
0.000532627
0.00105071
0.000186388
0.000448952
0.000942802
0.000192426
0.000362466
0.000841697
0.000184305
0.000272226
0.000745029
0.000168481
0.000178243
0.000666141
0.00015632
8.03142e-05
0.000592599
0.000157794
-9.2105e-06
0.000536045
0.000142926
-7.66884e-05
0.000475704
0.000127733
-0.000134355
0.000425242
0.000116853
-0.000185665
0.000372018
0.000113728
-0.000236101
0.000323575
0.000114849
-0.000282328
0.000280071
0.000110619
-0.000329119
0.000237635
0.000111189
-0.000371516
0.000192975
0.000108819
-0.000411545
0.000160966
0.000109274
-0.000484784
0.000109752
0.000141606
-0.00056549
5.73028e-05
0.000164827
-0.000673585
1.65565e-05
0.000195984
-0.0007824
-7.26436e-06
0.000233692
-0.000915341
-2.2097e-05
0.000262792
-0.0010605
-5.83449e-05
0.000284761
-0.00120554
-0.000108879
0.000286001
-0.00132874
-0.000179081
0.000257083
-0.00138847
-0.000280645
0.000198876
-0.0013343
-0.000393525
0.000114738
-0.00112948
-0.000462875
1.62356e-05
-0.000772721
-0.000395148
-9.70917e-05
-0.000359979
-0.000102577
-0.000163097
-6.56933e-05
0.000315274
-0.00016953
0.000476313
-5.29208e-05
0.000129101
0.000474048
1.45165e-05
0.000377808
0.0010351
-0.000178508
0.000649662
0.0012992
-0.000221935
0.000836768
0.00138562
-0.000143439
0.000915542
0.00138496
-2.80357e-05
0.000909156
0.00134445
6.55691e-05
0.00086675
0.00127727
0.000117915
0.000813206
0.00120105
0.00015189
0.000759611
0.00112312
0.000171244
0.000696628
0.00103418
0.000180172
0.00060867
0.000953865
0.000184799
0.000500777
0.000865295
0.0001854
0.000388943
0.000780641
0.00017289
0.000288566
0.000691629
0.000153777
0.000200126
0.000616811
0.000137769
0.000119402
0.000538363
0.000134961
3.759e-05
0.000479611
0.000138247
-2.83527e-05
0.000418608
0.000123039
-8.23346e-05
0.000367538
0.000111686
-0.000130114
0.000315652
0.000104146
-0.0001777
0.000268527
0.000102635
-0.00022055
0.000224873
9.8047e-05
-0.000263185
0.00018369
9.6579e-05
-0.000308413
0.000141046
9.71567e-05
-0.00034441
0.000101729
9.52337e-05
-0.00040306
4.57066e-05
0.000122695
-0.000472922
-8.04268e-06
0.000135207
-0.000553999
-6.08466e-05
0.000158479
-0.000652006
-0.000103095
0.000193838
-0.00076899
-0.000145191
0.000240078
-0.000909489
-0.000195145
0.0002773
-0.00108243
-0.000229556
0.00029362
-0.00123032
-0.000329604
0.000298417
-0.00131221
-0.000467334
0.000268578
-0.00129858
-0.000619276
0.000212121
-0.00114355
-0.000743011
0.000125107
-0.000819696
-0.000732314
1.33079e-05
-0.000402831
-0.000415943
-0.000103498
-6.76907e-05
0.000113091
-0.000132956
0.000442321
-3.36995e-05
0.000127439
0.000335771
1.08381e-05
0.000344964
0.000979814
-0.000162238
0.000622921
0.00124198
-0.000220743
0.00082428
0.00132999
-0.000145737
0.000921919
0.00131338
-2.60627e-05
0.000944431
0.00125526
6.6681e-05
0.000919287
0.00117364
0.000128772
0.000867459
0.00110224
0.000150636
0.000789567
0.00103542
0.000165599
0.000695468
0.000955885
0.00017239
0.000599879
0.000873826
0.000175629
0.00050463
0.000788224
0.000172319
0.000410344
0.000708974
0.000165954
0.000320043
0.000632865
0.000149065
0.000242561
0.000565432
0.00012886
0.000169502
0.000496865
0.000114558
9.75548e-05
0.000437314
0.000114244
2.51746e-05
0.000373065
0.000117924
-3.14282e-05
0.000317134
0.000107007
-7.98187e-05
0.000269146
9.48961e-05
-0.0001263
0.000220957
9.40503e-05
-0.000166208
0.000177955
8.6826e-05
-0.000205814
0.000138143
8.51529e-05
-0.000247072
9.70786e-05
8.52245e-05
-0.000282727
5.1121e-05
8.62617e-05
-0.000339088
6.25499e-08
0.000102005
-0.000399703
-5.44672e-05
0.00010704
-0.000474636
-0.000108694
0.00012278
-0.000562385
-0.000165914
0.000150568
-0.000659074
-0.000236092
0.00018759
-0.000765863
-0.000321381
0.000233026
-0.000870806
-0.000407654
0.000283042
-0.00100728
-0.000504583
0.000311448
-0.00115258
-0.000628597
0.000306571
-0.00123673
-0.000796582
0.000261449
-0.0011755
-0.000987082
0.000182846
-0.000945197
-0.00104222
7.96023e-05
-0.000509514
-0.000825326
-2.63013e-05
-0.000110459
-0.000213936
-7.20295e-05
0.000324412
7.44898e-06
9.577e-05
0.000224564
1.5437e-05
0.000338301
0.000876503
-0.000139219
0.000617028
0.00116071
-0.000197456
0.000830008
0.00125951
-0.000142495
0.000933047
0.00124478
-3.44338e-05
0.000952664
0.00118138
5.42642e-05
0.000906968
0.00109624
0.0001231
0.000846968
0.00101483
0.000147407
0.000784451
0.000938669
0.000159264
0.000710722
0.000865519
0.000164095
0.000628718
0.000791457
0.000164373
0.000538391
0.000718692
0.000159859
0.000449268
0.000647182
0.000150916
0.000362645
0.00058211
0.000137377
0.000281155
0.000518747
0.000128175
0.000210336
0.000459341
0.000108343
0.000148524
0.000398399
0.000100728
8.40946e-05
0.000339982
9.75117e-05
2.00277e-05
0.000280481
0.00010072
-2.80644e-05
0.000225181
9.20571e-05
-7.74967e-05
0.000183804
8.65858e-05
-0.000118813
0.000138135
8.11354e-05
-0.00015751
9.86084e-05
7.82309e-05
-0.000195951
5.73256e-05
7.81936e-05
-0.000233941
6.60939e-06
8.25013e-05
-0.000283878
-3.92109e-05
8.92105e-05
-0.000336573
-9.32135e-05
9.14415e-05
-0.000398509
-0.000150085
0.000103328
-0.000468632
-0.000213209
0.000117418
-0.000559128
-0.000288562
0.000142966
-0.000684322
-0.000375571
0.000179384
-0.000823969
-0.000493014
0.000225007
-0.000954832
-0.00065117
0.000277449
-0.00105385
-0.000842746
0.000313171
-0.00110984
-0.00105086
0.000310254
-0.00108848
-0.00127044
0.000262001
-0.000910878
-0.00137455
0.000154723
-0.000564206
-0.00122388
5.18869e-05
-0.000137113
-0.000611387
-2.96418e-05
0.0001359
5.13978e-05
6.51278e-05
0.000166085
-6.649e-06
0.000304575
0.000776421
-0.000139367
0.000572986
0.00108165
-0.000189349
0.000799713
0.00118927
-0.000156487
0.000919118
0.00117636
-5.09897e-05
0.000956495
0.00110646
3.75395e-05
0.000927912
0.00101497
0.000109852
0.000876872
0.00093223
0.000133643