/*--------------------------------*- C++ -*----------------------------------*\
| =========                 |                                                 |
| \\      /  F ield         | OpenFOAM: The Open Source CFD Toolbox           |
|  \\    /   O peration     | Version:  v1806                                 |
|   \\  /    A nd           | Web:      www.OpenFOAM.com                      |
|    \\/     M anipulation  |                                                 |
\*---------------------------------------------------------------------------*/
FoamFile
{
    version     2.0;
    format      ascii;
    class       volVectorField;
    location    "0.0375";
    object      U;
}
// * * * * * * * * * * * * * * * * * * * * * * * * * * * * * * * * * * * * * //

dimensions      [0 1 -1 0 0 0 0];


internalField   nonuniform List<vector> 
64000
(
(-0.00624295 -0.00735528 -0.00304815)
(0.0137507 -0.00809841 -0.00116081)
(0.0268414 -0.00476135 0.00203242)
(0.0306899 -0.00448185 0.00207189)
(0.0253277 -0.0032742 0.00293769)
(0.0221667 -0.00278294 0.00420781)
(0.0210203 -0.00354959 0.00399486)
(0.0168388 -0.00377772 0.00403814)
(0.0145354 -0.00477341 0.0051647)
(0.00825251 -0.00389265 0.00467286)
(0.000638534 -0.00641442 0.00595844)
(-0.015825 -0.00928225 0.0069708)
(-0.0376135 -0.0139137 0.00677698)
(-0.0643511 -0.0174699 0.00458965)
(-0.099223 -0.016362 0.00539973)
(-0.13411 -0.00911363 0.00390416)
(-0.17416 0.00363596 0.00327429)
(-0.210695 -0.00169492 0.00283535)
(-0.237415 -0.0102712 0.00516479)
(-0.270308 -0.0257419 -0.0121897)
(-0.261867 -0.0320613 -0.0351988)
(-0.136331 -0.0258454 -0.0381225)
(-0.08759 -0.0182997 -0.0329134)
(-0.0960742 -0.00619701 -0.0367731)
(-0.0873855 -0.000517932 -0.0493433)
(-0.0925097 0.00974132 -0.0568525)
(-0.0722688 0.0188173 -0.0627609)
(-0.047036 0.031142 -0.0569545)
(-0.0131764 0.0390538 -0.0492906)
(0.0298713 0.0539546 -0.0303809)
(0.0776791 0.0422694 -0.0307754)
(0.109933 0.0350599 -0.0213072)
(0.124043 0.0243551 -0.00939712)
(0.119748 0.0101156 -0.0026575)
(0.103482 0.00232456 0.0031832)
(0.0811748 -0.00569129 0.00540778)
(0.0576365 -0.00827579 0.00793581)
(0.0350407 -0.0067597 0.00877887)
(0.0177797 -0.00507284 0.00880602)
(0.00332763 -0.00362145 0.00705307)
(-0.00432857 -0.00551261 -0.000922248)
(0.0125434 -0.0173305 -0.000811394)
(0.0347625 -0.0147222 0.000652264)
(0.0451699 -0.0109569 -0.000233028)
(0.0438674 -0.00545993 0.000638805)
(0.0399004 -0.00165462 -0.00029078)
(0.0373107 0.00277958 -0.00215972)
(0.0294729 0.00517924 -0.00187423)
(0.0219811 0.0100384 -0.00705264)
(0.00411864 0.0170197 -0.00399173)
(-0.0218198 0.0241762 -0.00779939)
(-0.0605034 0.0337212 0.000159269)
(-0.108716 0.0467769 -0.00394146)
(-0.160971 0.0695061 -0.00632115)
(-0.221091 0.0792909 -0.0096348)
(-0.284198 0.0871761 -0.0191613)
(-0.379222 0.0924762 -0.0416335)
(-0.476584 0.0967263 -0.0562345)
(-0.548966 0.100659 -0.074297)
(-0.609752 0.101557 -0.097459)
(-0.596831 0.115888 -0.113819)
(-0.452156 0.138601 -0.127622)
(-0.385843 0.17306 -0.145676)
(-0.379715 0.208292 -0.150523)
(-0.345787 0.231369 -0.161487)
(-0.31644 0.255864 -0.166968)
(-0.256293 0.274239 -0.168717)
(-0.191038 0.290967 -0.158)
(-0.111144 0.29858 -0.136492)
(-0.0452861 0.305748 -0.111554)
(0.0215737 0.287224 -0.0743405)
(0.089537 0.257301 -0.0482224)
(0.122087 0.203544 -0.0384986)
(0.134821 0.157076 -0.0274772)
(0.127883 0.107345 -0.013438)
(0.106225 0.0669402 -0.00562298)
(0.0842124 0.0392512 -0.00108822)
(0.0577808 0.0244887 0.000302167)
(0.0335579 0.0146513 0.00209729)
(0.00939867 0.00568151 0.00397543)
(-0.000156766 -0.0142284 0.00181115)
(0.017363 -0.0256229 -0.000510686)
(0.0418051 -0.0209828 -0.000789167)
(0.0540625 -0.0100529 -0.000323763)
(0.0504441 0.00198152 -0.00271279)
(0.0441518 0.0159494 -0.00416243)
(0.0354953 0.0302103 -0.00604267)
(0.0199514 0.0447801 -0.00828642)
(0.00411319 0.0693347 -0.00126176)
(-0.0253484 0.0932927 -0.00461199)
(-0.0640353 0.123227 -0.00831002)
(-0.116679 0.156345 -0.0126336)
(-0.17449 0.185513 -0.0167571)
(-0.260026 0.207181 -0.0307332)
(-0.366786 0.22492 -0.0327516)
(-0.461928 0.237349 -0.0430422)
(-0.556425 0.244938 -0.0572674)
(-0.637062 0.268971 -0.0727726)
(-0.701358 0.295853 -0.0903604)
(-0.747671 0.329065 -0.111082)
(-0.720726 0.364123 -0.119656)
(-0.552563 0.393081 -0.121471)
(-0.461158 0.44251 -0.131467)
(-0.444215 0.482661 -0.124192)
(-0.402535 0.5114 -0.12547)
(-0.369132 0.535011 -0.122657)
(-0.309344 0.546476 -0.118535)
(-0.247839 0.549091 -0.106159)
(-0.176906 0.539106 -0.0854234)
(-0.113288 0.518272 -0.0622711)
(-0.0571347 0.495047 -0.0400775)
(-0.018361 0.447541 -0.0275937)
(0.0172138 0.378555 -0.0119273)
(0.0447223 0.304992 -0.00716481)
(0.0495004 0.229469 -0.0103718)
(0.0523177 0.163606 -0.00993765)
(0.0503075 0.112741 -0.00674844)
(0.0402104 0.0749472 -0.00423806)
(0.0276449 0.0483689 -0.000444705)
(0.00911993 0.0203384 0.00297331)
(0.000296568 -0.0209296 0.00157743)
(0.0197274 -0.0301002 -0.00294199)
(0.0472447 -0.0183622 -0.00189434)
(0.058348 0.000594663 -0.00492663)
(0.0535165 0.0257928 -0.0058853)
(0.0424315 0.057068 -0.00683342)
(0.0262717 0.0928164 -0.00660132)
(0.00872485 0.129275 -0.00386798)
(-0.0155574 0.174356 -0.00891305)
(-0.0593766 0.211158 -0.0113417)
(-0.11076 0.244321 -0.015603)
(-0.185429 0.268978 -0.0221683)
(-0.277891 0.297004 -0.025433)
(-0.367068 0.311391 -0.0273457)
(-0.452432 0.338813 -0.0291592)
(-0.532979 0.368325 -0.0386093)
(-0.61344 0.399591 -0.0492562)
(-0.681103 0.432949 -0.0566334)
(-0.729025 0.467456 -0.0644734)
(-0.759857 0.509055 -0.0723147)
(-0.720558 0.540973 -0.0639685)
(-0.532995 0.562598 -0.0476442)
(-0.427091 0.5972 -0.0483887)
(-0.411129 0.616762 -0.0313359)
(-0.373763 0.625232 -0.0260587)
(-0.34966 0.628122 -0.0194597)
(-0.303594 0.617755 -0.016149)
(-0.258924 0.598374 -0.0101765)
(-0.206373 0.572576 0.000602557)
(-0.159771 0.538448 0.00804426)
(-0.12419 0.500291 0.0135539)
(-0.0993603 0.456782 0.0139808)
(-0.0822643 0.412326 0.00911044)
(-0.0589962 0.35027 0.00204768)
(-0.0381384 0.279372 -0.00266591)
(-0.0183045 0.203871 -0.00836504)
(0.000428013 0.144417 -0.00955073)
(0.0107109 0.107439 -0.0067975)
(0.0173478 0.0728019 -0.00268054)
(0.0076751 0.0301585 0.00248115)
(0.00185153 -0.0233082 0.000827204)
(0.0255775 -0.0241773 -0.004342)
(0.0560273 -0.00479614 -0.0025149)
(0.0691742 0.0262367 -0.00440874)
(0.0658402 0.0672191 -0.00514499)
(0.055486 0.118068 -0.0144483)
(0.0330609 0.180235 -0.0114644)
(0.00377362 0.227844 -0.00403477)
(-0.0366351 0.268219 -0.00685428)
(-0.101687 0.299511 -0.0090762)
(-0.171762 0.328303 -0.0124051)
(-0.240326 0.351176 -0.0144908)
(-0.309633 0.383536 -0.0184792)
(-0.386444 0.418806 -0.019417)
(-0.461141 0.455518 -0.0173701)
(-0.528945 0.489656 -0.0197419)
(-0.591866 0.525168 -0.0193316)
(-0.640181 0.559903 -0.0154907)
(-0.669322 0.595855 -0.0127469)
(-0.689279 0.636009 -0.0198415)
(-0.649739 0.663502 -0.00940521)
(-0.458299 0.675098 0.0142039)
(-0.350495 0.68365 0.0180845)
(-0.341426 0.673658 0.0363348)
(-0.317091 0.65207 0.0386343)
(-0.311251 0.628875 0.0455621)
(-0.287565 0.595099 0.0466316)
(-0.261204 0.558272 0.0492043)
(-0.229995 0.517696 0.0436256)
(-0.205063 0.476771 0.036544)
(-0.18222 0.432958 0.0272753)
(-0.166148 0.393409 0.0195092)
(-0.155001 0.359661 0.0130573)
(-0.148056 0.324804 0.00250165)
(-0.142259 0.275329 -0.00952197)
(-0.109759 0.202632 -0.0110769)
(-0.0541116 0.15493 -0.011278)
(-0.0166913 0.124565 -0.0100734)
(0.00272754 0.0898412 -0.00433061)
(0.00499415 0.0370584 0.00263434)
(0.00512147 -0.0245547 0.000883147)
(0.032838 -0.0163567 -0.00424359)
(0.06755 0.011773 -0.00478311)
(0.0847247 0.0562461 -0.00698408)
(0.0848173 0.104522 -0.00812121)
(0.0782529 0.170788 -0.0167744)
(0.0408352 0.223494 -0.00815572)
(-0.0160481 0.270209 0.00103538)
(-0.0699274 0.307911 -0.00340102)
(-0.131276 0.347631 -0.00575664)
(-0.187965 0.388746 -0.00805959)
(-0.247247 0.430623 -0.00823425)
(-0.306899 0.468013 -0.00662013)
(-0.364584 0.50178 -0.00208301)
(-0.420242 0.536485 0.00385888)
(-0.468642 0.570218 0.00778236)
(-0.515485 0.604818 0.00599217)
(-0.551937 0.642861 0.0109586)
(-0.570804 0.682052 0.0120244)
(-0.584059 0.714984 0.00936737)
(-0.543596 0.738333 0.0216734)
(-0.364059 0.704951 0.0455972)
(-0.272565 0.666315 0.0495609)
(-0.283486 0.629754 0.0680624)
(-0.276948 0.581482 0.0731346)
(-0.288101 0.542054 0.075404)
(-0.282726 0.497509 0.0722411)
(-0.276552 0.455347 0.0684336)
(-0.261373 0.40881 0.0651145)
(-0.250192 0.369419 0.0483155)
(-0.242018 0.32901 0.0372998)
(-0.229052 0.295625 0.024209)
(-0.218736 0.269152 0.0112628)
(-0.210479 0.246125 0.00473825)
(-0.21561 0.224574 -0.00978426)
(-0.174678 0.188215 -0.0120567)
(-0.0910267 0.155847 -0.0133215)
(-0.0379961 0.130212 -0.0111933)
(-0.00384929 0.0974485 -0.00599778)
(0.00417154 0.0392629 0.0026866)
(0.00722285 -0.0213684 -0.000378006)
(0.0409693 -0.00246546 -0.00724941)
(0.0846876 0.0340502 -0.00957672)
(0.102944 0.0848639 -0.00762537)
(0.10704 0.13818 -0.00913067)
(0.0871874 0.205718 -0.0103472)
(0.0338387 0.237852 0.00224342)
(-0.0166118 0.289242 0.00288442)
(-0.0626268 0.341282 -0.000146904)
(-0.114566 0.394556 -0.00198207)
(-0.164561 0.444267 -0.00243788)
(-0.212027 0.488422 -0.000494772)
(-0.259299 0.526528 0.00146804)
(-0.30584 0.563323 0.00941735)
(-0.346683 0.596161 0.0123949)
(-0.381944 0.626479 0.0194954)
(-0.410291 0.651618 0.0256612)
(-0.42754 0.680092 0.0279056)
(-0.442995 0.709266 0.0252717)
(-0.457842 0.72575 0.0206039)
(-0.464917 0.737055 0.0251804)
(-0.339236 0.676676 0.0481538)
(-0.239929 0.583 0.0484719)
(-0.251331 0.535101 0.0622989)
(-0.25868 0.482928 0.0655027)
(-0.281253 0.445591 0.0663391)
(-0.293417 0.407044 0.0626925)
(-0.302724 0.370908 0.058126)
(-0.300639 0.333261 0.0480472)
(-0.299644 0.299017 0.0364941)
(-0.296913 0.266406 0.0228307)
(-0.286296 0.239908 0.0127666)
(-0.276387 0.219808 0.00180343)
(-0.265859 0.208488 -0.00329454)
(-0.263253 0.203002 -0.012407)
(-0.22111 0.192948 -0.0191878)
(-0.12825 0.163125 -0.0197699)
(-0.0554883 0.141819 -0.0160931)
(-0.0100513 0.106588 -0.00853288)
(0.00463421 0.043286 0.0014752)
(0.00839244 -0.0138521 0.000230877)
(0.0467885 0.0202137 -0.0133036)
(0.0981026 0.0666719 -0.0144002)
(0.121671 0.118832 -0.00979782)
(0.128041 0.178632 -0.0126337)
(0.0930805 0.229068 -0.0062533)
(0.0369236 0.271346 0.0019164)
(0.00467439 0.327006 0.00547338)
(-0.0343145 0.376582 0.00276001)
(-0.0785654 0.430794 0.00382956)
(-0.119179 0.474893 0.00570294)
(-0.160261 0.511683 0.0108197)
(-0.194469 0.543627 0.0176436)
(-0.224529 0.572307 0.0218375)
(-0.255074 0.595531 0.0265678)
(-0.282058 0.613046 0.0306194)
(-0.306202 0.625583 0.0336523)
(-0.320372 0.634915 0.034269)
(-0.341822 0.638964 0.0268075)
(-0.366594 0.630665 0.020825)
(-0.400155 0.620444 0.0166375)
(-0.340578 0.59241 0.0316045)
(-0.252268 0.483679 0.0324141)
(-0.244566 0.433736 0.0391712)
(-0.259886 0.391657 0.0439179)
(-0.288988 0.362357 0.0461386)
(-0.311785 0.334301 0.0462763)
(-0.331122 0.304228 0.0433511)
(-0.337827 0.273694 0.0364719)
(-0.343784 0.241946 0.0174786)
(-0.346396 0.210466 0.0124859)
(-0.336369 0.185337 0.00252771)
(-0.322544 0.170234 -0.00337986)
(-0.304276 0.16628 -0.00802185)
(-0.301306 0.177006 -0.015465)
(-0.264592 0.192504 -0.0204593)
(-0.161912 0.170301 -0.0219217)
(-0.0727879 0.150189 -0.017903)
(-0.0146106 0.115136 -0.00972081)
(0.00557494 0.0461733 0.00160318)
(0.0089599 -0.00131506 -0.00366269)
(0.0558608 0.050476 -0.0202315)
(0.116324 0.104809 -0.0194354)
(0.145525 0.159027 -0.0134396)
(0.144026 0.211887 -0.0140654)
(0.106439 0.25212 -0.00646512)
(0.06385 0.306952 0.000347577)
(0.0327735 0.362103 0.00641355)
(0.00533124 0.403204 0.0126477)
(-0.0275467 0.444154 0.0123694)
(-0.067374 0.480045 0.0163769)
(-0.096431 0.507801 0.0221235)
(-0.121134 0.529168 0.0281766)
(-0.146574 0.54013 0.0314064)
(-0.171226 0.54383 0.032902)
(-0.194933 0.540844 0.0334702)
(-0.217208 0.532842 0.0329384)
(-0.238064 0.529801 0.0295399)
(-0.27463 0.516238 0.0210461)
(-0.311631 0.507614 0.0145346)
(-0.350169 0.493148 0.00780089)
(-0.34484 0.49369 0.0124622)
(-0.289149 0.42116 0.0179394)
(-0.258677 0.364823 0.0173936)
(-0.270762 0.329318 0.0218329)
(-0.301419 0.306787 0.0269145)
(-0.332362 0.285296 0.0300909)
(-0.359484 0.257726 0.0324704)
(-0.373918 0.230621 0.0219949)
(-0.387593 0.195236 0.0107815)
(-0.391446 0.169467 0.00094262)
(-0.379256 0.147128 -0.00405297)
(-0.3624 0.132472 -0.0108497)
(-0.336129 0.135504 -0.0160302)
(-0.313245 0.142788 -0.0185656)
(-0.287122 0.180764 -0.0249808)
(-0.197275 0.172837 -0.0254281)
(-0.0901242 0.159191 -0.023502)
(-0.0197035 0.124791 -0.0124296)
(0.00578086 0.051671 8.4446e-05)
(0.0079406 0.0169405 -0.00875058)
(0.060236 0.0912736 -0.0285981)
(0.132161 0.150634 -0.0281787)
(0.162503 0.19951 -0.0163837)
(0.15857 0.241262 -0.0159522)
(0.131283 0.281978 -0.0081891)
(0.101127 0.335943 -0.00282211)
(0.0723933 0.382191 0.01318)
(0.0407775 0.420198 0.0187402)
(0.0170755 0.446543 0.0267452)
(-0.00795256 0.467155 0.026592)
(-0.0354623 0.480643 0.0336205)
(-0.0589285 0.485347 0.0385849)
(-0.0815348 0.478314 0.0397874)
(-0.106859 0.463236 0.0370475)
(-0.133712 0.441631 0.0326052)
(-0.155749 0.416054 0.0278688)
(-0.182767 0.402033 0.0187102)
(-0.223104 0.38036 0.0126986)
(-0.266105 0.384352 0.00686362)
(-0.309897 0.393544 0.00345076)
(-0.33029 0.411136 0.00390789)
(-0.318172 0.390238 0.00747168)
(-0.29003 0.336504 0.00690979)
(-0.284856 0.28909 0.00789464)
(-0.310149 0.269631 0.015179)
(-0.345099 0.245461 0.0214824)
(-0.37704 0.223674 0.0251286)
(-0.399132 0.191379 0.0203325)
(-0.412998 0.161143 0.00834711)
(-0.416369 0.131865 0.0119747)
(-0.412751 0.11037 0.0174513)
(-0.393013 0.0913965 0.0163054)
(-0.369922 0.0915473 0.00885787)
(-0.339601 0.106193 -0.0109406)
(-0.306451 0.144115 -0.0228187)
(-0.222129 0.17093 -0.0237181)
(-0.106391 0.158782 -0.0217318)
(-0.0246103 0.132853 -0.0124118)
(0.00682215 0.0549506 0.000707487)
(0.00885195 0.0343707 -0.0112182)
(0.0680841 0.132413 -0.0344704)
(0.144808 0.195183 -0.0323515)
(0.176844 0.234974 -0.0184127)
(0.177678 0.272941 -0.014501)
(0.162802 0.31132 -0.0106012)
(0.139991 0.355884 -0.00115419)
(0.111835 0.390822 0.00728274)
(0.0871827 0.420226 0.0149037)
(0.0608861 0.440311 0.0303683)
(0.033776 0.447571 0.0378472)
(0.0156899 0.446702 0.0459211)
(-0.00541693 0.433401 0.0474477)
(-0.032781 0.410303 0.045634)
(-0.0619002 0.385757 0.0378771)
(-0.0945187 0.353558 0.0283125)
(-0.117583 0.323417 0.01996)
(-0.149796 0.302715 0.00600329)
(-0.18687 0.28084 0.00406476)
(-0.212931 0.294849 0.00380115)
(-0.255801 0.331293 0.00327272)
(-0.295994 0.362184 0.0039136)
(-0.322097 0.365163 0.00358442)
(-0.323192 0.33158 0.00302318)
(-0.303861 0.275067 0.00137719)
(-0.31218 0.238904 0.00665257)
(-0.346386 0.216274 0.0128178)
(-0.383015 0.189099 0.0170467)
(-0.410438 0.161568 0.0114365)
(-0.429968 0.12736 0.0281618)
(-0.441318 0.0924066 0.0302116)
(-0.442005 0.0621671 0.0198016)
(-0.429793 0.049973 0.01362)
(-0.395983 0.0451687 0.00935299)
(-0.352927 0.0620316 0.00142353)
(-0.31243 0.0955082 -0.0174527)
(-0.240583 0.147968 -0.0274838)
(-0.126093 0.156533 -0.0226064)
(-0.027494 0.136479 -0.0148301)
(0.00474341 0.0592878 -0.000123579)
(0.00850566 0.0565073 -0.0126778)
(0.0702373 0.175651 -0.0387796)
(0.1509 0.238975 -0.0364287)
(0.189738 0.273369 -0.0204233)
(0.200963 0.305585 -0.0119433)
(0.1935 0.337327 -0.00578854)
(0.175629 0.368941 -0.00502587)
(0.150471 0.392516 0.00956957)
(0.125561 0.410837 0.0137735)
(0.103063 0.42018 0.0259965)
(0.0807811 0.422505 0.0351122)
(0.0543774 0.412219 0.0516512)
(0.0270011 0.387692 0.0532111)
(0.00521128 0.354011 0.0516141)
(-0.0270476 0.321801 0.0354369)
(-0.0663432 0.288694 0.022547)
(-0.0918012 0.264609 0.0108323)
(-0.128223 0.236275 -0.00462828)
(-0.151871 0.232214 -0.00127076)
(-0.152441 0.250347 0.00199644)
(-0.189855 0.277691 0.0036749)
(-0.2497 0.31321 0.00521889)
(-0.302943 0.329102 0.0053492)
(-0.331109 0.31388 0.00262866)
(-0.324971 0.268198 0.000922103)
(-0.312277 0.20601 0.00181199)
(-0.335388 0.178843 0.00748567)
(-0.371636 0.151722 0.0084077)
(-0.404048 0.123777 0.0283138)
(-0.435225 0.0883681 0.0389535)
(-0.453018 0.0535361 0.0415706)
(-0.452739 0.0267794 0.0531109)
(-0.442942 0.00218761 0.0428987)
(-0.428414 -0.00342188 0.0327638)
(-0.390934 0.00806478 0.0243107)
(-0.333113 0.0495437 0.0024771)
(-0.247708 0.101071 -0.0238959)
(-0.137183 0.145212 -0.0239435)
(-0.0334529 0.133561 -0.0141708)
(0.0065061 0.0625042 -0.000657809)
(0.00713717 0.0697151 -0.0136636)
(0.0699429 0.210076 -0.0430512)
(0.154607 0.278228 -0.0416545)
(0.201759 0.308988 -0.0230899)
(0.222237 0.332366 -0.00905855)
(0.221293 0.352337 -0.00050013)
(0.205511 0.375222 0.00365032)
(0.18199 0.387809 0.00598755)
(0.163186 0.398994 0.0130535)
(0.14236 0.401271 0.025403)
(0.116959 0.393689 0.0328336)
(0.0907889 0.376466 0.0401867)
(0.0591165 0.349342 0.049625)
(0.0283507 0.315706 0.0485005)
(-0.00366875 0.273949 0.0322001)
(-0.0394695 0.248156 0.0155462)
(-0.0744789 0.22787 0.000897463)
(-0.102443 0.2042 -0.00828962)
(-0.10679 0.218914 -0.00386839)
(-0.109224 0.225592 0.000131073)
(-0.136665 0.227801 0.00842352)
(-0.186573 0.243623 0.0112105)
(-0.258314 0.272275 0.00890288)
(-0.313596 0.275416 0.00575303)
(-0.334493 0.248844 0.00335667)
(-0.317771 0.191086 0.00315322)
(-0.311449 0.137193 0.00537688)
(-0.346898 0.114058 0.0139934)
(-0.384805 0.0786726 0.0277348)
(-0.420629 0.0474738 0.0373325)
(-0.441096 0.0150446 0.0601026)
(-0.462977 -0.0244903 0.0451505)
(-0.470913 -0.0671015 0.0351432)
(-0.449778 -0.0890267 0.018241)
(-0.408007 -0.0769197 0.00357705)
(-0.357071 -0.0272278 0.0127534)
(-0.269719 0.0527372 -0.00305248)
(-0.14726 0.113133 -0.0310559)
(-0.0386056 0.127141 -0.0142103)
(0.00708478 0.0622497 -0.00237229)
(0.00598688 0.0846108 -0.013184)
(0.0694052 0.2434 -0.0459747)
(0.157129 0.315774 -0.0469144)
(0.210332 0.342854 -0.0270406)
(0.238159 0.35677 -0.00787901)
(0.245276 0.364924 0.00497966)
(0.233792 0.374752 0.00985835)
(0.213036 0.38302 0.0139852)
(0.196269 0.387925 0.0156631)
(0.17478 0.382586 0.019372)
(0.151916 0.368728 0.0199251)
(0.121028 0.34639 0.0318455)
(0.0857403 0.315844 0.0305706)
(0.0490284 0.285214 0.0342323)
(0.0167148 0.249884 0.0246462)
(-0.0140427 0.22056 0.00650385)
(-0.0518746 0.204587 -0.00740172)
(-0.0652602 0.202293 -0.0082981)
(-0.0653588 0.210965 -0.00580232)
(-0.0785685 0.203799 0.00106971)
(-0.10323 0.194297 0.0126655)
(-0.131 0.189628 0.0213465)
(-0.189427 0.199985 0.0180217)
(-0.264456 0.225348 0.00877956)
(-0.310952 0.213752 0.00509554)
(-0.317644 0.186648 0.00481528)
(-0.298846 0.11662 0.00669419)
(-0.311395 0.0791 0.0161825)
(-0.351582 0.0441475 0.0282731)
(-0.384421 0.00939037 0.0490816)
(-0.427329 -0.0348729 0.039012)
(-0.466961 -0.0916738 0.0340234)
(-0.482725 -0.137178 0.0231028)
(-0.471859 -0.170328 0.012141)
(-0.429892 -0.173975 -0.00204938)
(-0.361011 -0.131797 -0.00740355)
(-0.276465 -0.0310735 0.0012817)
(-0.165318 0.0704467 -0.0166246)
(-0.042786 0.116148 -0.0183931)
(0.00648108 0.0644324 -0.00211863)
(0.00284365 0.0794201 -0.0137979)
(0.0641485 0.256775 -0.0468542)
(0.154896 0.3346 -0.0485029)
(0.215385 0.359822 -0.028123)
(0.25008 0.365962 -0.00759228)
(0.260684 0.36533 0.00645874)
(0.257008 0.367144 0.0127653)
(0.242031 0.370748 0.015845)
(0.225446 0.371626 0.0176427)
(0.203805 0.364052 0.0183933)
(0.17835 0.349406 0.0170984)
(0.147578 0.321971 0.0149125)
(0.112447 0.290132 0.0107585)
(0.0739948 0.256348 0.0141361)
(0.0338943 0.232356 0.0102164)
(0.00515007 0.219799 -0.00156177)
(-0.0139634 0.214425 -0.00819455)
(-0.0241926 0.226776 -0.00590225)
(-0.0343012 0.21724 -0.00131146)
(-0.0509554 0.203599 0.00645347)
(-0.0700854 0.18459 0.0152739)
(-0.0939446 0.16991 0.0200753)
(-0.128241 0.15319 0.0256237)
(-0.198332 0.168062 0.0133652)
(-0.26319 0.170352 0.00880475)
(-0.296081 0.156307 0.0114964)
(-0.291357 0.112593 0.0125625)
(-0.282964 0.0475486 0.0204874)
(-0.311426 0.0112653 0.0341513)
(-0.355506 -0.0323292 0.0309031)
(-0.405437 -0.089759 0.0308644)
(-0.448479 -0.144032 0.0244228)
(-0.474886 -0.200277 0.0154057)
(-0.47601 -0.243228 0.00251031)
(-0.441827 -0.262508 -0.0116829)
(-0.374934 -0.229943 -0.0180779)
(-0.278551 -0.143233 -0.0205536)
(-0.164148 0.0024521 -6.76331e-05)
(-0.0488953 0.0859251 -0.0272632)
(0.00547619 0.0610002 -0.00476941)
(0.00393268 0.0962913 -0.00666926)
(0.0637391 0.281633 -0.0432657)
(0.153249 0.362679 -0.0461156)
(0.218185 0.384017 -0.0264514)
(0.259308 0.381773 -0.00337164)
(0.279924 0.374638 0.00780546)
(0.28303 0.370151 0.0130073)
(0.27148 0.366173 0.0143292)
(0.256621 0.360173 0.0125685)
(0.234954 0.345025 0.0104155)
(0.206529 0.323818 0.00665333)
(0.168417 0.299342 0.00529059)
(0.129821 0.279972 0.00247546)
(0.0965789 0.26741 0.00364627)
(0.0763671 0.264683 -0.000688171)
(0.0539209 0.264787 -0.00711624)
(0.0331506 0.262047 -0.00532878)
(0.0127844 0.257299 -0.00442432)
(-0.0111947 0.240577 0.00329031)
(-0.0290246 0.215848 0.00857123)
(-0.0492822 0.190671 0.0142541)
(-0.0697373 0.165451 0.016801)
(-0.0930409 0.140903 0.0221393)
(-0.143712 0.126497 0.0189263)
(-0.212094 0.132766 0.00869208)
(-0.255992 0.11862 0.00400515)
(-0.278344 0.101656 0.00120216)
(-0.27198 0.0467314 0.00775845)
(-0.27817 -0.0105322 0.0111216)
(-0.322459 -0.0679824 0.0186311)
(-0.370713 -0.124203 0.0192701)
(-0.417909 -0.187512 0.0166457)
(-0.45252 -0.250752 0.0101404)
(-0.465321 -0.305877 -0.00109693)
(-0.440725 -0.339454 -0.0157224)
(-0.380944 -0.326469 -0.0311229)
(-0.281445 -0.243988 -0.0363201)
(-0.168931 -0.0889768 -0.0229516)
(-0.0514089 0.0477309 -0.0181755)
(0.0086618 0.0582294 -0.0100434)
(-0.00645596 0.0852371 -0.0195883)
(0.0460416 0.281274 -0.050331)
(0.140477 0.371128 -0.0537186)
(0.212773 0.393947 -0.0341959)
(0.264927 0.390255 -0.00909678)
(0.293656 0.376654 0.000374717)
(0.302626 0.362452 0.00716559)
(0.293355 0.349348 0.00685293)
(0.274793 0.345653 0.00502462)
(0.250244 0.348212 0.00359222)
(0.22791 0.352853 0.00339338)
(0.207409 0.353121 0.00303723)
(0.185755 0.347739 0.00121652)
(0.158628 0.337472 0.00331463)
(0.122974 0.326493 -0.00361152)
(0.0864798 0.306468 -0.0111445)
(0.0574623 0.284616 -0.00922885)
(0.0330569 0.259877 -0.0057406)
(0.00576452 0.237881 -0.000584329)
(-0.0156001 0.207782 0.00733263)
(-0.0315483 0.179933 0.0114931)
(-0.0517983 0.153105 0.013811)
(-0.0722868 0.127299 0.0175438)
(-0.10782 0.103346 0.0201813)
(-0.167402 0.0968435 0.00995864)
(-0.215823 0.0846513 0.0038248)
(-0.241361 0.0698388 -0.000412355)
(-0.260363 0.0458086 0.000648705)
(-0.276022 -0.010998 -0.00123904)
(-0.301318 -0.0725491 0.00193461)
(-0.34293 -0.133776 0.00690864)
(-0.386188 -0.201578 0.00916885)
(-0.417153 -0.279418 0.00484346)
(-0.434963 -0.357038 -0.00535718)
(-0.422859 -0.411484 -0.0200974)
(-0.37124 -0.418586 -0.0374428)
(-0.278445 -0.353857 -0.0576697)
(-0.167498 -0.203571 -0.0437003)
(-0.0479661 -0.00567488 -0.0106157)
(0.00934641 0.0482999 -0.0111029)
(-0.00508276 0.162369 -0.012714)
(0.0451868 0.365317 -0.036737)
(0.135239 0.459606 -0.0437038)
(0.211042 0.480755 -0.0262215)
(0.268659 0.471365 -0.00885796)
(0.303239 0.448699 0.00178435)
(0.317053 0.425958 0.00753919)
(0.321194 0.425674 0.0103047)
(0.329486 0.444995 0.00743967)
(0.325753 0.456498 0.00234894)
(0.304147 0.459523 -0.00311736)
(0.262113 0.444336 -0.00667769)
(0.214099 0.416664 -0.00658061)
(0.171048 0.375595 -0.00423322)
(0.134799 0.336534 -0.000318629)
(0.0958238 0.302074 -0.00704566)
(0.0670468 0.275832 -0.00751322)
(0.0468969 0.240742 -0.00524165)
(0.0194421 0.214254 -0.00153743)
(-0.00227778 0.18779 0.0058219)
(-0.0179351 0.156614 0.0106245)
(-0.0353331 0.130545 0.0126082)
(-0.0546871 0.105887 0.0146866)
(-0.0838397 0.0820511 0.0174554)
(-0.136884 0.067815 0.006608)
(-0.182655 0.0536383 -0.000135497)
(-0.206837 0.0418225 0.00247359)
(-0.229176 0.0240294 0.00357119)
(-0.256065 -0.00680334 0.000470964)
(-0.284199 -0.0560025 -0.00345114)
(-0.315938 -0.127543 -0.0100998)
(-0.363711 -0.209193 -0.0108597)
(-0.405007 -0.28284 -0.00739522)
(-0.420674 -0.356298 -0.00997916)
(-0.401289 -0.425351 -0.0216587)
(-0.356409 -0.463425 -0.0469435)
(-0.276681 -0.43614 -0.0686721)
(-0.160712 -0.289091 -0.0638455)
(-0.0376654 -0.0865273 -0.031512)
(0.010107 0.0367229 -0.0090964)
(-0.0190936 0.28219 -0.0281831)
(0.0199665 0.510151 -0.0454987)
(0.112003 0.613886 -0.0521402)
(0.191165 0.646007 -0.0349564)
(0.258346 0.637735 -0.02057)
(0.302299 0.61354 -0.00782742)
(0.345365 0.580757 0.00160742)
(0.38307 0.570427 6.3521e-05)
(0.380457 0.564989 -0.0040202)
(0.345949 0.540905 -0.00755591)
(0.304673 0.503514 -0.00835403)
(0.259775 0.456205 -0.00839966)
(0.214079 0.409924 -0.00706706)
(0.172383 0.362772 -0.00302989)
(0.137633 0.321469 -0.000960348)
(0.109451 0.280932 0.00356822)
(0.0775858 0.253967 -0.0032374)
(0.0525012 0.222787 -0.00405313)
(0.0345237 0.191159 -0.00100941)
(0.00853152 0.165606 0.00228382)
(-0.00753275 0.137145 0.0102117)
(-0.0216844 0.110199 0.0113646)
(-0.0399509 0.085637 0.0130672)
(-0.0638969 0.0631805 0.0158198)
(-0.11102 0.0436179 0.00521037)
(-0.151634 0.0325162 0.00488794)
(-0.172324 0.0214651 0.0051833)
(-0.197816 0.0057645 0.00615097)
(-0.227305 -0.0123507 0.00635924)
(-0.271548 -0.0406882 0.00334142)
(-0.317963 -0.0942332 0.00348315)
(-0.335633 -0.171192 -0.00270121)
(-0.34341 -0.277193 -0.0216692)
(-0.367709 -0.404106 -0.0398551)
(-0.378013 -0.504369 -0.0583662)
(-0.356646 -0.576261 -0.0812065)
(-0.274595 -0.565664 -0.0949076)
(-0.183482 -0.431667 -0.0980501)
(-0.0587604 -0.164369 -0.0537847)
(0.0200777 0.028532 -0.0144877)
(-0.00475209 0.277129 -0.00445245)
(0.0350371 0.523678 -0.0383593)
(0.116199 0.642014 -0.0484882)
(0.196247 0.691115 -0.0402319)
(0.262411 0.690788 -0.0294564)
(0.305734 0.668402 -0.0188596)
(0.344367 0.634352 -0.00923952)
(0.378205 0.59526 -0.00490434)
(0.377021 0.556927 -0.00479519)
(0.346169 0.518917 -0.00368607)
(0.30629 0.480099 -0.00308984)
(0.259718 0.437207 -0.00270634)
(0.213699 0.390774 -0.00131992)
(0.174194 0.34496 -0.000670207)
(0.14084 0.301016 0.0013479)
(0.112166 0.261856 0.00295744)
(0.0905588 0.226439 0.00700374)
(0.0647073 0.19975 0.00117105)
(0.0417887 0.17158 -0.000870107)
(0.0219462 0.143434 0.00257147)
(0.00330317 0.120199 0.0073987)
(-0.0115493 0.0920386 0.0104175)
(-0.0269414 0.0688794 0.0114413)
(-0.0504385 0.0456074 0.0142595)
(-0.0897609 0.0238343 0.00470341)
(-0.122455 0.014631 0.00788089)
(-0.143938 0.000876047 0.00917335)
(-0.162175 -0.0110984 0.0122439)
(-0.185305 -0.0240436 0.0103712)
(-0.226338 -0.0429302 0.00791169)
(-0.280103 -0.0660479 0.00569081)
(-0.345972 -0.113932 0.00300105)
(-0.404451 -0.202447 0.00333823)
(-0.402995 -0.33388 -0.00350628)
(-0.36536 -0.472902 -0.0205496)
(-0.32315 -0.596176 -0.0397336)
(-0.24679 -0.653605 -0.0719727)
(-0.131723 -0.579354 -0.0795269)
(-0.0196876 -0.303461 -0.0766501)
(0.0173443 -0.0104085 -0.00729108)
(0.00115558 0.279816 -0.000379642)
(0.0388062 0.505417 -0.0326706)
(0.111269 0.625932 -0.0411206)
(0.18923 0.676217 -0.0357702)
(0.25511 0.676169 -0.0208096)
(0.30317 0.651614 -0.0132634)
(0.345363 0.617223 -0.00271164)
(0.380459 0.577063 -7.51425e-05)
(0.380338 0.536424 -1.62475e-05)
(0.348155 0.498834 0.000897063)
(0.306118 0.458452 0.00148425)
(0.257941 0.415445 0.00210799)
(0.21173 0.368453 0.00287339)
(0.172323 0.323109 0.00424123)
(0.142066 0.278803 0.00442057)
(0.119504 0.239146 0.00598132)
(0.0973275 0.202788 0.00645402)
(0.0774577 0.17104 0.00743983)
(0.0559729 0.146072 0.00737563)
(0.0325099 0.12171 0.00186982)
(0.0141603 0.100396 0.00678343)
(-0.00164082 0.0765614 0.00887583)
(-0.0158424 0.0522096 0.0104208)
(-0.0379555 0.0286301 0.0103725)
(-0.0689584 0.01117 0.00789615)
(-0.0978077 0.000581434 0.00976438)
(-0.114795 -0.0101184 0.0121155)
(-0.129751 -0.0209832 0.0131657)
(-0.151727 -0.0368759 0.0141913)
(-0.184707 -0.0553751 0.0133631)
(-0.23085 -0.077649 0.0122696)
(-0.28113 -0.108889 0.0105405)
(-0.337371 -0.147334 0.00493327)
(-0.383004 -0.211785 -0.00155143)
(-0.392169 -0.317467 -0.00919022)
(-0.375347 -0.449086 -0.0179318)
(-0.30237 -0.549284 -0.0310094)
(-0.184178 -0.542208 -0.0559174)
(-0.0261331 -0.32363 -0.0550675)
(0.0429952 0.0303582 -0.0263189)
(0.0050332 0.266707 0.005046)
(0.0435036 0.477527 -0.0244466)
(0.110688 0.60099 -0.0330676)
(0.184782 0.656902 -0.0307488)
(0.249282 0.663946 -0.014533)
(0.29865 0.640527 -0.00922671)
(0.340358 0.60458 -0.000144527)
(0.371863 0.560851 0.0029511)
(0.374305 0.51162 0.00291253)
(0.345703 0.470747 0.00390592)
(0.303578 0.428733 0.00471565)
(0.254308 0.385262 0.00578631)
(0.208796 0.340315 0.00753696)
(0.172686 0.297618 0.00875853)
(0.143883 0.25691 0.0101205)
(0.121105 0.218893 0.0119033)
(0.104853 0.181952 0.0134654)
(0.0875348 0.152279 0.0134974)
(0.0690405 0.124115 0.0131065)
(0.0499096 0.103938 0.0132901)
(0.0291967 0.0818028 0.00699429)
(0.00942277 0.0621046 0.00853537)
(-0.00666368 0.0382741 0.0118747)
(-0.0229799 0.0178021 0.00972712)
(-0.0477056 -0.00039098 0.00872599)
(-0.0704241 -0.00965573 0.010477)
(-0.0867137 -0.0198339 0.0108303)
(-0.101792 -0.0331894 0.0123782)
(-0.119726 -0.0501463 0.0137878)
(-0.147873 -0.0709181 0.0149785)
(-0.18638 -0.0942745 0.0162851)
(-0.230275 -0.126242 0.0163648)
(-0.279475 -0.168942 0.0175928)
(-0.309515 -0.227747 0.0171065)
(-0.329347 -0.306653 0.0114781)
(-0.344159 -0.42355 0.00291456)
(-0.319983 -0.515647 -0.0138711)
(-0.227726 -0.539336 -0.037474)
(-0.0659743 -0.33268 -0.0501843)
(0.0230409 0.0446988 -0.0141563)
(0.00906682 0.244565 0.00119051)
(0.0477789 0.431794 -0.0202754)
(0.108799 0.561101 -0.0280764)
(0.181368 0.619864 -0.0267899)
(0.244576 0.634008 -0.0145857)
(0.293529 0.613208 -0.00678602)
(0.336819 0.576852 0.00112464)
(0.364305 0.533308 0.00467764)
(0.367062 0.482054 0.00531634)
(0.342415 0.437767 0.00615247)
(0.299563 0.393884 0.00759865)
(0.251472 0.351563 0.009835)
(0.209006 0.31076 0.012246)
(0.17543 0.271924 0.0143839)
(0.14985 0.234919 0.0137807)
(0.129717 0.200045 0.0131728)
(0.113713 0.166266 0.0130516)
(0.0997348 0.13376 0.0127192)
(0.0843801 0.0973049 0.0119964)
(0.0635714 0.0789688 0.00980456)
(0.0428336 0.0642521 0.0116604)
(0.0233461 0.0474825 0.00853368)
(0.00735628 0.029457 0.0107454)
(-0.00904383 0.0105129 0.00914595)
(-0.0276817 -0.00718082 0.00984546)
(-0.0459065 -0.0165643 0.0097598)
(-0.0625726 -0.028782 0.0108155)