/*--------------------------------*- C++ -*----------------------------------*\
| =========                 |                                                 |
| \\      /  F ield         | OpenFOAM: The Open Source CFD Toolbox           |
|  \\    /   O peration     | Version:  v1806                                 |
|   \\  /    A nd           | Web:      www.OpenFOAM.com                      |
|    \\/     M anipulation  |                                                 |
\*---------------------------------------------------------------------------*/
FoamFile
{
    version     2.0;
    format      ascii;
    class       volScalarField;
    location    "0.143";
    object      p;
}
// * * * * * * * * * * * * * * * * * * * * * * * * * * * * * * * * * * * * * //

dimensions      [0 2 -2 0 0 0 0];


internalField   nonuniform List<scalar> 
64000
(
0.000818013
0.175203
0.369902
0.631466
1.05895
1.69971
2.51063
3.39804
4.53142
5.94025
7.57981
9.43836
11.5343
13.9724
16.6591
19.4502
22.4804
25.5104
28.9783
31.5045
35.7584
39.5699
41.8375
44.038
46.1952
48.1622
50.0994
51.7402
53.307
54.4213
55.3653
56.7559
57.8177
58.8101
59.6473
60.325
60.8432
61.2983
61.6111
61.7872
-0.379568
-0.252439
0.0385782
0.305337
0.702792
1.24372
1.98835
2.94085
4.14073
5.61011
7.27577
9.09732
10.913
13.454
16.2231
19.1286
22.2721
25.3249
28.7796
31.5574
35.6487
39.442
41.8787
44.1158
46.3061
48.279
50.2133
51.8758
53.3748
54.6657
55.3853
56.8356
57.8133
58.8036
59.6279
60.3098
60.8172
61.2788
61.5997
61.7845
-1.14014
-0.991405
-0.751058
-0.481722
-0.138734
0.322119
1.01218
1.90899
3.10025
4.52574
6.21709
8.15933
10.3544
12.853
15.5745
18.46
21.5327
24.651
28.1508
31.0642
35.1493
38.9877
41.4673
43.6872
45.8656
47.8137
49.7285
51.4051
52.9499
54.2897
55.444
56.6309
57.4102
58.6274
59.5372
60.2368
60.7845
61.2533
61.5591
61.7433
-2.28347
-2.15504
-1.92847
-1.62588
-1.23152
-0.82843
-0.301483
0.498992
1.6919
3.14081
4.84112
6.77535
8.98526
11.4212
14.1772
17.169
20.3905
23.6502
27.2526
30.3183
34.3941
38.3909
40.8666
43.1274
45.302
47.2476
49.158
50.8358
52.415
53.8171
55.0879
56.2488
57.3126
58.3751
59.4508
60.3085
60.89
61.3149
61.5527
61.6946
-3.76645
-3.65166
-3.44638
-3.1444
-2.77345
-2.34875
-1.96147
-1.42506
-0.359446
0.977547
2.62769
4.56209
6.80038
9.40039
12.3327
15.5446
18.9331
22.3327
26.1526
29.4496
33.587
37.7358
40.2442
42.5381
44.7122
46.6601
48.564
50.1702
51.8197
53.2881
54.6942
55.9416
56.9881
58.0273
59.5529
60.5131
60.9646
61.3221
61.4306
61.5772
-5.44849
-5.40777
-5.24126
-4.95502
-4.67127
-4.32564
-3.98349
-3.78766
-2.72783
-1.39958
0.208906
2.08962
4.33559
6.94604
9.94269
13.4026
17.1233
20.8955
25.0032
28.5888
32.8364
37.1329
39.6233
41.9731
44.188
46.1788
48.0528
49.7035
51.3019
52.842
54.2709
55.618
56.9136
58.1232
59.8268
60.5649
60.8412
61.1476
61.272
61.3434
-7.01451
-6.97496
-6.93094
-6.82361
-6.70512
-6.34226
-6.34115
-6.03238
-4.63383
-3.73105
-2.27422
-0.480015
1.70885
4.20927
6.91657
10.6724
14.8728
19.0586
23.4622
27.4891
31.7287
36.4104
39.0018
41.423
43.6868
45.7119
47.5939
49.2699
50.8559
52.4036
53.8222
55.133
56.4614
57.6649
59.3438
60.2373
60.5293
60.8431
60.9548
61.0104
-8.33903
-8.30099
-8.2599
-8.19685
-8.16447
-8.0691
-8.36543
-7.69935
-7.1324
-6.26728
-4.98292
-3.32133
-1.23274
1.27467
4.15502
7.64949
12.1813
16.7576
21.4759
26.0373
30.3102
35.3892
38.305
40.8029
43.1315
45.2083
47.0921
48.8208
50.3959
51.9861
53.3906
54.7073
56.0061
57.215
58.6062
59.8489
60.1204
60.3959
60.5001
60.5423
-10.0432
-10.0161
-9.98534
-9.94635
-9.98907
-9.98159
-10.4688
-10.2753
-9.87748
-9.17815
-8.0506
-6.54832
-4.52162
-2.11125
0.767829
4.7312
9.54157
14.3665
19.3568
24.369
29.0072
33.9221
37.4194
39.995
42.423
44.5644
46.5008
48.2681
49.9113
51.5231
52.9449
54.2235
55.4898
56.6453
57.8536
59.2269
59.6057
59.7857
59.9362
59.948
-11.8376
-11.9268
-11.8947
-12.0282
-11.9717
-12.4483
-13.0626
-13.1114
-12.8292
-12.3138
-11.3838
-10.0396
-8.25015
-6.01796
-2.7404
1.74745
6.7062
11.7991
17.1647
22.5859
27.6526
32.4805
36.3377
39.0308
41.5682
43.8019
45.786
47.651
49.3765
50.9333
52.4034
53.662
54.8342
56.0023
57.0963
58.3824
58.9768
59.0888
59.1781
59.1932
-13.7735
-13.8273
-13.9317
-14.134
-14.3179
-15.3364
-15.8029
-16.0959
-15.9537
-15.6582
-14.9588
-13.9184
-12.4323
-10.0481
-6.14442
-1.57971
3.47551
8.86453
14.5965
20.4112
25.8614
30.9614
35.0067
37.889
40.5287
42.8927
44.9713
46.9635
48.7176
50.2985
51.6722
52.9863
54.1521
55.2575
56.2232
57.3628
58.0152
58.2011
58.2554
58.2788
-15.7568
-15.8039
-16.0306
-16.3354
-16.9333
-18.1959
-18.7858
-19.0912
-19.2988
-19.1486
-18.8128
-18.139
-16.7119
-13.6837
-9.86907
-5.37225
-0.171078
5.55218
11.6991
17.9534
23.7796
29.2293
33.4427
36.5406
39.3172
41.7942
43.9995
45.9928
47.8226
49.4395
50.9773
52.4159
53.5787
54.5817
55.5143
56.2381
57.0243
57.1357
57.1323
57.1571
-17.8086
-17.8981
-18.2125
-18.7108
-19.7769
-20.9944
-21.7267
-22.3068
-22.7136
-22.9003
-22.8238
-22.4912
-20.4172
-17.6634
-14.1284
-9.63448
-4.23211
1.85459
8.4155
15.1069
21.2243
27.0384
31.4941
34.8718
37.8682
40.5925
42.8978
45.0497
47.0751
48.8189
50.118
51.1153
52.1611
53.1382
54.1507
55.1697
55.6055
55.8107
55.8778
55.8823
-19.7604
-19.8906
-20.3202
-21.1179
-22.4203
-23.6499
-24.5758
-25.5433
-26.2616
-26.7566
-26.9851
-26.0671
-24.5139
-22.2432
-18.8771
-14.3455
-8.75433
-2.37276
4.56992
11.6174
17.8794
23.9307
29.1514
33.3529
36.7433
39.4939
41.8813
43.8827
45.4676
46.9494
48.3285
49.542
50.6449
51.6484
52.5983
53.292
54.2881
54.293
54.3135
54.3139
-21.8109
-21.985
-22.5927
-23.6085
-24.942
-26.2423
-27.5922
-28.8818
-29.9254
-30.6135
-30.6746
-30.1691
-29.1339
-27.1039
-23.8728
-19.3325
-13.7378
-7.33305
-0.252031
7.21061
13.9519
20.6713
26.5189
31.1722
34.458
37.1739
39.3864
41.4725
43.2387
44.8257
46.2505
47.5583
48.7513
49.8189
50.7453
51.5662
52.1817
52.6269
52.7007
52.7017
-23.499
-23.8001
-24.5191
-25.6103
-27.0207
-28.6451
-30.3556
-32.0104
-33.342
-34.2723
-34.5178
-34.5869
-33.8662
-31.9826
-28.8612
-24.5639
-19.2791
-12.6814
-5.20414
3.23033
10.8758
17.7095
22.7973
27.3312
31.465
34.2095
36.594
38.5463
40.3774
42.1112
43.6821
45.1618
46.52
47.7364
48.8
49.5804
50.3109
51.1122
50.7189
50.7996
-25.5108
-25.8354
-26.555
-27.6171
-29.085
-30.9368
-32.9711
-34.9428
-36.6269
-37.8039
-38.624
-38.9516
-38.4139
-36.7121
-33.7825
-29.5622
-24.6114
-17.9237
-9.3724
-0.309379
7.99237
14.4803
18.7677
22.4711
26.4306
30.1425
32.5261
35.0495
37.0226
38.7556
40.4886
42.189
43.7928
45.2119
46.3823
47.2735
48.0015
48.5118
48.6854
48.6282
-26.6067
-27.001
-27.7302
-28.8061
-30.4257
-32.688
-35.1705
-37.4721
-39.6138
-41.0984
-42.2036
-42.8435
-42.5913
-41.1825
-38.44
-34.3644
-29.8779
-22.2051
-13.4051
-3.82174
4.59564
11.4843
15.7552
18.9359
21.5015
23.9666
26.96
29.9721
33.127
35.073
36.9759
38.9664
40.8894
42.5238
43.8966
45.0535
45.765
46.0764
46.6334
46.2764
-28.3492
-28.6134
-29.2261
-30.1932
-31.9036
-34.6516
-37.2545
-39.64
-42.023
-43.733
-45.2038
-46.1754
-46.3329
-45.2903
-42.7335
-38.8004
-33.6664
-25.9845
-16.6681
-7.45926
1.13182
8.31675
12.8655
15.998
17.9337
19.234
21.3203
24.0078
26.996
29.9497
32.7956
35.218
37.9184
40.0037
41.6376
43.0107
43.7289
43.8306
43.6776
43.7234
-27.8636
-28.1011
-28.694
-29.7444
-32.0058
-35.5956
-38.3491
-40.9609
-43.7334
-46.0497
-47.8368
-49.2115
-49.7473
-48.9381
-46.5261
-42.6704
-36.6446
-28.335
-19.6913
-10.874
-2.3692
4.87334
9.57549
12.4219
14.1847
15.5844
17.4782
20.0655
22.7454
25.4378
28.4198
30.6343
32.787
34.9775
36.8751
38.2415
39.3436
40.5509
41.0614
40.946
-26.9523
-27.424
-27.9477
-29.0895
-32.4087
-36.6897
-39.5904
-42.4593
-45.4077
-47.9414
-49.9569
-51.5868
-52.3293
-51.714
-49.3804
-44.8871
-38.569
-30.5721
-22.5983
-14.3916
-6.12882
0.945099
5.42115
7.84304
9.50575
11.1922
13.091
15.8082
18.7897
22.1048
25.2529
27.6347
29.7273
32.3263
34.3423
35.5269
36.3899
36.9982
37.6912
37.9817
-28.633
-28.2511
-28.5678
-29.7722
-33.3773
-37.2613
-40.1535
-43.1172
-46.3322
-48.7883
-51.1726
-53.0082
-54.0665
-53.7811
-51.5527
-46.7344
-40.3221
-32.5416
-25.3584
-18.0937
-10.4073
-3.22434
1.22131
3.06333
4.74755
6.32109
8.19893
11.1916
14.8309
18.6403
22.3072
25.4831
27.4022
29.6333
31.1541
33.1692
34.4414
35.0646
35.4051
35.7408
-28.7292
-28.7694
-29.1614
-30.5192
-33.885
-37.3234
-40.2668
-43.2697
-46.5848
-48.8641
-51.5187
-53.6384
-55.1626
-55.5355
-54.0937
-49.716
-42.4747
-34.1612
-27.2812
-20.481
-13.6446
-6.58766
-3.59715
-2.05424
-0.78505
1.24971
3.62971
6.93286
10.8555
15.1461
19.203
22.6519
25.3387
27.7158
29.4768
30.7256
32.0167
32.5719
32.695
32.4429
-28.6501
-28.8756
-29.1934
-30.6458
-33.396
-36.4329
-39.3664
-42.3464
-45.5198
-48.2788
-50.8737
-53.4484
-55.7111
-57.1218
-56.6655
-53.7562
-47.4384
-38.7485
-29.9825
-22.5246
-16.5577
-10.348
-8.32047
-7.107
-5.80277
-3.63501
-0.836981
2.8776
7.35191
12.1893
16.6185
20.3374
23.1002
25.2125
27.1547
28.7568
29.9632
30.726
31.08
31.1707
-28.3733
-28.5397
-28.9983
-30.1015
-32.2026
-34.9068
-37.8169
-40.7977
-43.7678
-46.7444
-48.9839
-52.3828
-55.4136
-57.882
-58.654
-56.5148
-51.8173
-44.7157
-36.0367
-26.2448
-19.6653
-14.2399
-12.6285
-10.8791
-9.63114
-7.19481
-3.87724
0.0885849
4.93653
10.0856
14.8147
18.7041
21.4827
23.9375
25.3202
26.5756
27.4265
28.0186
28.2981
28.2986
-27.2911
-27.767
-27.9271
-28.8587
-30.3418
-32.5034
-35.0155
-37.5744
-40.4547
-43.1742
-45.0693
-48.481
-51.6425
-54.9546
-57.3499
-57.6278
-56.6699
-52.7233
-44.7073
-33.9414
-25.4324
-19.9345
-17.9928
-16.3549
-14.3962
-10.7563
-5.8582
-1.12595
4.01367
9.16407
13.7279
17.4999
20.1229
22.2363
23.1892
24.2608
24.9115
25.4199
25.6639
25.6685
-26.6223
-26.5676
-26.8225
-26.9156
-27.71
-29.6097
-32.1086
-34.289
-36.6355
-39.4861
-41.1737
-44.2208
-47.1543
-50.0149
-52.427
-54.2574
-55.7077
-52.6752
-46.3859
-39.1678
-31.7846
-25.703
-23.3941
-21.0365
-17.1632
-11.3675
-4.8647
0.211666
4.97435
9.5626
13.5168
16.8783
19.2504
20.8225
21.5241
22.2377
22.5875
22.8159
22.7061
22.5045
-25.294
-24.9426
-25.3033
-25.1671
-25.2735
-26.3553
-28.5746
-31.0148
-32.6567
-34.0225
-34.7322
-37.0323
-39.4755
-41.7054
-43.8408
-45.028
-44.4847
-40.6806
-38.0525
-36.472
-32.8018
-27.2099
-24.7011
-21.406
-15.6236
-7.94957
-0.5158
3.94067
7.36265
10.7743
13.7981
16.5552
18.2788
18.8879
19.1453
19.1227
19.127
19.2451
19.2513
19.787
-23.7677
-23.6209
-23.3333
-23.1137
-22.342
-23.4449
-25.6638
-26.6536
-26.8246
-27.0199
-27.1768
-28.7904
-30.4424
-31.4458
-31.9743
-31.7311
-30.1742
-27.2326
-26.637
-27.1792
-25.4199
-20.5735
-17.5091
-14.1708
-9.23055
-2.59558
3.62849
7.18184
9.20839
11.0865
12.5653
13.7432
13.2097
12.4256
12.4375
12.1251
11.953
11.9686
11.7967
12.1273
-21.8115
-21.6869
-21.464
-21.3199
-20.0252
-20.2084
-20.8446
-20.6365
-20.1681
-19.8359
-19.563
-19.5961
-19.527
-18.7044
-17.6477
-16.1765
-14.3686
-12.2395
-11.4335
-11.2365
-9.9733
-6.33814
-3.31542
-1.25568
1.46064
5.03547
8.05825
9.71035
10.1435
10.2877
10.3873
9.85031
9.29261
8.93673
8.52972
7.78518
7.07833
6.57677
5.95
5.98248
-19.6511
-19.4168
-18.9688
-18.3143
-16.8975
-16.5102
-16.0857
-15.2534
-14.1602
-12.8702
-11.3244
-9.66125
-7.79717
-5.6613
-3.51246
-1.33398
0.58493
2.17197
3.14524
4.27888
5.78639
8.28167
11.0931
11.7403
12.0706
12.4644
12.3851
12.0217
11.2227
9.67246
7.80519
7.00482
6.50834
6.15578
5.05081
4.09588
2.82988
2.0387
1.18656
1.41441
-16.8567
-16.5325
-15.8245
-14.9382
-14.0459
-13.105
-11.8669
-10.1956
-8.14255
-5.77587
-3.09597
-0.192349
3.00593
6.37877
9.46012
12.3193
14.5095
15.8523
16.7584
18.2488
19.2078
20.2876
21.7992
21.0103
19.5568
17.9981
15.9281
14.0042
12.1705
8.99854
5.70346
4.64584
3.36426
2.94602
1.45026
0.4496
-1.25019
-1.92936
-2.87646
-2.39934
-13.5022
-13.2658
-12.7767
-11.9948
-11.0189
-9.50881
-7.53858
-5.18302
-2.43677
0.722473
4.12629
7.81188
12.0234
16.3849
20.1677
23.1362
25.2396
26.8586
27.7704
29.4461
29.5374
29.959
29.712
27.4771
24.5083
21.5973
18.1714
14.8129
12.0463
7.87261
3.79374
2.24667
0.169995
-0.623592
-1.87174
-3.38542
-5.03276
-5.61879
-6.44389
-5.68268
-10.2727
-10.0611
-9.64975
-8.77796
-7.39042
-5.59966
-3.42299
-0.551121
2.73704
6.29395
10.1138
14.3238
19.0013
23.7696
28.0207
31.4787
34.0806
36.008
36.668
38.1508
38.0591
36.5909
34.0933
31.3647
27.5793
23.5222
19.022
14.6886
11.2741
6.05548
1.95905
-0.70604
-2.7219
-4.27122
-5.09016
-6.96257
-8.56457
-8.72625
-9.55778
-8.31586
-7.99652
-7.7295
-7.0248
-5.9907
-4.40965
-2.72434
-0.222676
2.99356
6.60125
10.4384
14.7255
19.43
24.4536
29.4912
34.089
37.9483
40.9321
42.8296
42.9388
44.0736
42.7525
40.4415
37.1169
33.4114
28.7039
24.1676
18.9086
14.1957
9.95368
3.95689
-0.208693
-2.95679
-5.33712
-6.99512
-8.70891
-9.72868
-11.7887
-11.7333
-12.4293
-10.5572
-6.4559
-5.89308
-4.96813
-3.44814
-1.74063
0.267996
2.77822
6.16142
10.092
14.2149
18.717
23.7172
28.9633
34.1545
38.3595
41.6079
44.4239
46.1319
45.9987
45.8998
45.7995
42.9872
39.0165
34.6777
29.3233
24.1331
18.5046
13.1951
8.56426
2.04102
-2.39817
-4.93675
-7.90551
-9.41669
-10.834
-12.0694
-14.3003
-13.6674
-14.79
-11.7869
-4.37189
-4.09458
-3.04504
-1.77946
0.247868
2.47628
5.1655
8.68864
13.0156
17.6386
22.2759
27.3623
32.5874
36.8481
40.2474
43.0789
45.5926
47.5281
47.9494
47.0528
47.3352
44.5812
40.0411
35.2804
29.5493
23.9498
18.0357
12.4033
7.3246
0.510741
-4.29406
-6.97775
-9.9497
-11.4892
-13.691
-13.8499
-16.1343
-15.7017
-15.9639
-12.1406
-4.43255
-3.44317
-2.58053
-0.413197
1.96791
4.49779
7.53556
11.3685
16.0944
21.0351
25.4698
29.9449
34.1042
37.7771
41.1138
44.1884
46.5635
48.6243
49.0873
47.9336
48.2368
45.6211
40.7348
35.7148
29.6467
23.9618
17.7223
12.0084
6.34764
-0.719141
-5.69654
-8.54206
-11.4352
-13.1446
-15.2416
-15.7079
-17.1939
-15.3154
-15.3296
-8.73698
-3.72732
-3.3772
-1.97918
0.0186312
2.27361
4.69023
9.51135
13.4723
18.2252
23.0384
27.497
31.6105
35.1572
38.3922
41.5933
44.7878
47.0867
49.0783
49.009
48.3944
48.5397
46.2515
41.2302
35.7843
29.4807
23.9245
17.5786
11.8954
5.50888
-1.54813
-6.92574
-9.58763
-12.5107
-13.5425
-16.1918
-16.4114
-18.5103
-15.5475
-14.2019
-4.59753
-6.36178
-2.77827
-1.4598
1.02353
3.28315
6.04144
9.83131
14.4113
19.3452
24.1509
28.5515
32.5072
35.834
38.8776
41.9322
45.0715
47.1772
49.0155
48.8162
48.5602
48.4271
46.5107
41.6332
35.9656
29.7395
24.2295
17.7359
11.9324
5.07981
-2.08183
-7.67302
-10.4605
-13.1465
-13.7304
-15.9961
-15.7619
-16.8493
-12.0035
-7.09312
7.95844
0.223856
0.347108
0.595552
0.848165
1.24477
1.78312
2.53895
3.48654
4.63063
6.05892
7.71522
9.61756
11.7858
14.1379
16.5245
19.2782
22.3893
25.6433
29.1786
31.8827
35.8871
39.5244
41.9432
44.2222
46.4076
48.3748
50.2473
51.8538
53.3303
54.6604
55.4351
56.7936
57.8572
58.8478
59.776
60.3999
60.968
61.4599
61.7649
61.928
-0.149392
0.0443937
0.245462
0.514689
0.900435
1.27736
2.04591
2.98363
4.01037
5.5634
7.35404
9.26455
11.304
13.7139
16.3529
19.1569
22.242
25.3669
28.7832
31.7221
35.7768
39.4891
42.0439
44.2766
46.4305
48.3511
50.2
51.7878
53.2739
54.5791
55.6764
56.6993
57.8473
58.8793
59.738
60.3943
60.9282
61.3958
61.7074
61.8891
-0.860726
-0.727729
-0.532766
-0.258226
0.0928936
0.366215
1.11539
2.0891
3.25902
4.6643
6.37686
8.29303
10.4725
12.9236
15.617
18.4344
21.5096
24.6665
28.0984
31.1606
35.2651
39.0021
41.5845
43.7839
45.9325
47.8287
49.6781
51.2701
52.7977
54.1669
55.3811
56.5629
57.6673
58.6935
59.6641
60.3105
60.8941
61.3666
61.6644
61.8404
-1.96342
-1.87345
-1.68542
-1.39137
-1.00953
-0.621857
-0.102414
0.666238
1.78795
3.18302
4.87014
6.82855
9.04244
11.4841
14.2358
17.1472
20.3474
23.6478
27.195
30.3945
34.552
38.3879
40.9929
43.2184
45.3664
47.2976
49.168
50.8043
52.3931
53.8206
55.1108
56.2674
57.4036
58.5037
59.6363
60.4826
61.0052
61.4314
61.6745
61.8028
-3.50194
-3.41099
-3.24974
-2.86349
-2.544
-2.16645
-1.75177
-1.23256
-0.211689
1.11753
2.77411
4.68673
6.88443
9.43235
12.3358
15.4324
18.8388
22.3595
26.0156
29.3157
33.7195
37.6789
40.2996
42.5706
44.7001
46.7278
48.6585
50.4325
52.0417
53.5152
54.8368
56.0764
57.1447
58.2713
59.7326
60.6161
61.1044
61.43
61.5811
61.6898
-5.22298
-5.12879
-4.91492
-4.66821
-4.45755
-4.10432
-3.8091
-3.47092
-2.51948
-1.24325
0.333869
2.19809
4.42502
7.0091
10.0066
13.3136
16.9058
20.8026
24.8392
28.4706
32.9916
37.1283
39.8416
42.1715
44.3839
46.3791
48.2171
49.8831
51.5475
53.0767
54.5092
55.9297
57.1114
58.3685
59.9738
60.711
61.0217
61.2875
61.4264
61.4726
-6.77271
-6.7311
-6.68574
-6.50783
-6.44371
-6.19301
-6.08172
-5.80937
-4.85018
-3.73302
-2.25008
-0.449928
1.73842
4.2986
7.21304
10.7898
14.8928
19.0521
23.4326
27.4583
31.975
36.4142
39.2777
41.7069
43.9932
46.0239
47.9282
49.6204
51.2235
52.7428
54.1384
55.4243
56.7069
57.9693
59.6282
60.4458
60.7644
60.9956
61.109
61.1593
-8.12587
-8.08518
-8.06975
-7.94918
-7.9888
-7.92978
-8.15185
-7.90985
-7.22787
-6.29814
-4.99925
-3.31633
-1.21716
1.33732
4.44938
8.09754
12.3521
16.8384
21.5702
26.035
30.6063
35.501
38.6336
41.1587
43.5101
45.6093
47.554
49.2636
50.9268
52.26
53.7893
55.0401
56.2853
57.4915
58.9429
60.0492
60.3498
60.5716
60.6657
60.6964
-9.82424
-9.79142
-9.75113
-9.6967
-9.70828
-9.82436
-10.4516
-10.3868
-9.93064
-9.22406
-8.09022
-6.5817
-4.4734
-1.93138
1.25598
5.14726
9.68028
14.4777
19.5104
24.4098
29.1945
34.1965
37.7645
40.4348
42.8823
45.0902
47.0981
48.9048
50.5247
52.0089
53.2917
54.6209
55.7521
57.0259
58.1841
59.497
59.831
60.0148
60.0983
60.1093
-11.6397
-11.6631
-11.6926
-11.8089
-11.8451
-12.2955
-13.1063
-13.1878
-12.9135
-12.371
-11.4451
-10.0332
-8.11048
-5.56214
-2.20001
1.96769
6.78078
11.9184
17.3403
22.6811
27.7867
32.79
36.7044
39.5461
42.1055
44.4243
46.5558
48.4111
50.1725
51.6098
52.889
53.877
55.1026
56.2321
57.4786
58.6738
59.2477
59.3204
59.3642
59.3582
-13.6247
-13.7029
-13.795
-14.0439
-14.2694
-15.1919
-15.8645
-16.0706
-16.0109
-15.6977
-14.9925
-13.84
-12.0667
-9.4635
-5.9064
-1.55206
3.48982
8.96169
14.7705
20.5581
26.0403
31.2888
35.4103
38.4876
41.179
43.6445
45.8602
47.9566
49.6184
51.1268
52.4489
53.7289
54.872
55.7845
56.6544
57.8736
58.3213
58.4511
58.4678
58.4548
-15.6495
-15.7334
-15.9934
-16.3018
-16.836
-18.1269
-18.8393
-19.2411
-19.2422
-19.2219
-18.802
-17.8865
-16.2204
-13.5791
-9.99702
-5.53688
-0.268623
5.57347
11.8172
18.073
23.9619
29.5709
33.9332
37.2342
40.0713
42.6819
45.1312
47.0629
48.8723
50.5219
51.9876
52.9294
53.6312
54.4739
55.7097
56.9865
57.5085
57.4086
57.3463
57.3354
-17.7345
-17.8713
-18.1909
-18.6533
-19.8002
-20.9937
-21.705
-22.2451
-23.0835
-22.9518
-22.769
-22.0877
-20.5148
-18.0454
-14.5643
-10.0154
-4.49212
1.75708
8.45326
15.1677
21.4116
27.4312
32.13
35.7447
38.7783
41.6056
43.8825
46.0208
48.0617
49.3568
50.4161
51.5311
52.5017
53.3323
54.045
54.8392
56.3761
56.079
56.1343
56.0814
-19.7313
-19.9097
-20.3569
-21.1255
-22.464
-23.7527
-24.6287
-25.6311
-26.6069
-26.849
-26.8192
-26.3474
-25.0934
-22.9288
-19.6075
-15.0047
-9.23946
-2.61034
4.52736
11.6598
18.1682
24.5832
29.8642
34.0528
37.5405
40.2496
42.6522
44.608
46.0417
47.5802
48.8717
50.0228
51.02
51.9147
52.6167
53.2952
53.7947
54.8208
54.4341
54.5313
-21.815
-22.0612
-22.713
-23.7333
-25.0126
-26.4308
-27.7463
-29.0639
-30.0555
-30.8705
-30.9569
-30.8231
-29.9408
-28.0724
-24.9367
-20.3518
-14.4919
-7.62007
-0.0719819
7.67592
14.8404
21.4737
27.0507
32.0563
35.4285
38.0615
40.19
42.2289
43.9507
45.4886
46.8516
48.0759
49.177
50.1373
50.9771
51.6527
52.3053
53.1518
53.2351
52.9092
-23.5784
-23.9632
-24.7311
-25.8417
-27.1803
-28.7639
-30.475
-32.2432
-33.6132
-34.7002
-35.1313
-35.4749
-34.9859
-33.2718
-30.2521
-25.9087
-20.2002
-12.9272
-4.59216
4.22718
12.0965
18.8654
24.2066
28.7425
32.7353
35.4986
37.5367
39.4281
41.1571
42.7904
44.2823
45.68
46.9369
48.0516
48.9737
49.8039
50.3091
50.6136
51.0662
50.8349
-25.595
-25.9808
-26.7562
-27.8454
-29.2135
-31.1462
-33.157
-35.227
-37.0126
-38.4836
-39.4578
-40.1601
-39.8545
-38.3243
-35.4578
-31.1668
-25.6953
-17.8234
-8.61772
0.699461
9.08692
15.952
20.7664
24.2301
27.8075
31.1808
33.6154
35.7628
37.662
39.4094
41.0879
42.713
44.2164
45.5499
46.6633
47.6072
48.2705
48.6395
49.5983
48.8881
-26.7751
-27.223
-27.9895
-29.0648
-30.6013
-32.901
-35.3919
-37.8523
-39.978
-42.107
-43.2152
-44.2859
-44.2881
-43.0684
-40.3661
-36.1404
-30.7413
-22.3859
-13.0076
-3.22465
5.7812
13.3289
18.0135
20.8286
22.958
25.3133
28.2205
30.9827
33.4156
35.382
37.3569
39.3498
41.2225
42.8507
44.182
45.2397
45.9556
46.2128
45.8751
46.5596
-28.3992
-28.6942
-29.3581
-30.2456
-31.9985
-34.6744
-37.4137
-40.0573
-42.5614
-44.9844
-46.3856
-47.7693
-48.2029
-47.3975
-44.9212
-40.7104
-35.1206
-26.7449
-16.9508
-6.88121
2.34428
10.3373
15.2409
17.9124
19.3969
20.5868
22.5196
25.204
28.0206
30.5942
33.1399
35.4956
37.7596
39.758
41.3402
42.5449
43.3972
43.8059
43.8008
44.5183
-27.8675
-28.1002
-28.747
-29.8661
-32.0062
-35.6037
-38.625
-41.5228
-44.5129
-47.5253
-49.1985
-50.8223
-51.6986
-51.1925
-48.7832
-44.4479
-38.0077
-29.1756
-19.9845
-10.7503
-1.28253
6.90437
12.0646
14.5586
15.7976
16.7487
18.0625
20.2999
22.8766
25.7629
28.8292
31.5079
33.8754
35.9369
37.6485
39.0125
40.1133
40.9144
41.1592
41.4572
-27.2466
-27.5482
-28.1081
-29.3414
-32.3827
-36.7029
-39.9424
-43.0522
-46.2592
-49.5589
-51.3375
-53.1728
-54.2794
-53.9758
-51.5643
-47.1545
-40.027
-31.1005
-22.9473
-14.5315
-5.58311
2.80287
7.95305
10.0086
10.884
11.7167
13.1773
15.7428
18.642
21.8065
25.2726
28.0142
30.2776
32.6397
34.788
36.1834
37.0844
37.6981
38.0099
38.1884
-28.1216
-28.0522
-28.4457
-29.6645
-33.1336
-37.2708
-40.5327
-43.7357
-47.1832
-50.4901
-53.0171
-54.6884
-56.1778
-56.2331
-53.986
-49.0647
-41.7084
-32.7745
-25.5146
-18.7912
-10.1858
-1.29279
3.87804
5.10116
5.55498
6.10576
7.50151
10.3479
14.0428
18.323
22.0188
25.4338
27.8996
29.9368
31.5146
33.4414
34.7454
35.3967
35.5915
35.4772
-28.7746
-28.7308
-29.082
-30.3986
-33.813
-37.4919
-40.7469
-43.9934
-47.4555
-50.8406
-53.9636
-55.5213
-57.5469
-58.3058
-56.6184
-51.85
-44.1784
-34.1108
-26.8543
-20.6286
-12.9138
-4.32752
-1.17952
-1.16373
-1.71161
-0.661579
1.29809
4.71796
9.18106
14.5601
19.1343
22.6677
25.7103
28.1175
29.7125
30.9778
32.2636
32.8422
33.0263
32.8234
-29.0275
-28.8842
-29.2549
-30.6612
-33.5634
-36.792
-39.9741
-43.1927
-46.6039
-50.0602
-53.6766
-55.796
-58.4646
-60.5206
-60.3929
-56.5727
-49.3274
-39.1247
-29.1247
-20.2835
-14.269
-8.53012
-5.79322
-6.28949
-7.1265
-6.46088
-3.9595
-0.0672039
5.10873
11.2282
16.6711
20.6196
23.508
25.9117
27.6061
29.0252
30.1843
30.9626
31.3111
31.3355
-28.5647
-28.659
-29.1525
-30.3497
-32.5681
-35.357
-38.3534
-41.444
-44.6786
-48.0893
-51.7474
-55.4339
-58.422
-62.2163
-64.3403
-61.6792
-54.4137
-44.4859
-35.4222
-24.9896
-17.8106
-12.5357
-10.6866
-10.1612
-11.1065
-10.3927
-7.22285
-3.10618
2.4842
8.79286
14.8359
19.4172
22.0558
24.5017
25.9995
27.1188
27.8685
28.4166
28.6687
28.5659
-27.7839
-27.9648
-28.3412
-29.1513
-30.7448
-33.0594
-35.7537
-38.5443
-41.4347
-44.4536
-47.7531
-51.9115
-55.2803
-59.8542
-63.2977
-63.0511
-61.7921
-56.9277
-47.8064
-36.4976
-27.6521
-20.0447
-17.872
-17.7689
-17.9721
-15.1555
-9.3675
-4.03948
1.96905
8.08593
13.6225
18.1815
20.9172
22.8616
24.0789
24.9844
25.4752
25.8811
25.9954
25.8839
-26.6854
-26.9512
-27.0801
-27.463
-28.3971
-30.2879
-32.7523
-35.184
-37.4376
-39.7251
-42.1821
-45.7038
-48.6717
-52.3348
-55.9153
-58.5651
-61.732
-58.3973
-51.1439
-44.4361
-35.5038
-27.1714
-25.4085
-24.6209
-21.216
-14.7797
-6.86882
-1.35127
4.0691
9.31196
13.6943
17.8182
20.1196
21.6701
22.4451
22.9968
23.1798
23.3315
23.1876
23.0083
-25.4177
-25.6178
-25.4155
-25.4516
-25.7285
-27.1191
-29.31
-31.2495
-32.4816
-33.372
-34.5704
-37.1377
-39.4856
-42.1375
-45.6916
-48.3036
-47.8065
-41.7745
-40.195
-42.25
-38.2529
-31.0448
-28.7446
-26.3789
-19.0245
-8.77311
-0.315826
3.72504
7.51518
11.3648
14.4569
17.1983
18.8409
19.2955
19.4218
19.2664
19.1176
19.129
19.0778
19.4698
-24.0935
-23.7226
-23.5823
-23.3028
-22.9838
-23.9555
-25.6128
-26.3382
-26.172
-25.7786
-26.2445
-28.5638
-30.2476
-30.8134
-32.5507
-33.4149
-31.5633
-27.9588
-28.2696
-32.025
-30.948
-24.1534
-19.8817
-18.1557
-11.524
-2.25623
4.76706
7.96125
10.0051
12.0203
13.5548
14.4318
13.7839
13.1843
12.8248
12.2067
11.8792
11.7852
11.5962
11.8934
-22.0365
-21.444
-21.3806
-20.8491
-20.0517
-20.2976
-20.7548
-20.3427
-19.3849
-18.7491
-19.2013
-19.05
-19.2186
-17.839
-17.2571
-16.2739
-14.5214
-12.4368
-11.8835
-12.0336
-11.3814
-5.70941
-1.53628
-0.842658
2.29288
6.86213
9.90385
11.1415
11.2897
11.2466
11.1971
10.6625
9.87649
9.0913
8.35583
7.45217
6.62154
6.12248
5.67695
5.69175
-19.8588
-19.6007
-18.929
-17.9673
-16.9348
-16.6398
-16.1317
-15.0338
-13.5316
-12.7791
-10.9928
-9.11921
-7.39153
-4.63461
-2.54292
-0.225522
1.61041
2.72378
4.21683
5.9054
7.74102
12.7231
15.5787
15.6043
15.6274
15.492
14.738
13.786
12.4181
10.5563
8.41955
7.42158
6.60602
5.96183
4.65677
3.69831
2.23397
1.45317
0.838074
0.827961
-17.0698
-16.6483
-15.7407
-14.7354
-13.9855
-13.2265
-12.0397
-10.4066
-8.56034
-6.07477
-2.89169
0.31755
3.8395
7.786
10.9373
14.1172
16.6624
18.3706
19.2344
21.2596
22.6656
24.8829
26.2439
25.1121
23.1417
20.8915
18.1528
15.6174
13.2242
9.74721
6.08784
4.63294
3.27477
2.41024
1.01626
-0.0524118
-1.95436
-2.6199
-3.29772
-3.12054
-13.7414
-13.423
-12.9798
-12.0181
-11.17
-9.6923
-7.81899
-5.52943
-2.76379
0.822654
4.40662
8.32179
13.1303
18.0054
22.1424
25.1458
27.5773
29.4743
30.4252
32.636
32.9809
33.1328
32.7006
30.5736
27.2012
23.7603
19.8591
16.0461
12.8189
8.12243
3.75024
1.85754
-0.112038
-1.32791
-2.92667
-3.74553
-5.72714
-6.48508
-7.0281
-6.70792
-10.5417
-10.3538
-9.95692
-9.16742
-7.62739
-5.72311
-3.70858
-0.489069
3.19355
6.7943
10.6995
14.9223
19.9202
25.0487
29.6417
33.349
36.1572
38.3977
39.5693
41.4722
40.9867
38.7853
36.2994
33.671
29.5595
24.9814
20.1476
15.5527
11.8074
6.17028
1.49074
-1.22914
-3.48227
-4.81215
-6.66409
-7.53428
-9.2029
-9.60373
-10.5823
-9.66439
-8.24015
-7.89091
-7.37815
-6.29569
-4.91225
-3.07122
-0.121148
3.5475
7.24011
11.0084
15.4511
20.3196
25.4397
30.544
35.239
39.3715
42.3821
44.5316
45.6472
46.8214
45.4115
42.7624
39.0413
35.1151
30.1268
25.1959
19.5457
14.5397
10.2249
4.14875
-0.557442
-4.05002
-6.448
-8.01933
-9.90148
-10.9235
-12.6799
-12.7015
-14.0525
-12.2352
-6.36972
-6.04899
-5.46706
-3.83352
-1.96132
0.222901
2.90752
6.44826
10.9242
15.1691
19.5629
24.5655
29.7011
34.5841
38.8599
42.8047
45.9714
48.0267
49.174
48.7213
47.8825
45.0846
40.6773
35.959
30.3195
24.792
18.8509
13.5382
8.49508
1.80175
-3.07365
-5.69524
-9.01267
-10.487
-12.7549
-13.3145
-15.4005
-15.1538
-16.5398
-13.7581
-4.74201
-4.89407
-3.62892
-2.16427
0.051921
2.38724
5.21375
8.83163
13.641
18.6778
22.95
27.9316
32.7686
37.2363
41.1919
44.7406
47.6587
49.6782
50.0956
49.5514
49.0574
46.2862
41.403
36.1666
30.0394
24.1479
18.0111
12.35
6.99578
0.0858998
-5.16836
-7.9093
-11.0334
-12.695
-15.243
-15.5774
-17.537
-16.9081
-18.6055
-13.7511
-4.8119
-3.48766
-2.42173
-0.450569
1.82106
4.5705
7.40981
11.511
16.3664
21.1299
25.954
30.7115
35.0493
39.0403
42.7697
46.1378
48.7601
50.915
50.837
50.0955
49.593
46.8891
41.7811
36.2714
29.8325
23.944
17.5623
11.8032
5.79981
-1.19978
-6.57212
-9.56686
-12.578
-14.2165
-16.5202
-16.7915
-18.4782
-16.7526
-17.1288
-9.4536
-3.71081
-3.39068
-1.89311
-0.134822
2.47979
5.25635
9.33521
13.4714
18.2974
22.901
27.7524
32.3993
36.5225
40.3226
43.8205
47.0112
49.3298
51.3142
51.0903
50.4672
49.6987
47.01
41.7047
36.0775
29.5216
23.7521
17.2992
11.614
4.95195
-2.05738
-7.85093
-10.7049
-13.6756
-14.6831
-17.4035
-17.5934
-19.1631
-16.3289
-14.242
-2.99075
-6.19055
-2.60091
-1.28257
1.02614
3.37419
6.2642
10.1736
14.7466
19.6147
24.3525
28.8884
33.3544
37.3923
41.1024
44.3894
47.3832
49.4064
51.038
50.8588
50.5175
49.7756
47.125
41.8456
36.0411
29.5179
23.9559
17.4328
11.5687
4.59038
-2.42829
-8.48886
-11.4739
-14.2637
-14.9519
-17.1373
-16.9349
-17.5423
-12.3526
-4.76974
12.9894
0.561231
0.747483
0.921819
1.15357
1.53191
2.0067
2.76251
3.72766
4.88507
6.28123
7.81474
9.67344
11.9543
14.3822
16.9814
19.8509
22.9836
25.9185
29.3788
32.2314
36.1759
40.0665
42.525
44.7918
46.9718
48.8533
50.6498
52.2275
53.6935
55.0213
56.0837
56.8811
58.27
59.1636
59.9896
60.6063
61.1478
61.5838
61.9643
62.1658
0.273216
0.410763
0.59922
0.842848
1.19343
1.49654
2.23546
3.25266
4.46867
5.88489
7.51753
9.40345
11.5695
14.0081
16.6912
19.4936
22.5614
25.6645
29.0683
32.0855
36.1902
39.8969
42.4794
44.7095
46.8551
48.6898
50.4606
52.0044
53.4903
54.7737
55.9218
57.0262
58.1552
59.0681
59.9902
60.6228
61.1446
61.6024
61.9274
62.1139
-0.405298
-0.305228
-0.116067
0.132626
0.447884
0.825066
1.45905
2.302
3.45665
4.85794
6.55409
8.48831
10.7
13.1557
15.7986
18.5538
21.7027
24.9237
28.3875
31.5208
35.6648
39.3041
41.912
44.1254
46.2523
48.079
49.8235
51.3992
52.9034
54.3246
55.4964
56.734
57.9076
59.038
60.0969
60.5696
61.1535
61.5926
61.9009
62.0637
-1.45732
-1.39079
-1.20903
-0.926654
-0.619531
-0.265498
0.21999
0.929578
2.02552
3.40396
5.07579
7.02188
9.23557
11.6524
14.2934
17.1871
20.4842
23.8404
27.428
30.7141
34.9022
38.6205
41.2615
43.5088
45.6829
47.5159
49.2947
50.8982
52.526
53.9412
55.3424
56.4966
57.7659
58.9593
60.0401
60.7336
61.285
61.647
61.9059
62.0275
-2.94865
-2.85909
-2.67373
-2.4315
-2.14259
-1.8291
-1.42874
-0.913738
0.0442387
1.35359
2.99727
4.88458
7.05973
9.57329
12.3571
15.4486
18.9387
22.5058
26.3248
29.7856
33.8965
37.6856
40.4178
42.7955
45.1844
47.0697
48.903
50.5906
52.2294
53.6959
55.0648
56.3864
57.5083
58.7952
60.086
60.8725
61.3765
61.6651
61.8454
61.9122
-4.64214
-4.56535
-4.40687
-4.22936
-4.01651
-3.7558
-3.51211
-3.14724
-2.26534
-1.03092
0.514215
2.36691
4.60335
7.19108
10.0978
13.3993
17.1406
20.7613
25.0286
28.7613
33.2502
37.3918
40.2034
42.5385
44.7518
46.695
48.4243
50.1983
51.9784
53.4113
54.9372
56.135
57.3714
58.8411
60.2493
61.0247
61.3347
61.5646
61.68
61.7326
-6.19637
-6.2103
-6.20019
-6.15103
-6.03126
-5.89543
-5.81081
-5.56992
-4.7512
-3.62717
-2.1418
-0.336045
1.88327
4.48096
7.50783
10.973
14.8951
19.2794
23.7016
27.7423
32.3409
36.6505
39.6327
42.0837
44.3766
46.4206
48.3803
50.123
51.7675
53.1047
54.4989
55.7113
57.0075
58.2948
60.19
60.8254
61.116
61.3055
61.4005
61.4338
-7.55943
-7.56541
-7.60906
-7.67311
-7.72533
-7.76936
-7.9841
-7.82551
-7.18425
-6.26225
-4.96253
-3.26828
-1.08889
1.44419
4.704
8.4241
12.622
17.126
21.8805
26.3273
31.0818