/*--------------------------------*- C++ -*----------------------------------*\
| =========                 |                                                 |
| \\      /  F ield         | OpenFOAM: The Open Source CFD Toolbox           |
|  \\    /   O peration     | Version:  v1806                                 |
|   \\  /    A nd           | Web:      www.OpenFOAM.com                      |
|    \\/     M anipulation  |                                                 |
\*---------------------------------------------------------------------------*/
FoamFile
{
    version     2.0;
    format      ascii;
    class       volVectorField;
    location    "0.143";
    object      U_0;
}
// * * * * * * * * * * * * * * * * * * * * * * * * * * * * * * * * * * * * * //

dimensions      [0 1 -1 0 0 0 0];


internalField   nonuniform List<vector> 
64000
(
(-0.0199418 0.00420111 -0.0128505)
(-0.00687167 0.00461509 -0.0118454)
(-0.0106581 0.0122387 -0.0044457)
(-0.0185039 0.0133736 -0.00330662)
(-0.0288509 0.0132056 -0.00305693)
(-0.040482 0.0127605 -0.00274216)
(-0.05465 0.0116617 -0.00279275)
(-0.0730253 0.0107896 -0.00205175)
(-0.0919662 0.00923337 -0.00186564)
(-0.113205 0.00766783 -0.00142581)
(-0.133241 0.00455836 -0.00147544)
(-0.157442 0.000556996 -0.00171472)
(-0.18053 -0.00244495 -0.00225171)
(-0.212385 -0.00382795 -0.00303585)
(-0.238568 -0.00290524 -0.00242955)
(-0.277572 -0.00339285 -0.000275959)
(-0.296883 -5.82166e-05 0.000794272)
(-0.33829 -0.00787026 -0.00508774)
(-0.318215 -0.0102007 -0.000833767)
(-0.391261 -0.0322857 -0.0263301)
(-0.347808 -0.0127879 -0.0134529)
(-0.222772 -0.0182468 -0.0329934)
(-0.223788 -0.00445383 -0.0208463)
(-0.214504 -0.00585479 -0.041096)
(-0.231294 2.04636e-05 -0.0518616)
(-0.210601 0.00757923 -0.062949)
(-0.187914 0.0181711 -0.0661453)
(-0.135618 0.0290406 -0.0629201)
(-0.0867706 0.0359515 -0.0591134)
(-0.0348594 0.0449214 -0.0487738)
(0.00775948 0.0474216 -0.035998)
(0.0549877 0.0389157 -0.0280042)
(0.0778642 0.0287507 -0.0154593)
(0.0837215 0.0152056 -0.00814896)
(0.0754 0.00633635 0.000600732)
(0.0613376 -0.000928334 0.00197615)
(0.045581 -0.00535844 0.0033393)
(0.0265272 -0.00471924 0.00386308)
(0.0137496 -0.00341406 0.00383177)
(0.00169806 -0.00203086 0.00181654)
(-0.0175674 0.0542707 -0.010874)
(-0.0163328 0.0365406 -0.0108972)
(-0.0128808 0.0399103 -0.00657717)
(-0.0152356 0.042241 -0.00558984)
(-0.0211166 0.0449743 -0.00631021)
(-0.0318862 0.0477265 -0.00632336)
(-0.0475654 0.0515007 -0.00630376)
(-0.0707596 0.0533933 -0.00657899)
(-0.0974289 0.0557299 -0.00711733)
(-0.131717 0.0586261 -0.00575564)
(-0.169381 0.0641516 -0.00514557)
(-0.214492 0.0698241 -0.00585853)
(-0.261136 0.0761011 -0.00942528)
(-0.320555 0.0809315 -0.0143925)
(-0.380567 0.089516 -0.0215768)
(-0.455138 0.0910368 -0.0294399)
(-0.52419 0.094667 -0.0474211)
(-0.607902 0.0905608 -0.0635041)
(-0.635524 0.0983791 -0.0806012)
(-0.72309 0.092553 -0.0975418)
(-0.647115 0.132516 -0.0859526)
(-0.507451 0.149477 -0.124646)
(-0.492955 0.188734 -0.128886)
(-0.466959 0.204292 -0.145858)
(-0.455553 0.225885 -0.15768)
(-0.401072 0.245893 -0.165768)
(-0.343569 0.26673 -0.166313)
(-0.256647 0.281386 -0.154994)
(-0.17232 0.288528 -0.134596)
(-0.0871885 0.288068 -0.113121)
(-0.0228635 0.279054 -0.0785256)
(0.0459607 0.251794 -0.0499642)
(0.0889586 0.206006 -0.0413421)
(0.11 0.155038 -0.027836)
(0.110515 0.105617 -0.013412)
(0.0951335 0.067525 -0.00607671)
(0.0774781 0.0400901 -0.00181019)
(0.0531502 0.0261504 -0.000738421)
(0.0311809 0.0168928 0.000409746)
(0.00745643 0.00970956 0.000569429)
(-0.00891573 0.0859411 -0.00478829)
(-0.0104719 0.0691816 -0.0079019)
(-0.00846272 0.0711901 -0.00835544)
(-0.00971094 0.0785943 -0.0088845)
(-0.0165244 0.0879171 -0.00982219)
(-0.0288804 0.0992363 -0.00994707)
(-0.0507081 0.11314 -0.00920744)
(-0.0836981 0.126946 -0.00774017)
(-0.121072 0.141717 -0.00853248)
(-0.166463 0.159732 -0.0117744)
(-0.2177 0.180944 -0.0159376)
(-0.283237 0.201781 -0.0218454)
(-0.355483 0.223727 -0.0278991)
(-0.441076 0.240469 -0.03516)
(-0.526109 0.249676 -0.0410554)
(-0.623472 0.253487 -0.0475446)
(-0.694929 0.263027 -0.0659949)
(-0.772601 0.273974 -0.0866054)
(-0.797522 0.302458 -0.103902)
(-0.869945 0.332958 -0.117742)
(-0.771387 0.369006 -0.0981313)
(-0.608506 0.410179 -0.126457)
(-0.574044 0.456953 -0.120629)
(-0.533756 0.482062 -0.125187)
(-0.513515 0.51009 -0.129984)
(-0.452325 0.528038 -0.129884)
(-0.394935 0.541211 -0.124081)
(-0.312375 0.541719 -0.107102)
(-0.238845 0.531926 -0.0842492)
(-0.160805 0.50827 -0.061196)
(-0.10155 0.476799 -0.0412573)
(-0.0506274 0.43268 -0.0296575)
(-0.0132901 0.364808 -0.0181597)
(0.0170092 0.292644 -0.0117404)
(0.0363966 0.217206 -0.0131844)
(0.0463752 0.154843 -0.0115082)
(0.0485621 0.107172 -0.00735106)
(0.0388606 0.0758886 -0.00531773)
(0.027316 0.0521646 -0.00185944)
(0.00805704 0.0291356 0.00037007)
(-0.00746169 0.117022 -0.00559914)
(-0.00934409 0.103944 -0.00962854)
(-0.00652008 0.111388 -0.0121409)
(-0.00951164 0.126304 -0.0132038)
(-0.0182518 0.145326 -0.0141668)
(-0.0341743 0.170057 -0.0129951)
(-0.0621628 0.202 -0.0127578)
(-0.105376 0.234912 -0.0128384)
(-0.154762 0.266196 -0.0161369)
(-0.213666 0.298369 -0.0202804)
(-0.28203 0.329847 -0.0250718)
(-0.360483 0.359846 -0.0289441)
(-0.443703 0.381719 -0.032373)
(-0.539839 0.393464 -0.0339611)
(-0.624061 0.401948 -0.0375843)
(-0.70303 0.413073 -0.0430675)
(-0.762709 0.43367 -0.0601417)
(-0.827502 0.452114 -0.0718649)
(-0.839099 0.490667 -0.0820586)
(-0.897988 0.529431 -0.0802853)
(-0.780535 0.552644 -0.0383471)
(-0.598683 0.586932 -0.0493312)
(-0.553577 0.614825 -0.0360331)
(-0.510955 0.616147 -0.0333368)
(-0.490747 0.626017 -0.0320775)
(-0.437581 0.621745 -0.0287478)
(-0.390657 0.612856 -0.0239871)
(-0.324827 0.592119 -0.0146964)
(-0.268694 0.563186 -0.00318963)
(-0.210772 0.525542 0.00344359)
(-0.172853 0.481247 0.00810162)
(-0.137277 0.436353 0.00696689)
(-0.111383 0.383644 0.000466053)
(-0.0807155 0.325765 -0.00648307)
(-0.0498066 0.254438 -0.0107766)
(-0.0207908 0.188421 -0.0120893)
(0.00476884 0.138732 -0.0115593)
(0.0159557 0.109321 -0.00875171)
(0.0194173 0.0778446 -0.00453244)
(0.00726803 0.0433168 -0.000327643)
(-0.00682991 0.151624 -0.00853186)
(-0.00685868 0.146934 -0.0148204)
(-0.00165315 0.161372 -0.0177932)
(-0.00531166 0.187395 -0.0178984)
(-0.0148342 0.219565 -0.0187267)
(-0.0297289 0.259469 -0.0182027)
(-0.0630265 0.313455 -0.0180518)
(-0.119766 0.3647 -0.0141526)
(-0.182042 0.406823 -0.0154185)
(-0.249014 0.447658 -0.0182614)
(-0.320992 0.48179 -0.0212749)
(-0.406473 0.503422 -0.0233828)
(-0.495774 0.517514 -0.0244991)
(-0.581745 0.529241 -0.0262008)
(-0.649984 0.547342 -0.0269013)
(-0.718345 0.565033 -0.0279766)
(-0.76416 0.58275 -0.0334157)
(-0.811244 0.595293 -0.0340565)
(-0.801605 0.636091 -0.0251723)
(-0.844039 0.670823 -0.0259464)
(-0.720907 0.683816 0.0172923)
(-0.530635 0.694656 0.0191025)
(-0.484443 0.691217 0.0354236)
(-0.44998 0.655708 0.0352483)
(-0.443133 0.638064 0.0349396)
(-0.40766 0.607496 0.0385318)
(-0.378482 0.57777 0.0402545)
(-0.332032 0.539314 0.0420741)
(-0.299285 0.499535 0.035427)
(-0.260751 0.454493 0.0260961)
(-0.23227 0.407391 0.0161811)
(-0.205959 0.369532 0.00861123)
(-0.189164 0.331172 0.00266576)
(-0.172564 0.300873 -0.00963973)
(-0.146583 0.254485 -0.0170574)
(-0.0968823 0.191695 -0.0162672)
(-0.0386502 0.15442 -0.015133)
(-0.00778649 0.131153 -0.0138528)
(0.0069888 0.100173 -0.00571273)
(0.00594666 0.0562855 -0.000280903)
(-0.00659344 0.185307 -0.0131012)
(-0.00487489 0.194708 -0.0217113)
(0.00450209 0.224804 -0.02251)
(0.00241369 0.2675 -0.0243423)
(-0.00778994 0.316604 -0.0225568)
(-0.0189748 0.372531 -0.0181054)
(-0.0531339 0.438254 -0.0175157)
(-0.124402 0.492339 -0.0124663)
(-0.196873 0.535271 -0.00963341)
(-0.26904 0.567226 -0.0119075)
(-0.353437 0.586532 -0.0145716)
(-0.43719 0.598932 -0.0156501)
(-0.50882 0.613269 -0.0155653)
(-0.577372 0.63062 -0.0140828)
(-0.630204 0.648493 -0.009941)
(-0.68519 0.662193 -0.00582653)
(-0.718333 0.677605 -0.00110095)
(-0.743888 0.687872 0.00177882)
(-0.719418 0.723695 0.0046291)
(-0.740784 0.736881 0.0127876)
(-0.618912 0.731502 0.0532762)
(-0.446918 0.69109 0.0581768)
(-0.418487 0.65425 0.0741195)
(-0.40385 0.586026 0.0770802)
(-0.40868 0.548979 0.0768667)
(-0.389904 0.50374 0.0740696)
(-0.374816 0.467795 0.0712509)
(-0.347011 0.425375 0.0626017)
(-0.32711 0.384383 0.0550769)
(-0.30548 0.345283 0.034887)
(-0.288145 0.305046 0.0211407)
(-0.265623 0.272509 0.00613633)
(-0.24455 0.243489 -0.0035006)
(-0.22602 0.229935 -0.0110719)
(-0.216062 0.213528 -0.0216732)
(-0.158391 0.181638 -0.0174586)
(-0.0708164 0.155124 -0.0166485)
(-0.0236217 0.138518 -0.0151163)
(0.00163652 0.111984 -0.00838687)
(0.00435697 0.0645694 0.000597532)
(-0.00227244 0.183398 -0.013301)
(0.0103765 0.206852 -0.0241176)
(0.0278092 0.253912 -0.0280426)
(0.0272406 0.317248 -0.0314992)
(0.0168922 0.386275 -0.0297062)
(0.00449883 0.458621 -0.0218055)
(-0.0416676 0.517366 -0.0168898)
(-0.126699 0.552295 -0.00459954)
(-0.209859 0.590585 -0.00646792)
(-0.28906 0.616874 -0.00981948)
(-0.361311 0.640008 -0.0102925)
(-0.42769 0.664207 -0.00853511)
(-0.485917 0.685517 -0.00481016)
(-0.539321 0.700305 -0.000475736)
(-0.581186 0.714241 0.00470915)
(-0.6202 0.721167 0.00675)
(-0.63687 0.731536 0.0123693)
(-0.65272 0.726969 0.0169687)
(-0.621831 0.731334 0.0205022)
(-0.635851 0.717457 0.0207903)
(-0.556866 0.694737 0.0516281)
(-0.405487 0.582362 0.0627847)
(-0.372409 0.531808 0.0731398)
(-0.36916 0.460299 0.0764078)
(-0.384284 0.427826 0.0748803)
(-0.380622 0.388984 0.0727383)
(-0.380297 0.363689 0.0671149)
(-0.369934 0.331766 0.0561104)
(-0.362474 0.303132 0.0387485)
(-0.352346 0.271167 0.0217523)
(-0.340984 0.243327 0.00571084)
(-0.323055 0.220657 -0.00644221)
(-0.300491 0.203014 -0.0138585)
(-0.276159 0.193712 -0.0190755)
(-0.257884 0.199927 -0.0251254)
(-0.198855 0.191324 -0.0245184)
(-0.101405 0.170718 -0.022804)
(-0.0339368 0.153662 -0.0195731)
(-0.000870766 0.127706 -0.0120402)
(0.00556356 0.0761072 -0.00054745)
(0.000951532 0.181684 -0.0124571)
(0.0251297 0.215343 -0.0234315)
(0.0588575 0.265576 -0.0250475)
(0.0667012 0.332935 -0.0232048)
(0.0567539 0.398383 -0.0244266)
(0.0256492 0.475845 -0.0129012)
(-0.045195 0.513659 -0.00159307)
(-0.128534 0.556391 -0.000896318)
(-0.197201 0.599833 -0.00277361)
(-0.265257 0.638382 -0.00312514)
(-0.33021 0.67425 -0.002244)
(-0.390798 0.700582 0.000677344)
(-0.442451 0.717119 0.00760116)
(-0.485736 0.726105 0.0136171)
(-0.514961 0.728359 0.016156)
(-0.544494 0.718997 0.01885)
(-0.560296 0.703416 0.0202029)
(-0.575434 0.669353 0.0215078)
(-0.556054 0.642471 0.0193205)
(-0.562405 0.589857 0.0124782)
(-0.53388 0.568854 0.0266449)
(-0.409323 0.435461 0.0437145)
(-0.351597 0.392949 0.0491451)
(-0.35321 0.33627 0.0565141)
(-0.373127 0.318046 0.0574766)
(-0.38151 0.291302 0.0590404)
(-0.389322 0.277587 0.0549603)
(-0.390804 0.257296 0.042791)
(-0.39603 0.238031 0.0250428)
(-0.395115 0.213997 0.00859926)
(-0.384495 0.192084 -0.00277212)
(-0.364952 0.175494 -0.0149126)
(-0.342251 0.16794 -0.0205379)
(-0.307074 0.167002 -0.0250522)
(-0.291412 0.18129 -0.0301447)
(-0.239572 0.199316 -0.02638)
(-0.133025 0.181076 -0.0249487)
(-0.0485792 0.167914 -0.0189937)
(-0.00228274 0.141835 -0.0130721)
(0.00531082 0.0866732 -7.0666e-05)
(0.00260221 0.207263 -0.0135627)
(0.0340028 0.253781 -0.0266653)
(0.0801008 0.30697 -0.0271082)
(0.0915542 0.368588 -0.020011)
(0.0885228 0.428433 -0.020978)
(0.0476456 0.49872 -0.00682375)
(-0.021548 0.527354 0.00342061)
(-0.0897289 0.583358 0.00275231)
(-0.162883 0.629231 0.00375796)
(-0.226952 0.668008 0.00540172)
(-0.288448 0.694928 0.00870445)
(-0.345468 0.709489 0.0121196)
(-0.389494 0.716853 0.020409)
(-0.427328 0.711603 0.0229651)
(-0.459087 0.69348 0.0232135)
(-0.491201 0.653483 0.0209259)
(-0.512713 0.607402 0.0196472)
(-0.531256 0.547922 0.016341)
(-0.529677 0.498292 0.0110902)
(-0.530487 0.42975 0.000453317)
(-0.538341 0.406059 0.000351482)
(-0.43764 0.311435 0.0203177)
(-0.350691 0.281097 0.023672)
(-0.350171 0.245948 0.0343597)
(-0.368946 0.238923 0.0387669)
(-0.385589 0.222823 0.0461888)
(-0.397735 0.216279 0.0433931)
(-0.411085 0.202962 0.0308603)
(-0.424046 0.186503 0.0149072)
(-0.427072 0.169476 -0.000313779)
(-0.418137 0.154157 -0.00463408)
(-0.398775 0.141847 -0.00617762)
(-0.374977 0.136059 -0.0138391)
(-0.340504 0.143045 -0.0251427)
(-0.30474 0.157211 -0.0339273)
(-0.260898 0.195304 -0.0338998)
(-0.164114 0.193337 -0.0274101)
(-0.0575347 0.185057 -0.0249552)
(-0.0040024 0.157384 -0.0156719)
(0.00672562 0.100611 -0.00167135)
(0.00294621 0.235193 -0.0137935)
(0.0423615 0.296336 -0.0283826)
(0.102125 0.359762 -0.0274764)
(0.124768 0.418092 -0.0184867)
(0.125649 0.484584 -0.0178075)
(0.0725899 0.534387 -0.00698756)
(0.00167708 0.568739 0.00874241)
(-0.0538407 0.608689 0.00804148)
(-0.12338 0.650686 0.012468)
(-0.184846 0.677982 0.0183119)
(-0.246158 0.696765 0.0188968)
(-0.299058 0.701745 0.0270498)
(-0.342966 0.694837 0.0316545)
(-0.385288 0.667283 0.0324382)
(-0.426807 0.622742 0.0274727)
(-0.470229 0.557143 0.0232633)
(-0.500328 0.491544 0.018805)
(-0.522602 0.418953 0.0128561)
(-0.530229 0.360605 0.0058832)
(-0.529697 0.296149 -0.00438709)
(-0.542771 0.267869 -0.0103271)
(-0.451526 0.222489 0.00428236)
(-0.352377 0.204952 0.00750788)
(-0.347258 0.184845 0.0183484)
(-0.361414 0.180162 0.0267755)
(-0.382127 0.169193 0.0375638)
(-0.396279 0.165761 0.0357809)
(-0.41719 0.154132 0.0266235)
(-0.431685 0.143897 0.0124607)
(-0.435036 0.12915 0.0115765)
(-0.434099 0.113481 0.00903863)
(-0.419758 0.100906 0.00990375)
(-0.396094 0.0926361 0.00598277)
(-0.36005 0.102385 -0.00218097)
(-0.322519 0.122369 -0.0175588)
(-0.277692 0.167996 -0.0321814)
(-0.184934 0.195782 -0.0294613)
(-0.0762029 0.193298 -0.0224958)
(-0.00703695 0.173018 -0.0152438)
(0.00808496 0.114434 -0.00101639)
(0.00134942 0.265228 -0.0127743)
(0.0525036 0.347894 -0.0283412)
(0.126421 0.41676 -0.0284369)
(0.159032 0.472566 -0.0185056)
(0.157302 0.533257 -0.0159067)
(0.0980641 0.562365 -0.00536634)
(0.0330597 0.603583 0.0110035)
(-0.0143756 0.628404 0.0178333)
(-0.0782594 0.665417 0.0203292)
(-0.144168 0.683544 0.0232717)
(-0.203554 0.69093 0.0322407)
(-0.257401 0.686152 0.0379121)
(-0.308169 0.664896 0.0393131)
(-0.36322 0.616139 0.0352694)
(-0.420976 0.548906 0.0297831)
(-0.471495 0.473183 0.0242068)
(-0.507389 0.402452 0.0174512)
(-0.533143 0.331822 0.00936811)
(-0.545424 0.275598 0.00155512)
(-0.543146 0.221763 -0.0086332)
(-0.547484 0.192895 -0.0149261)
(-0.452173 0.168723 -0.00436915)
(-0.349377 0.156351 -0.0011805)
(-0.339373 0.140646 0.00885)
(-0.347797 0.134167 0.0206546)
(-0.367113 0.125797 0.0310355)
(-0.382347 0.121673 0.0309462)
(-0.40216 0.113328 0.0246969)
(-0.418758 0.10299 0.0310389)
(-0.43515 0.0858955 0.0274125)
(-0.439284 0.0680521 0.0261238)
(-0.434626 0.0561987 0.014488)
(-0.412752 0.0534453 0.00970508)
(-0.377423 0.0606415 0.00303385)
(-0.326583 0.0803496 -0.00807413)
(-0.278697 0.130341 -0.0254794)
(-0.199156 0.17904 -0.02995)
(-0.0845567 0.198464 -0.0237887)
(-0.00653388 0.182984 -0.0158086)
(0.00855915 0.127732 -0.00168775)
(0.00308956 0.292858 -0.0120557)
(0.0623148 0.398965 -0.0311286)
(0.148356 0.469174 -0.0300385)
(0.191003 0.522648 -0.0174961)
(0.182592 0.567107 -0.00951965)
(0.124874 0.590026 -0.00350482)
(0.0648827 0.62617 0.0127749)
(0.0214394 0.645961 0.0291202)
(-0.0362623 0.662755 0.030359)
(-0.104137 0.677791 0.0361156)
(-0.16385 0.678898 0.0394948)
(-0.224219 0.661971 0.0415668)
(-0.290929 0.622372 0.0392196)
(-0.363482 0.555884 0.0357018)
(-0.428824 0.483693 0.0304275)
(-0.483122 0.408793 0.0237206)
(-0.522999 0.340854 0.015316)
(-0.549325 0.276352 0.00660752)
(-0.561642 0.225457 -0.00136594)
(-0.556713 0.181287 -0.0106341)
(-0.549626 0.151614 -0.0164419)
(-0.446187 0.13325 -0.00855786)
(-0.339676 0.114576 -0.00772485)
(-0.320126 0.0982875 0.00167773)
(-0.319958 0.0853337 0.012559)
(-0.337033 0.0789839 0.0232741)
(-0.347439 0.0745297 0.0262258)
(-0.369492 0.0683247 0.0378535)
(-0.392152 0.0587287 0.0397659)
(-0.40985 0.0474109 0.0460056)
(-0.421224 0.0338482 0.048389)
(-0.422175 0.0193355 0.0461973)
(-0.417874 0.0102932 0.031292)
(-0.395383 0.0178747 0.0241151)
(-0.348268 0.0395721 0.0218483)
(-0.289057 0.0831593 -0.00019406)
(-0.20478 0.151572 -0.0299172)
(-0.0977671 0.196312 -0.0261713)
(-0.0112329 0.193831 -0.015211)
(0.0118726 0.143447 -0.00224131)
(0.00443071 0.316778 -0.00901217)
(0.0711175 0.443488 -0.0302677)
(0.168032 0.51656 -0.0292274)
(0.215736 0.561493 -0.0135163)
(0.205652 0.588863 -0.00185803)
(0.152828 0.61108 0.00136453)
(0.0992214 0.6363 0.0196693)
(0.0500547 0.655128 0.0289298)
(0.00105845 0.658741 0.0446164)
(-0.0592741 0.669567 0.0472339)
(-0.129748 0.661378 0.0461002)
(-0.204387 0.628646 0.0397496)
(-0.289358 0.569976 0.0363332)
(-0.371233 0.501965 0.0353686)
(-0.44056 0.434597 0.0315614)
(-0.498224 0.366414 0.0233107)
(-0.541512 0.302367 0.0137263)
(-0.567627 0.242745 0.00459719)
(-0.576431 0.193396 -0.00299329)
(-0.566765 0.153824 -0.0111552)
(-0.546097 0.123002 -0.0155249)
(-0.434892 0.105008 -0.0105854)
(-0.324894 0.0735098 -0.0113738)
(-0.295617 0.0562041 -0.00386049)
(-0.285556 0.0433593 0.00564854)
(-0.291451 0.0411426 0.0167593)
(-0.298721 0.0392301 0.0328346)
(-0.317031 0.0342217 0.038507)
(-0.337369 0.0270295 0.0493543)
(-0.366587 0.0127043 0.0504064)
(-0.396601 -0.00586685 0.0441149)
(-0.422677 -0.0275959 0.0362389)
(-0.422846 -0.047546 0.0245665)
(-0.405123 -0.0512653 0.0064214)
(-0.363836 -0.0281056 -0.00254194)
(-0.301092 0.0223715 0.00642924)
(-0.211417 0.100783 -0.00549495)
(-0.101413 0.17415 -0.0318591)
(-0.0110867 0.193945 -0.0136147)
(0.0125092 0.15342 -0.00277391)
(0.00597984 0.332502 -0.00535413)
(0.0770259 0.47762 -0.0286716)
(0.179659 0.553233 -0.0277593)
(0.229963 0.586309 -0.0097383)
(0.225014 0.603179 0.00524773)
(0.180306 0.6223 0.0153261)
(0.130025 0.64035 0.0213668)
(0.0815556 0.654492 0.0384288)
(0.0349569 0.659755 0.0515705)
(-0.0239642 0.648964 0.0569086)
(-0.106669 0.630501 0.0470955)
(-0.201924 0.57554 0.0391608)
(-0.294692 0.513784 0.0368996)
(-0.375602 0.453141 0.0363532)
(-0.449819 0.396205 0.0328047)
(-0.514139 0.33726 0.0240433)
(-0.560832 0.278481 0.0134612)
(-0.586017 0.222326 0.00395862)
(-0.588184 0.177058 -0.00288246)
(-0.569163 0.138902 -0.0102042)
(-0.534435 0.103694 -0.0144759)
(-0.423106 0.0724317 -0.0134685)
(-0.308313 0.0319001 -0.0157603)
(-0.256491 0.0143407 -0.0147103)
(-0.232889 0.00269491 -0.00873121)
(-0.230765 -0.00104863 0.00734379)
(-0.234776 -0.00475564 0.0176554)
(-0.254326 -0.00844363 0.0313719)
(-0.284368 -0.0179921 0.0358488)
(-0.322274 -0.0350058 0.0371819)
(-0.363953 -0.0556981 0.0339861)
(-0.397911 -0.0790116 0.0240545)
(-0.416558 -0.0991844 0.0111284)
(-0.40815 -0.112603 0.00111536)
(-0.371331 -0.100481 -0.0114072)
(-0.312262 -0.0496755 -0.01117)
(-0.222128 0.0424078 0.00280064)
(-0.111498 0.142116 -0.0187384)
(-0.0155769 0.19291 -0.0194112)
(0.0156333 0.168008 -0.0017177)
(0.00797876 0.335009 0.000404278)
(0.0820006 0.4957 -0.0241244)
(0.183937 0.572645 -0.0242933)
(0.238194 0.597514 -0.00508896)
(0.244921 0.606708 0.0126849)
(0.20782 0.621088 0.0279163)
(0.161409 0.639092 0.0362128)
(0.114433 0.650981 0.04233)
(0.0582643 0.650985 0.0524701)
(-0.00569301 0.626468 0.0637459)
(-0.101945 0.585696 0.048566)
(-0.207027 0.525007 0.0432422)
(-0.292851 0.469655 0.0411031)
(-0.373134 0.415084 0.0375427)
(-0.45178 0.364636 0.0337463)
(-0.524922 0.320186 0.0262552)
(-0.576389 0.273969 0.0157386)
(-0.597248 0.225442 0.00641611)
(-0.591979 0.165873 -0.00291033)
(-0.570194 0.110806 -0.011502)
(-0.53335 0.0663051 -0.0169621)
(-0.420035 0.0275902 -0.0133125)
(-0.288911 -0.0138193 -0.0206545)
(-0.22006 -0.0365221 -0.0205436)
(-0.188265 -0.0521893 -0.0126135)
(-0.176722 -0.0544311 -0.000820969)
(-0.173289 -0.0599252 0.0107064)
(-0.187635 -0.0633827 0.0179249)
(-0.215843 -0.0674343 0.0244237)
(-0.258913 -0.0764115 0.0270947)
(-0.307114 -0.0923991 0.0244968)
(-0.356127 -0.116433 0.0185388)
(-0.390445 -0.144067 0.00814621)
(-0.401158 -0.166238 -0.00610312)
(-0.373521 -0.170193 -0.0186734)
(-0.3114 -0.129836 -0.0236941)
(-0.22631 -0.0396931 -0.0192202)
(-0.118235 0.0882301 0.0018442)
(-0.0155203 0.176146 -0.0262373)
(0.0149092 0.176183 -0.00201786)
(0.00904233 0.329975 0.00493764)
(0.0809761 0.500236 -0.021134)
(0.180319 0.579395 -0.0223605)
(0.239497 0.603767 -0.00247194)
(0.260777 0.609693 0.018981)
(0.24152 0.620065 0.0347425)
(0.199576 0.63688 0.0445098)
(0.144278 0.64024 0.0505466)
(0.0771635 0.629314 0.0507202)
(-0.00431649 0.593479 0.0601024)
(-0.107569 0.536077 0.0525766)
(-0.206615 0.485033 0.0470068)
(-0.290842 0.430721 0.0439225)
(-0.3722 0.373672 0.0394791)
(-0.446304 0.322814 0.0333226)
(-0.518191 0.284097 0.0258759)
(-0.576926 0.265128 0.0157548)
(-0.619295 0.196016 0.00154562)
(-0.627898 0.119838 -0.00435821)
(-0.588464 0.0568611 -0.0093623)
(-0.52986 0.0149778 -0.0115339)
(-0.411005 -0.00754407 -0.0209842)
(-0.273776 -0.0415914 -0.0314441)
(-0.189829 -0.0663058 -0.033232)
(-0.139099 -0.0858377 -0.0279796)
(-0.117551 -0.0895333 -0.0194839)
(-0.111511 -0.0872094 -0.00746432)
(-0.117289 -0.0927997 0.00347839)
(-0.142236 -0.0949482 0.0112745)
(-0.184255 -0.1022 0.0171055)
(-0.23787 -0.113943 0.019468)
(-0.296023 -0.138156 0.0172304)
(-0.345729 -0.169522 0.00868666)
(-0.375656 -0.20572 -0.00381085)
(-0.365938 -0.224437 -0.0194286)
(-0.32018 -0.209153 -0.0325589)
(-0.233996 -0.126973 -0.0326376)
(-0.127998 0.0199411 -0.0105831)
(-0.0209392 0.149054 -0.0179607)
(0.0181951 0.183126 -0.00387085)
(0.0107362 0.292878 0.0118099)
(0.0801945 0.471045 -0.0137725)
(0.176962 0.556356 -0.015967)
(0.245069 0.580621 0.00514115)
(0.282509 0.586978 0.0236597)
(0.276543 0.597995 0.0399753)
(0.23364 0.610048 0.0499495)
(0.168176 0.609289 0.0556047)
(0.0839594 0.595836 0.056673)
(-0.0124352 0.555281 0.0587794)
(-0.110881 0.50508 0.0541386)
(-0.204553 0.457839 0.0503465)
(-0.295451 0.401783 0.0467723)
(-0.377938 0.340263 0.0408094)
(-0.447331 0.281298 0.0320211)
(-0.497036 0.240757 0.024265)
(-0.58529 0.212709 0.00900959)
(-0.664507 0.129155 0.00781806)
(-0.650299 0.0573964 0.000908713)
(-0.589877 0.0098272 -0.010558)
(-0.50936 -0.0165003 -0.0264235)
(-0.385436 -0.0275365 -0.0360889)
(-0.252835 -0.0465445 -0.0434985)
(-0.166475 -0.0608554 -0.0468155)
(-0.108892 -0.0795767 -0.0429272)
(-0.067134 -0.0984048 -0.0364707)
(-0.0551696 -0.101377 -0.0282238)
(-0.0608135 -0.0957856 -0.0113075)
(-0.0753931 -0.0930454 0.000530629)
(-0.110168 -0.103692 0.00990042)
(-0.161939 -0.118553 0.0146032)
(-0.22566 -0.148678 0.0149663)
(-0.287412 -0.187927 0.00982055)
(-0.334498 -0.23661 -0.00100732)
(-0.345696 -0.274713 -0.0156707)
(-0.311322 -0.282743 -0.0296264)
(-0.231438 -0.219284 -0.0406298)
(-0.13202 -0.0699659 -0.0303662)
(-0.0232444 0.10441 -0.00663357)
(0.0175787 0.181049 -0.00827076)
(0.00786452 0.274713 0.0125192)
(0.0712201 0.454138 -0.0102393)
(0.166111 0.544506 -0.0150363)
(0.246836 0.573041 0.00916824)
(0.309179 0.577106 0.0207073)
(0.321471 0.584758 0.0415055)
(0.279554 0.591783 0.0494048)
(0.203831 0.58493 0.0541806)
(0.10318 0.569294 0.0536364)
(-0.00573467 0.521267 0.0575858)
(-0.107087 0.478443 0.0503534)
(-0.206981 0.4281 0.0481526)
(-0.305365 0.372396 0.04454)
(-0.394265 0.312725 0.0373621)
(-0.454109 0.256176 0.029356)
(-0.50186 0.205609 0.0165273)
(-0.607522 0.134384 0.00767213)
(-0.693416 0.0704064 0.010178)
(-0.664731 0.0144106 -0.00792148)
(-0.578186 -0.0219302 -0.0247048)
(-0.481889 -0.0359842 -0.0385557)
(-0.35472 -0.0432336 -0.0490689)
(-0.220358 -0.0501793 -0.0545812)
(-0.134659 -0.0504222 -0.0554011)
(-0.0848727 -0.0516633 -0.0515629)
(-0.0412103 -0.0610365 -0.0447154)
(-0.00118863 -0.0745239 -0.0379902)
(0.0115446 -0.0805262 -0.0320487)
(-0.0118425 -0.0851093 -0.0198534)
(-0.0500172 -0.0915276 -0.00435777)
(-0.0990584 -0.105399 0.00564454)
(-0.162709 -0.134431 0.0120487)
(-0.228338 -0.17906 0.0116174)
(-0.286969 -0.243646 0.00434762)
(-0.315176 -0.301912 -0.00955635)
(-0.301801 -0.335762 -0.0243471)
(-0.232319 -0.301148 -0.0397047)
(-0.138696 -0.171019 -0.0382783)
(-0.0272595 0.047882 -0.0050617)
(0.020187 0.177281 -0.00642044)
(0.000109376 0.212216 0.0130301)
(0.0509497 0.40736 -0.00504273)
(0.147024 0.506591 -0.00708846)
(0.238214 0.540366 0.00222743)
(0.320862 0.54675 0.0169694)
(0.35236 0.566036 0.0372999)
(0.309949 0.586604 0.0476953)
(0.225954 0.592941 0.0556169)
(0.103529 0.589885 0.0537183)
(-0.0139516 0.553175 0.0723362)
(-0.109009 0.519773 0.0572162)
(-0.212586 0.469957 0.0529541)
(-0.312811 0.410372 0.0480408)
(-0.399715 0.338203 0.0375811)
(-0.465566 0.260739 0.0222766)
(-0.535074 0.164984 0.00550331)
(-0.63944 0.0757333 0.00306814)
(-0.70463 0.0200603 -0.00564415)
(-0.661827 -0.019862 -0.0269441)
(-0.558909 -0.0470168 -0.0393978)
(-0.449946 -0.0538861 -0.0486276)
(-0.320042 -0.0565333 -0.0580718)
(-0.181137 -0.0570375 -0.0630092)
(-0.0885261 -0.0486629 -0.0602579)
(-0.037333 -0.0390243 -0.0531301)
(-0.00275258 -0.0232825 -0.0453994)
(0.0209516 -0.0165085 -0.0373018)
(0.0363894 -0.0252635 -0.02703)
(0.0383828 -0.033677 -0.0158742)
(0.0172051 -0.0492934 -0.0100078)
(-0.0282121 -0.0839789 -0.00473646)
(-0.0933435 -0.135525 -0.00228343)
(-0.172724 -0.184816 -0.000876355)
(-0.244487 -0.249801 -0.00296328)
(-0.286507 -0.32451 -0.0129884)
(-0.289292 -0.39054 -0.0284949)
(-0.237959 -0.389302 -0.0453044)
(-0.142878 -0.270654 -0.0440026)
(-0.0276483 -0.0454196 -0.0188321)
(0.0142102 0.156654 0.00603769)
(-0.00306475 0.284228 0.0120019)
(0.0404531 0.499248 -0.00856086)
(0.131064 0.60986 -0.0065335)
(0.232877 0.647435 0.000715307)
(0.351347 0.662882 0.0185223)
(0.419036 0.687256 0.0365995)
(0.383761 0.699258 0.0462627)
(0.290664 0.696653 0.0531942)
(0.148515 0.682463 0.0508652)
(0.0107303 0.651869 0.0732701)
(-0.101555 0.610079 0.05473)
(-0.225408 0.546366 0.0445914)
(-0.345432 0.465723 0.0398844)
(-0.454341 0.367687 0.0277918)
(-0.541931 0.250531 0.010301)
(-0.604531 0.131022 -0.00691304)
(-0.67171 0.0364044 -0.0166936)
(-0.709558 -0.011067 -0.0341506)
(-0.653269 -0.0431018 -0.0480156)
(-0.534582 -0.0639288 -0.0541453)
(-0.415637 -0.0609284 -0.0566938)
(-0.284093 -0.0607349 -0.0656761)
(-0.139621 -0.0572864 -0.0695971)
(-0.0435202 -0.0429684 -0.059699)
(0.015596 -0.0247055 -0.0439085)
(0.0604958 -0.00831386 -0.036093)
(0.08293 0.00903049 -0.0294284)
(0.0916198 0.016916 -0.0231525)
(0.077665 0.0162527 -0.0148792)
(0.0358012 -0.00472087 -0.00600917)
(-0.020142 -0.0338733 0.00586098)
(-0.0639157 -0.0928165 0.0125377)
(-0.112049 -0.170083 0.00625252)
(-0.187893 -0.277479 -0.00637656)
(-0.258893 -0.384106 -0.0195467)
(-0.288953 -0.482484 -0.0342605)
(-0.241417 -0.506522 -0.0485143)
(-0.170253 -0.417944 -0.0605015)
(-0.0525049 -0.140943 -0.0224954)
(0.0196843 0.132099 0.0114552)
(-0.0200588 0.348205 0.000582864)
(0.0142579 0.575186 -0.0208751)
(0.114821 0.696939 -0.0225232)
(0.234203 0.754259 -0.020656)
(0.381189 0.780087 -0.00162705)
(0.456468 0.778427 0.0133224)
(0.40683 0.750606 0.0285202)
(0.296729 0.713431 0.043267)
(0.145139 0.678085 0.0476096)
(0.000357853 0.635991 0.0725507)
(-0.12805 0.592893 0.057797)
(-0.269361 0.527591 0.0492105)
(-0.403507 0.450024 0.0454807)
(-0.528361 0.353601 0.0299799)
(-0.617314 0.2404 0.00670687)
(-0.666631 0.125834 -0.0227614)
(-0.701053 0.0257921 -0.0478743)
(-0.705329 -0.0248618 -0.0678123)
(-0.638027 -0.0584868 -0.0710464)
(-0.502607 -0.0826129 -0.0647849)
(-0.374945 -0.0732976 -0.0539119)
(-0.246537 -0.0720985 -0.0674182)
(-0.0947813 -0.0625119 -0.0708495)
(0.012945 -0.0373071 -0.0478699)
(0.0681511 -0.00708897 -0.0335404)
(0.105258 0.0034753 -0.024113)
(0.126199 0.0128423 -0.0133628)
(0.133143 0.0122675 -0.0035361)
(0.121145 0.00622583 0.000828661)
(0.0938518 -0.0105537 0.00384214)
(0.0409712 -0.0211734 0.01203)
(-0.0345009 -0.0579226 0.0174961)
(-0.12168 -0.126514 0.0233427)
(-0.193312 -0.234831 0.0245174)
(-0.240753 -0.387193 0.0146679)
(-0.264114 -0.563833 -0.00481894)
(-0.239877 -0.646646 -0.0272045)
(-0.151794 -0.605906 -0.0377093)
(-0.0444109 -0.324776 -0.0413423)
(0.00433083 0.0688234 0.0295479)
(-0.00875199 0.272559 0.0164119)
(0.0253203 0.507856 -0.012991)
(0.115011 0.639509 -0.0176902)
(0.238028 0.709171 -0.0195213)
(0.376892 0.7356 -0.00332761)
(0.44238 0.708619 0.0144292)
(0.399793 0.664259 0.0353041)
(0.304185 0.623581 0.0539314)
(0.154411 0.59086 0.0622843)
(0.00638514 0.561836 0.0865016)
(-0.131295 0.530556 0.0825526)
(-0.288092 0.486488 0.069943)
(-0.437538 0.43563 0.06332)
(-0.581333 0.367474 0.0432772)
(-0.687479 0.286451 0.00645865)
(-0.737873 0.17613 -0.0349821)
(-0.742273 0.0668116 -0.0827753)
(-0.715542 -0.012222 -0.108745)
(-0.635399 -0.0584094 -0.1015)
(-0.476835 -0.10317 -0.0840877)
(-0.335518 -0.100964 -0.0627961)
(-0.20569 -0.0918424 -0.0738708)
(-0.0382244 -0.0626963 -0.0792909)
(0.0786988 -0.0276265 -0.0423935)
(0.124685 0.00155609 -0.0152262)
(0.151338 0.00787613 -0.00500154)
(0.167242 0.0128645 0.00465794)
(0.168482 0.00733443 0.0118721)
(0.15088 -0.00561305 0.0164576)
(0.124524 -0.0303907 0.0163452)
(0.078674 -0.0549418 0.0197637)
(0.0172895 -0.0903545 0.0306012)
(-0.0539369 -0.136454 0.0387019)
(-0.166875 -0.199593 0.0343304)
(-0.289835 -0.310915 0.0385966)
(-0.323121 -0.499751 0.0348543)
(-0.270805 -0.640388 0.0155261)
(-0.185187 -0.66259 -0.00927808)
(-0.0403539 -0.444448 -0.0181968)
(0.0300512 0.0173111 -0.00119699)
(-0.0021881 0.21432 0.0292989)
(0.0365395 0.433434 -0.000389701)
(0.122018 0.562792 -0.00699)
(0.243178 0.636384 -0.0074993)
(0.368964 0.660593 0.00684202)
(0.422501 0.627122 0.0266523)
(0.388387 0.580249 0.0486645)
(0.299469 0.534665 0.0689248)
(0.160065 0.492526 0.0811424)
(0.01675 0.47667 0.10398)
(-0.127844 0.452036 0.107597)
(-0.28754 0.431323 0.0956592)
(-0.444086 0.412104 0.0905251)
(-0.597629 0.388161 0.0697771)
(-0.728387 0.350813 0.0215095)
(-0.805135 0.288825 -0.0274683)
(-0.80889 0.186884 -0.0861733)
(-0.751997 0.076565 -0.142987)
(-0.653107 -0.00915918 -0.144862)
(-0.472906 -0.0790143 -0.127296)
(-0.29443 -0.102696 -0.0922073)
(-0.140979 -0.0977922 -0.0823912)
(0.0355392 -0.0720535 -0.0795968)
(0.143207 -0.0465634 -0.0169549)
(0.171216 -0.0270314 0.0255916)
(0.185984 -0.0214002 0.0292831)
(0.198393 -0.0156503 0.0322663)