/*--------------------------------*- C++ -*----------------------------------*\
| =========                 |                                                 |
| \\      /  F ield         | OpenFOAM: The Open Source CFD Toolbox           |
|  \\    /   O peration     | Version:  v1806                                 |
|   \\  /    A nd           | Web:      www.OpenFOAM.com                      |
|    \\/     M anipulation  |                                                 |
\*---------------------------------------------------------------------------*/
FoamFile
{
    version     2.0;
    format      ascii;
    class       volVectorField;
    location    "0.127";
    object      U;
}
// * * * * * * * * * * * * * * * * * * * * * * * * * * * * * * * * * * * * * //

dimensions      [0 1 -1 0 0 0 0];


internalField   nonuniform List<vector> 
64000
(
(-0.0130569 -0.0112835 -0.0115761)
(0.0131905 -0.0111933 -0.00931818)
(0.0165866 -0.00212537 -0.000532722)
(0.0207956 -0.00107005 0.00102345)
(0.0209289 -0.000912781 0.00120742)
(0.0210832 -0.0020976 0.00167722)
(0.0211966 -0.00355168 0.00149073)
(0.0190885 -0.00463099 0.0024403)
(0.0191752 -0.00581691 0.00270028)
(0.0148148 -0.00651255 0.00402441)
(0.0112404 -0.0068688 0.00289278)
(0.00347896 -0.00851233 0.00786796)
(-0.00530796 -0.0137219 0.00602653)
(-0.0240756 -0.0194435 0.0046855)
(-0.0420672 -0.0211274 0.00420289)
(-0.0712398 -0.022256 0.00309932)
(-0.0840777 -0.0079926 0.000327047)
(-0.121047 -0.00996971 -0.00319222)
(-0.106181 -0.0146455 0.00240828)
(-0.15707 -0.0322124 -0.0137418)
(-0.109826 -0.0213042 -0.0141093)
(-0.0361641 -0.0235946 -0.0331116)
(-0.0723599 -0.00400426 -0.0170349)
(-0.0690495 -0.00288209 -0.0328904)
(-0.0943718 0.00369071 -0.043404)
(-0.0863089 0.0116314 -0.0542338)
(-0.0780245 0.0225476 -0.0591216)
(-0.042942 0.0345454 -0.0556187)
(-0.0136063 0.04293 -0.0508643)
(0.034793 0.0584277 -0.0327724)
(0.0853163 0.0454608 -0.034911)
(0.12128 0.0384792 -0.0243902)
(0.134409 0.0283814 -0.0109068)
(0.130956 0.0136613 -0.00406432)
(0.112901 0.0053076 0.00286618)
(0.0891942 -0.0028799 0.00515365)
(0.0661124 -0.00620528 0.00871254)
(0.0428073 -0.00572675 0.00932822)
(0.0235068 -0.00380418 0.00825262)
(0.0048556 -0.0024887 0.00631161)
(-0.0103 0.0110927 -0.00823431)
(0.00274263 -0.0110366 -0.00820916)
(0.0158565 -0.00482312 -0.0035723)
(0.0262948 -0.00174928 -0.00192457)
(0.0311553 0.000808188 -0.00234026)
(0.0321435 0.00149586 -0.00212491)
(0.0318397 0.00404608 -0.00375222)
(0.0261528 0.00500643 -0.0029827)
(0.0200797 0.00848134 -0.00748188)
(0.00541483 0.0123816 -0.00370351)
(-0.0141303 0.0173836 -0.00931102)
(-0.0476729 0.0250345 5.75123e-06)
(-0.0869905 0.032543 -0.00497107)
(-0.134098 0.0490714 -0.00781452)
(-0.182952 0.0626413 -0.012543)
(-0.234579 0.071136 -0.0181229)
(-0.291873 0.078486 -0.0437859)
(-0.385449 0.0786161 -0.0604739)
(-0.420079 0.085232 -0.0779792)
(-0.493503 0.0873686 -0.0917034)
(-0.419287 0.118353 -0.0827864)
(-0.316348 0.138906 -0.121143)
(-0.338052 0.189104 -0.124321)
(-0.32374 0.208376 -0.138776)
(-0.322043 0.232445 -0.151346)
(-0.281011 0.253338 -0.159412)
(-0.236845 0.274795 -0.162006)
(-0.166159 0.291971 -0.151518)
(-0.0955022 0.300552 -0.131452)
(-0.0305896 0.308359 -0.108265)
(0.0365462 0.289735 -0.0672754)
(0.109559 0.254901 -0.0459209)
(0.140163 0.203757 -0.0356172)
(0.152243 0.154666 -0.0245408)
(0.143513 0.10585 -0.00990571)
(0.119636 0.0658429 -0.00260501)
(0.0960337 0.0386332 0.0021693)
(0.0677539 0.0242396 0.00297027)
(0.0403541 0.0152961 0.00366961)
(0.0103159 0.00802613 0.00467179)
(-0.00147829 0.00840444 0.000585029)
(0.0102069 -0.0113844 -0.00381715)
(0.0232185 -0.00601401 -0.00438846)
(0.0325129 0.00164675 -0.00523259)
(0.0341792 0.00880976 -0.00687877)
(0.0331963 0.0174882 -0.00793745)
(0.0273916 0.0295518 -0.00951819)
(0.0136085 0.0421216 -0.0100432)
(-0.00227065 0.0622803 -0.00330068)
(-0.0320428 0.0802253 -0.00532655)
(-0.0657132 0.1039 -0.00862137)
(-0.113033 0.132854 -0.0127719)
(-0.16137 0.165051 -0.0177686)
(-0.230669 0.192313 -0.0320622)
(-0.313088 0.212493 -0.0377993)
(-0.402803 0.226039 -0.0448423)
(-0.471853 0.232204 -0.0628732)
(-0.550207 0.246466 -0.0818807)
(-0.576021 0.280706 -0.0995961)
(-0.636092 0.318877 -0.111916)
(-0.543103 0.354164 -0.09371)
(-0.411726 0.397042 -0.122163)
(-0.414111 0.453033 -0.115805)
(-0.388734 0.481572 -0.118406)
(-0.378455 0.512889 -0.123293)
(-0.332366 0.532521 -0.123576)
(-0.28723 0.546578 -0.119568)
(-0.22117 0.548495 -0.104917)
(-0.16073 0.539758 -0.0822464)
(-0.0971927 0.518322 -0.0588834)
(-0.0455211 0.494826 -0.0374782)
(-0.00150924 0.440058 -0.0250176)
(0.0352625 0.367985 -0.0100602)
(0.0622052 0.295095 -0.00689455)
(0.068294 0.220253 -0.00749656)
(0.0687594 0.15815 -0.00817539)
(0.0657221 0.11051 -0.0038337)
(0.0527643 0.0765186 -0.00194298)
(0.0365781 0.050364 0.00127269)
(0.0113501 0.0261684 0.00401335)
(0.000254076 0.00746618 0.00134064)
(0.0129152 -0.0089931 -0.00336091)
(0.025887 0.000271976 -0.00566058)
(0.0303417 0.0142669 -0.00831604)
(0.0294726 0.0353177 -0.00885075)
(0.0257086 0.0568582 -0.010342)
(0.0146352 0.0861809 -0.00703356)
(-0.00370085 0.118159 -0.00590804)
(-0.0312867 0.156549 -0.0107643)
(-0.0734948 0.193069 -0.0130402)
(-0.115479 0.234455 -0.0183263)
(-0.174561 0.27034 -0.0255724)
(-0.248398 0.299528 -0.0294508)
(-0.331905 0.312762 -0.0303786)
(-0.406036 0.331584 -0.0337052)
(-0.476902 0.352186 -0.0394989)
(-0.530758 0.382989 -0.0561388)
(-0.594477 0.41215 -0.0664065)
(-0.607201 0.460368 -0.0769407)
(-0.658834 0.510049 -0.0751345)
(-0.549491 0.537664 -0.0322741)
(-0.39547 0.573398 -0.0434572)
(-0.388042 0.610267 -0.0301357)
(-0.362047 0.61494 -0.025189)
(-0.353123 0.627554 -0.0247115)
(-0.316036 0.625272 -0.021278)
(-0.282433 0.616744 -0.0180121)
(-0.232605 0.594933 -0.0103498)
(-0.189032 0.567874 0.00166393)
(-0.144383 0.533068 0.00901676)
(-0.116281 0.492622 0.0136752)
(-0.0888342 0.448556 0.0121459)
(-0.0651383 0.392288 0.00608203)
(-0.0386097 0.327399 -0.00136069)
(-0.0161777 0.260607 -0.00373517)
(0.00373305 0.198383 -0.00617616)
(0.0204067 0.145826 -0.00487682)
(0.0253336 0.110953 -0.00546056)
(0.026097 0.0756143 -0.000519238)
(0.0100955 0.0382638 0.00345125)
(9.46538e-05 0.00897541 -0.000125732)
(0.0148455 0.0021615 -0.00482805)
(0.0308288 0.0182047 -0.0100097)
(0.0380876 0.0490081 -0.00959448)
(0.0348822 0.083033 -0.0100348)
(0.026831 0.125648 -0.0144495)
(0.0119359 0.175174 -0.0108278)
(-0.0159131 0.227332 -0.00731789)
(-0.0514719 0.28052 -0.00888149)
(-0.100045 0.325753 -0.0113629)
(-0.153183 0.361838 -0.0149205)
(-0.223231 0.380403 -0.0175597)
(-0.293148 0.399189 -0.0186215)
(-0.360155 0.419271 -0.0217206)
(-0.41791 0.446694 -0.0232617)
(-0.478111 0.476371 -0.0260338)
(-0.518869 0.50708 -0.0313795)
(-0.564876 0.537638 -0.0298841)
(-0.55629 0.599332 -0.0234748)
(-0.593772 0.649026 -0.0269608)
(-0.483583 0.673627 0.0196156)
(-0.32261 0.687422 0.0198027)
(-0.314513 0.692893 0.0380845)
(-0.297839 0.66055 0.0395474)
(-0.302668 0.645027 0.038762)
(-0.284862 0.616542 0.0424182)
(-0.271115 0.585024 0.0454981)
(-0.239722 0.545487 0.0507793)
(-0.216273 0.503745 0.0441201)
(-0.190451 0.462488 0.0350429)
(-0.171558 0.417334 0.0245121)
(-0.159466 0.384106 0.0154639)
(-0.150989 0.347845 0.00897727)
(-0.129754 0.316777 -0.00183888)
(-0.106243 0.272823 -0.00983965)
(-0.0735539 0.206066 -0.0114792)
(-0.029741 0.158739 -0.00995456)
(-0.00301852 0.128231 -0.00938513)
(0.0113236 0.0937511 -0.00227302)
(0.00808228 0.0455912 0.00321281)
(0.00218036 0.0155881 -0.000977432)
(0.0199063 0.0210303 -0.00841796)
(0.0432529 0.0509965 -0.00988645)
(0.049053 0.100823 -0.0113217)
(0.0447253 0.153589 -0.0170702)
(0.0393613 0.212315 -0.0170302)
(0.0203546 0.281661 -0.0120307)
(-0.0106993 0.334132 -0.00502443)
(-0.0582305 0.378123 -0.00742425)
(-0.122847 0.407683 -0.00990346)
(-0.188208 0.431861 -0.0125459)
(-0.249796 0.451853 -0.0124735)
(-0.301 0.477532 -0.0111115)
(-0.352313 0.503004 -0.00796405)
(-0.390626 0.528718 -0.00278718)
(-0.43289 0.554234 0.001294)
(-0.453358 0.58375 0.00406391)
(-0.467818 0.615394 0.00795078)
(-0.449827 0.668465 0.00484909)
(-0.478057 0.710535 0.0117159)
(-0.371702 0.721715 0.0545621)
(-0.232846 0.688737 0.0583568)
(-0.243975 0.662923 0.0766925)
(-0.247935 0.598052 0.0824875)
(-0.265217 0.561881 0.0824479)
(-0.26683 0.518547 0.0800429)
(-0.26861 0.478994 0.07694)
(-0.257266 0.436578 0.0688412)
(-0.245486 0.391451 0.0642081)
(-0.233387 0.352101 0.0441367)
(-0.224973 0.310421 0.0313587)
(-0.210379 0.277983 0.0179467)
(-0.196972 0.25459 0.00449613)
(-0.182253 0.243521 -0.00360706)
(-0.183423 0.22775 -0.0157929)
(-0.14763 0.185254 -0.0123932)
(-0.0722725 0.151509 -0.0111574)
(-0.0247261 0.127387 -0.00941355)
(0.00289068 0.0976539 -0.00392686)
(0.00513796 0.0454919 0.00464815)
(0.00410759 0.0227886 -0.00242616)
(0.0312792 0.0393513 -0.0110815)
(0.0671696 0.0789173 -0.0131377)
(0.0815118 0.136926 -0.0158163)
(0.0731623 0.20058 -0.0230425)
(0.0674091 0.271587 -0.0199217)
(0.0352933 0.334631 -0.0131568)
(-0.0236702 0.366252 -0.00201597)
(-0.0806822 0.400432 -0.00702415)
(-0.13738 0.429088 -0.00765028)
(-0.181302 0.462266 -0.00777314)
(-0.226099 0.496252 -0.0056534)
(-0.264161 0.528406 -0.0018405)
(-0.301453 0.555705 0.00225795)
(-0.32857 0.582927 0.0081709)
(-0.353112 0.60341 0.0133934)
(-0.355275 0.629295 0.0222142)
(-0.36454 0.641748 0.0254069)
(-0.33066 0.659547 0.0284485)
(-0.345753 0.673515 0.01937)
(-0.296042 0.67871 0.0527463)
(-0.181925 0.577913 0.061301)
(-0.192404 0.544908 0.0749228)
(-0.211375 0.476625 0.0819991)
(-0.239444 0.444239 0.0805683)
(-0.258372 0.407023 0.0787815)
(-0.275725 0.378012 0.0749061)
(-0.281371 0.34559 0.0651721)
(-0.283717 0.312404 0.0496017)
(-0.28373 0.278891 0.0318002)
(-0.281875 0.247317 0.0162607)
(-0.271098 0.219686 0.00231652)
(-0.254481 0.19926 -0.00557255)
(-0.230289 0.186504 -0.0103635)
(-0.227118 0.189592 -0.0162058)
(-0.193472 0.1795 -0.0178737)
(-0.106895 0.15475 -0.016882)
(-0.0392654 0.133497 -0.0135314)
(-0.00161673 0.103375 -0.00695473)
(0.00560375 0.0485443 0.00326724)
(0.00563571 0.0329072 -0.00464104)
(0.0382398 0.059536 -0.0153189)
(0.0847563 0.105851 -0.0152938)
(0.102796 0.162363 -0.0133288)
(0.102554 0.221772 -0.015473)
(0.086682 0.296141 -0.0122566)
(0.0293777 0.325397 -0.00234587)
(-0.0223741 0.361397 0.000431526)
(-0.0608463 0.405993 -0.00246102)
(-0.107437 0.448191 -0.00122153)
(-0.145872 0.484745 -0.000730789)
(-0.182894 0.514662 0.0045221)
(-0.210874 0.538779 0.0101262)
(-0.234073 0.556973 0.017323)
(-0.247743 0.573227 0.0214488)
(-0.262791 0.579077 0.0270887)
(-0.262875 0.584693 0.0312081)
(-0.267058 0.570334 0.031692)
(-0.246012 0.57038 0.0291198)
(-0.250666 0.530849 0.0158392)
(-0.249073 0.546136 0.029486)
(-0.168784 0.428772 0.0444335)
(-0.160107 0.403483 0.0506148)
(-0.193343 0.355429 0.0624182)
(-0.226961 0.335365 0.0638411)
(-0.259795 0.311531 0.0653861)
(-0.286752 0.294035 0.0655549)
(-0.305523 0.271326 0.0553168)
(-0.319891 0.249342 0.0420104)
(-0.328291 0.222012 0.0170732)
(-0.330469 0.194393 0.00691359)
(-0.317945 0.172274 -0.00409186)
(-0.301521 0.158887 -0.0134346)
(-0.270011 0.150879 -0.0148018)
(-0.263286 0.157937 -0.0204837)
(-0.234178 0.177014 -0.0178674)
(-0.142317 0.155644 -0.0176305)
(-0.0572728 0.138312 -0.0123543)
(-0.00524163 0.106262 -0.006805)
(0.00573431 0.0484273 0.00430296)
(0.00401755 0.0496436 -0.00681621)
(0.0456978 0.0901553 -0.0180408)
(0.104426 0.145649 -0.019136)
(0.129205 0.200386 -0.0134913)
(0.135564 0.263142 -0.0157081)
(0.0986956 0.315236 -0.0114293)
(0.0394824 0.344148 -0.00223567)
(0.00613597 0.388688 0.00420397)
(-0.0299089 0.423764 0.00366089)
(-0.0706048 0.46378 0.0060523)
(-0.103385 0.489584 0.0097942)
(-0.131771 0.506377 0.0140199)
(-0.150183 0.518041 0.0224202)
(-0.165613 0.519509 0.0272977)
(-0.176855 0.512886 0.0300519)
(-0.187588 0.494824 0.0311816)
(-0.191005 0.476839 0.0307353)
(-0.196507 0.443814 0.0269889)
(-0.198733 0.424709 0.0202873)
(-0.195599 0.37278 0.0086648)
(-0.225644 0.383945 0.00187013)
(-0.182388 0.307214 0.0230813)
(-0.146226 0.286496 0.026375)
(-0.185808 0.265356 0.0405407)
(-0.222475 0.256447 0.0461828)
(-0.263795 0.243787 0.0523574)
(-0.298725 0.233723 0.0560195)
(-0.326779 0.218307 0.0481538)
(-0.35125 0.201053 0.0302515)
(-0.368272 0.174436 0.0120547)
(-0.370835 0.15395 0.00183195)
(-0.358925 0.134373 -0.000965205)
(-0.342568 0.120982 -0.00702679)
(-0.309175 0.122138 -0.0171206)
(-0.280038 0.1273 -0.0243571)
(-0.257052 0.163541 -0.0263734)
(-0.176608 0.157489 -0.020325)
(-0.0720371 0.145237 -0.0189386)
(-0.00987984 0.111556 -0.00902832)
(0.00702937 0.0512678 0.00255803)
(0.0035537 0.0679577 -0.00828309)
(0.0531219 0.12945 -0.0222961)
(0.122827 0.189412 -0.0225919)
(0.156239 0.242794 -0.0157393)
(0.155927 0.299622 -0.016129)
(0.114921 0.328638 -0.011164)
(0.0636386 0.371491 -0.00183474)
(0.0302919 0.407504 0.00831375)
(0.00373525 0.434374 0.0138746)
(-0.0263342 0.455958 0.0181013)
(-0.0591615 0.474967 0.0176351)
(-0.0837435 0.481533 0.0278045)
(-0.0998231 0.475624 0.0330501)
(-0.115011 0.454125 0.0376281)
(-0.126216 0.425835 0.037846)
(-0.138774 0.388863 0.0352091)
(-0.149112 0.353813 0.0298863)
(-0.157707 0.312441 0.0234691)
(-0.172431 0.285261 0.0140236)
(-0.167837 0.247825 0.00655081)
(-0.205096 0.246245 -0.0102061)
(-0.184208 0.220276 0.00863053)
(-0.13687 0.209221 0.0120365)
(-0.176011 0.203836 0.0262306)
(-0.213396 0.198788 0.0361842)
(-0.260242 0.19291 0.0462153)
(-0.298707 0.18417 0.0524451)
(-0.33506 0.173748 0.0427728)
(-0.367138 0.154478 0.0318778)
(-0.383957 0.133307 0.022205)
(-0.393224 0.11025 0.02014)
(-0.388296 0.0896227 0.0209619)
(-0.369544 0.0719355 0.0165166)
(-0.338407 0.0725526 0.00945006)
(-0.305382 0.0824537 -0.00616634)
(-0.277864 0.124214 -0.0225859)
(-0.201994 0.145874 -0.020273)
(-0.0937893 0.139744 -0.0151585)
(-0.0158114 0.113987 -0.00807085)
(0.00790011 0.0514429 0.00379869)
(0.00471671 0.0911472 -0.00978659)
(0.0621182 0.174823 -0.0280913)
(0.141512 0.237289 -0.02776)
(0.181192 0.28865 -0.0178043)
(0.173822 0.327703 -0.0125942)
(0.135836 0.354466 -0.0120684)
(0.0976644 0.392026 -0.00177064)
(0.0633495 0.421621 0.00815855)
(0.0349213 0.442229 0.0195948)
(0.0073932 0.450364 0.0259246)
(-0.0163328 0.450129 0.0314577)
(-0.0406103 0.4426 0.0378421)
(-0.0612943 0.423567 0.041621)
(-0.0791788 0.38836 0.0432616)
(-0.094251 0.345268 0.0419587)
(-0.109063 0.298912 0.0364524)
(-0.124244 0.25969 0.0277993)
(-0.136178 0.222443 0.0190133)
(-0.155466 0.197488 0.00869718)
(-0.1541 0.176926 0.00107068)
(-0.188686 0.168956 -0.0150505)
(-0.170343 0.166363 0.000969822)
(-0.123322 0.163554 0.00483611)
(-0.161567 0.159202 0.0185663)
(-0.196524 0.154107 0.0312958)
(-0.245228 0.146309 0.042455)
(-0.287885 0.14098 0.0481911)
(-0.327056 0.127653 0.0425149)
(-0.363202 0.111658 0.0404861)
(-0.39149 0.0882642 0.0430152)
(-0.409274 0.0606714 0.0434616)
(-0.414142 0.0417812 0.0280181)
(-0.400539 0.0301125 0.0270204)
(-0.366666 0.0272469 0.0167586)
(-0.316549 0.0395193 0.00588395)
(-0.284868 0.0755199 -0.0129143)
(-0.220993 0.118555 -0.022588)
(-0.107218 0.130681 -0.0165525)
(-0.0181733 0.110195 -0.00866701)
(0.00781836 0.0506256 0.0028501)
(0.00597037 0.112797 -0.00974519)
(0.0683492 0.216073 -0.0310055)
(0.157072 0.282367 -0.0299292)
(0.196092 0.323936 -0.0157456)
(0.188638 0.349969 -0.00982996)
(0.160369 0.377433 -0.00836392)
(0.127398 0.402542 0.000798036)
(0.0944943 0.423069 0.0101192)
(0.0653422 0.434 0.0166694)
(0.0375804 0.434173 0.0283726)
(0.0135527 0.423379 0.0390666)
(-0.00950824 0.398661 0.0453904)
(-0.0326358 0.366333 0.0461993)
(-0.0557956 0.323164 0.0454118)
(-0.0749159 0.276513 0.0407767)
(-0.0908049 0.228234 0.0344696)
(-0.10671 0.190871 0.023768)
(-0.119319 0.160691 0.0145661)
(-0.13812 0.141234 0.00479789)
(-0.139564 0.132949 -0.00210376)
(-0.169636 0.124063 -0.0153959)
(-0.146862 0.131093 -0.00149984)
(-0.103674 0.126912 0.00135693)
(-0.137028 0.118526 0.0148955)
(-0.169955 0.109931 0.0281921)
(-0.21612 0.101124 0.0392691)
(-0.257404 0.0940653 0.043888)
(-0.300221 0.0801737 0.0480601)
(-0.341889 0.0615782 0.0568439)
(-0.377686 0.0394764 0.0616924)
(-0.39971 0.0156775 0.0624822)
(-0.40733 -0.0128736 0.059034)
(-0.410328 -0.0330754 0.0344085)
(-0.391393 -0.0352028 0.0277768)
(-0.352747 -0.0245205 0.0239277)
(-0.309257 0.0168884 0.0149758)
(-0.234468 0.0765891 -0.0146862)
(-0.126572 0.113146 -0.018733)
(-0.0255217 0.105254 -0.008221)
(0.0103097 0.0496673 0.00246141)
(0.00628315 0.133454 -0.00754507)
(0.0742711 0.256826 -0.0316004)
(0.165795 0.324192 -0.0305777)
(0.207352 0.353755 -0.0139454)
(0.208049 0.374319 -0.00337264)
(0.183535 0.396547 0.00102787)
(0.153292 0.411297 0.00368309)
(0.122794 0.420643 0.012646)
(0.0937069 0.423044 0.0208544)
(0.0657363 0.416022 0.0298335)
(0.0383656 0.395461 0.0402318)
(0.0120193 0.361497 0.0475379)
(-0.0122522 0.316467 0.048305)
(-0.0387561 0.268567 0.0434602)
(-0.0617183 0.220146 0.037225)
(-0.0781044 0.175074 0.029704)
(-0.0929841 0.139812 0.0190975)
(-0.10414 0.115102 0.0101994)
(-0.118011 0.0990647 0.00247544)
(-0.120206 0.096477 -0.00408282)
(-0.141708 0.0863293 -0.0124187)
(-0.112824 0.100584 -0.00205858)
(-0.0774049 0.0887999 0.00013697)
(-0.106475 0.0760091 0.0121493)
(-0.132895 0.06199 0.0242286)
(-0.175949 0.0530217 0.0336193)
(-0.216731 0.0442667 0.0457029)
(-0.261263 0.0322256 0.0593425)
(-0.304039 0.0146543 0.0684245)
(-0.345456 -0.011438 0.07193)
(-0.389851 -0.0450253 0.064458)
(-0.426933 -0.0826231 0.0513791)
(-0.431521 -0.117907 0.0366875)
(-0.415238 -0.133838 0.011123)
(-0.367346 -0.121145 0.00127775)
(-0.318364 -0.0742859 0.00265882)
(-0.249942 0.0154342 0.0101715)
(-0.13668 0.0701283 -0.0188594)
(-0.0296401 0.0871265 -0.00611118)
(0.00941889 0.041751 0.00280392)
(0.006847 0.143948 -0.00535062)
(0.0741347 0.284146 -0.0321232)
(0.165607 0.352646 -0.0318323)
(0.212294 0.376986 -0.0138445)
(0.224188 0.389707 0.00196337)
(0.205212 0.402228 0.00975831)
(0.172526 0.410257 0.0144257)
(0.143453 0.411906 0.016846)
(0.116891 0.407958 0.0224893)
(0.0872497 0.391946 0.0310089)
(0.0568601 0.364911 0.0378671)
(0.025178 0.324257 0.0458375)
(-0.00230094 0.274408 0.045789)
(-0.0284518 0.22131 0.0385546)
(-0.0536037 0.174102 0.0312981)
(-0.0694287 0.132253 0.023723)
(-0.0801988 0.100613 0.0143078)
(-0.0871942 0.07772 0.00685619)
(-0.0937018 0.0628132 0.00114302)
(-0.0942613 0.0610298 -0.00444699)
(-0.10246 0.0492498 -0.00813053)
(-0.0715005 0.0704337 -0.000996987)
(-0.0491427 0.0474086 -0.000388823)
(-0.0706687 0.0313919 0.0104294)
(-0.0914292 0.0169352 0.0198825)
(-0.124661 0.00554293 0.0321252)
(-0.160128 -0.00472406 0.0472864)
(-0.203474 -0.0218845 0.0577118)
(-0.256813 -0.0436209 0.0644393)
(-0.315776 -0.0774169 0.063565)
(-0.372822 -0.114398 0.0554934)
(-0.414817 -0.151155 0.0449066)
(-0.437547 -0.184486 0.0289099)
(-0.428002 -0.209984 0.0156456)
(-0.390862 -0.208023 -0.00799466)
(-0.32524 -0.172405 -0.00653466)
(-0.259108 -0.0766533 -0.00583603)
(-0.160916 0.035595 -0.00449495)
(-0.0335697 0.0678816 -0.0163738)
(0.0123021 0.0386701 0.00291616)
(0.00651643 0.153271 -0.00107959)
(0.0735235 0.306028 -0.0304283)
(0.164031 0.378181 -0.0329571)
(0.216165 0.399925 -0.0136327)
(0.236663 0.404506 0.00675802)
(0.222487 0.404662 0.0200998)
(0.193219 0.406444 0.0270769)
(0.164733 0.404348 0.0293412)
(0.135004 0.39443 0.0306479)
(0.103969 0.372102 0.0304559)
(0.0710975 0.339466 0.0345659)
(0.0357936 0.294807 0.0375987)
(0.00442482 0.243307 0.040785)
(-0.0224154 0.187191 0.031816)
(-0.0454359 0.138766 0.0238834)
(-0.0601107 0.0987001 0.0178342)
(-0.0669931 0.0671423 0.00961971)
(-0.0699803 0.0442516 0.00403383)
(-0.0667624 0.0288336 0.000285158)
(-0.0642072 0.0219739 -0.00457735)
(-0.0536517 0.0140236 -0.00316348)
(-0.0278243 0.0225102 -0.00329147)
(-0.0229704 -0.00453892 -0.000491796)
(-0.0320859 -0.0193557 0.00624796)
(-0.0460818 -0.0356688 0.013121)
(-0.0757337 -0.0489082 0.0286082)
(-0.111415 -0.0680924 0.0429682)
(-0.157483 -0.0891291 0.0516145)
(-0.210803 -0.115265 0.0558542)
(-0.270895 -0.142852 0.0536476)
(-0.330898 -0.174764 0.0490977)
(-0.386984 -0.212873 0.0391816)
(-0.424569 -0.252214 0.0264001)
(-0.434145 -0.284717 0.0092953)
(-0.4033 -0.299106 -0.00896948)
(-0.34107 -0.26692 -0.0206639)
(-0.249184 -0.190737 -0.0149751)
(-0.158433 -0.0397803 0.000673231)
(-0.0531858 0.0371315 -0.00837621)
(0.0105285 0.0268651 0.000415999)
(0.00373517 0.13871 -0.00106648)
(0.0658698 0.303565 -0.0304231)
(0.156231 0.381912 -0.0325565)
(0.213155 0.405242 -0.0132076)
(0.241571 0.40574 0.00990799)
(0.236933 0.401096 0.0232448)
(0.21265 0.398467 0.030938)
(0.182083 0.388304 0.0351219)
(0.149482 0.371478 0.0359169)
(0.115235 0.34493 0.033511)
(0.0792819 0.307025 0.0297027)
(0.0405043 0.260784 0.025847)
(0.00505405 0.209103 0.0265922)
(-0.0231502 0.152564 0.0205821)
(-0.0425817 0.105569 0.0140737)
(-0.053935 0.0676839 0.00970323)
(-0.0560321 0.0373925 0.00508934)
(-0.0505144 0.0145528 0.00113968)
(-0.0412432 -0.00271611 -0.00151116)
(-0.0291383 -0.0196519 -0.004076)
(-0.0140712 -0.0278333 -0.00305072)
(0.00218948 -0.0436639 -0.00209555)
(0.00783166 -0.0643762 0.000547276)
(0.00387052 -0.0811171 0.00490573)
(-0.00876618 -0.0998329 0.0137734)
(-0.0355161 -0.11795 0.0241154)
(-0.0676393 -0.133596 0.0338184)
(-0.105769 -0.154815 0.041472)
(-0.155122 -0.175117 0.0446224)
(-0.212342 -0.200192 0.0465883)
(-0.276159 -0.230786 0.0439189)
(-0.338876 -0.269853 0.0385659)
(-0.389351 -0.313417 0.0269395)
(-0.417179 -0.357065 0.0116695)
(-0.405213 -0.381703 -0.00790892)
(-0.356293 -0.370913 -0.0235559)
(-0.262669 -0.293911 -0.0270497)
(-0.165271 -0.156839 -0.0140621)
(-0.0563782 -0.00288026 -0.01298)
(0.00798002 0.014215 0.00227245)
(0.00585459 0.132739 0.00630584)
(0.0663554 0.304864 -0.0217582)
(0.153506 0.388335 -0.026075)
(0.215991 0.409337 -0.0055757)
(0.254062 0.405483 0.0177496)
(0.257716 0.39469 0.0267705)
(0.233523 0.384983 0.0350959)
(0.199379 0.368815 0.0375344)
(0.162924 0.349607 0.0370615)
(0.124437 0.320389 0.0324522)
(0.0856068 0.283439 0.0253201)
(0.0460368 0.236773 0.0188875)
(0.00664726 0.182287 0.0145933)
(-0.0209297 0.126753 0.00957779)
(-0.035047 0.0813557 0.00401978)
(-0.0423588 0.0446007 0.00180698)
(-0.0406181 0.0144099 -0.00114422)
(-0.0321025 -0.0129786 -0.00422749)
(-0.0202934 -0.0396433 -0.00611883)
(-0.00411301 -0.0642857 -0.00508674)
(0.0110857 -0.0824135 -0.00236615)
(0.0272343 -0.10504 -0.00216128)
(0.0350902 -0.124167 0.000225434)
(0.031219 -0.143071 0.00385888)
(0.02079 -0.161069 0.00939428)
(0.00260987 -0.177207 0.0161856)
(-0.0255084 -0.18961 0.0216419)
(-0.0633585 -0.20518 0.0289437)
(-0.10588 -0.222517 0.0350423)
(-0.158405 -0.247253 0.0380651)
(-0.219659 -0.275364 0.0398649)
(-0.284095 -0.314179 0.0370832)
(-0.341983 -0.361078 0.0294256)
(-0.382145 -0.415521 0.0153993)
(-0.387776 -0.456013 -0.00351451)
(-0.353101 -0.462704 -0.0209575)
(-0.270687 -0.403827 -0.0314886)
(-0.157691 -0.265764 -0.0240418)
(-0.0494314 -0.0779094 0.000268523)
(-0.000562728 -0.00450566 0.0019494)
(-0.00329918 0.104701 -0.00176262)
(0.0469468 0.282996 -0.0267138)
(0.134669 0.375224 -0.0326691)
(0.206109 0.402281 -0.0101909)
(0.25756 0.399817 0.00674225)
(0.273335 0.383186 0.0218273)
(0.255833 0.365555 0.0295815)
(0.220475 0.34291 0.030446)
(0.180281 0.317822 0.0268689)
(0.137337 0.287599 0.0209357)
(0.0934499 0.250547 0.0136235)
(0.0436436 0.200851 0.00889198)
(9.6764e-05 0.14736 0.00716867)
(-0.0239736 0.0977436 -0.000725445)
(-0.0324101 0.0545856 -0.00763855)
(-0.0357818 0.0172964 -0.0100836)
(-0.0323373 -0.0130457 -0.0110936)
(-0.0234562 -0.0469876 -0.0112151)
(-0.00998956 -0.0783937 -0.00742798)
(0.0124798 -0.107309 -0.0026433)
(0.0309499 -0.132863 -0.00464866)
(0.0473953 -0.157333 -0.00299946)
(0.0572555 -0.178589 0.000163324)
(0.0560812 -0.197633 0.00266924)
(0.0499202 -0.216307 0.00501563)
(0.0352112 -0.231334 0.00821246)
(0.0134366 -0.245587 0.0119072)
(-0.016832 -0.258695 0.016101)
(-0.05757 -0.271951 0.0209255)
(-0.104849 -0.290026 0.0274702)
(-0.159315 -0.314202 0.031699)
(-0.222724 -0.3543 0.0321816)
(-0.286838 -0.404707 0.0276293)
(-0.338516 -0.467516 0.0173026)
(-0.357245 -0.523666 -0.00122641)
(-0.342816 -0.558198 -0.0212653)
(-0.279432 -0.517398 -0.0376298)
(-0.174872 -0.384276 -0.0342643)
(-0.0494321 -0.176026 -0.0101936)
(0.00977421 -0.0360348 -0.0010813)
(-0.0049445 0.125646 0.0071025)
(0.0380602 0.315155 -0.00947585)
(0.122005 0.412925 -0.0168253)
(0.198437 0.435756 -0.00144161)
(0.258609 0.425578 0.00679332)
(0.281067 0.395346 0.0216511)
(0.266775 0.371706 0.028954)
(0.230144 0.355716 0.0304376)
(0.189474 0.342808 0.0266002)
(0.145342 0.319006 0.0202013)
(0.0929642 0.281202 0.0122077)
(0.040627 0.228972 0.00995809)
(0.00164224 0.177077 0.00727825)
(-0.0193821 0.126831 3.05105e-05)
(-0.0266363 0.0791722 -0.0101468)
(-0.0257702 0.0306812 -0.0153691)
(-0.02379 -0.0132222 -0.0182329)
(-0.0171623 -0.0555589 -0.0145335)
(0.00042732 -0.0943005 -0.00809104)
(0.0229018 -0.129467 -0.00514589)
(0.0421222 -0.161257 -0.00647436)
(0.0615343 -0.191678 -0.00360782)
(0.0742918 -0.219377 -0.00205025)
(0.073763 -0.244174 -0.000762634)
(0.0700992 -0.262028 0.001974)
(0.0612883 -0.277854 0.00317824)
(0.0434923 -0.291467 0.00450275)
(0.0189938 -0.306365 0.00695988)
(-0.0111702 -0.318724 0.0102309)
(-0.0514562 -0.337249 0.0123025)
(-0.105796 -0.356064 0.0164972)
(-0.167595 -0.392937 0.0201581)
(-0.231059 -0.443926 0.0206459)
(-0.288871 -0.519986 0.0124787)
(-0.328723 -0.601584 -0.00401534)
(-0.326936 -0.66815 -0.0217398)
(-0.269916 -0.662534 -0.0444186)
(-0.177721 -0.526216 -0.0483236)
(-0.0519447 -0.299549 -0.0205698)
(0.00956337 -0.0881569 0.00363501)
(-0.0221042 0.203912 -0.0107285)
(0.00732406 0.435878 -0.0241899)
(0.089512 0.543552 -0.0289361)
(0.166002 0.57593 -0.0137413)
(0.232715 0.565005 -0.00218442)
(0.274777 0.527987 0.0162836)
(0.290059 0.492348 0.0249148)
(0.272603 0.466819 0.0230614)
(0.226798 0.439849 0.0138521)
(0.161062 0.398313 0.00570358)
(0.0923455 0.345426 -0.000484664)
(0.0314779 0.289194 -0.00157983)
(-0.00899713 0.229528 -0.00282191)
(-0.0303776 0.171093 -0.00922822)
(-0.0407523 0.110464 -0.0209411)
(-0.0443383 0.0504531 -0.0279119)
(-0.0370091 -0.00459594 -0.0297415)
(-0.0242609 -0.0505199 -0.0252204)
(-0.00502942 -0.096354 -0.0166722)
(0.0231935 -0.135538 -0.0157165)
(0.0446132 -0.168427 -0.0135823)
(0.0634192 -0.201399 -0.00803903)
(0.0780721 -0.232624 -0.00381513)
(0.0870961 -0.261338 -0.00140728)
(0.0920582 -0.280544 -0.0011181)
(0.0857429 -0.298165 -0.0016311)
(0.0718397 -0.312638 -0.000675392)
(0.0539629 -0.331043 0.000166152)
(0.0258826 -0.351293 0.002004)
(-0.00526614 -0.381807 0.00535286)
(-0.048974 -0.40909 0.00590035)
(-0.109893 -0.448874 0.00655294)
(-0.182278 -0.497043 0.00680784)
(-0.256778 -0.578495 0.00517707)
(-0.308892 -0.669846 -0.00351794)
(-0.327852 -0.762576 -0.0193041)
(-0.269273 -0.789545 -0.0353527)
(-0.190088 -0.695614 -0.056818)
(-0.0619781 -0.407176 -0.0200566)
(0.0211686 -0.140254 0.00668728)
(-0.00830827 0.208621 0.00851134)
(0.0164489 0.450486 -0.0272933)
(0.0836285 0.572394 -0.0360641)
(0.16308 0.62546 -0.0310419)
(0.228948 0.627162 -0.0229261)
(0.273769 0.601235 -0.00637681)
(0.290887 0.558543 0.00501098)
(0.263614 0.509203 0.00713288)
(0.206648 0.454955 0.00354596)
(0.137777 0.399428 0.000872691)
(0.0717625 0.341777 -0.00265165)
(0.0141253 0.287194 -0.00357849)
(-0.0264866 0.230144 -0.00519068)
(-0.0494649 0.171245 -0.00950188)
(-0.060238 0.109273 -0.0206384)
(-0.0563114 0.0523091 -0.0283728)
(-0.0430618 -0.000812774 -0.0334918)
(-0.029593 -0.0497091 -0.0346307)
(-0.00787519 -0.0945518 -0.0292055)
(0.0248323 -0.136534 -0.0273839)
(0.0480215 -0.168286 -0.0242329)
(0.0674235 -0.197161 -0.0181902)
(0.083519 -0.222295 -0.0108088)
(0.095314 -0.246477 -0.00636606)
(0.104502 -0.261932 -0.0031093)
(0.103989 -0.272903 -0.000643187)
(0.0914299 -0.278339 0.000109505)
(0.070816 -0.292725 0.00148433)
(0.043701 -0.310821 0.00489391)
(0.018928 -0.346611 0.0090045)
(-0.0142058 -0.39291 0.0103715)
(-0.0597747 -0.464613 0.00843421)
(-0.125023 -0.549573 0.00502457)
(-0.196775 -0.663881 0.00159391)
(-0.262551 -0.779732 -0.00365532)
(-0.29915 -0.898804 -0.0137598)
(-0.269968 -0.949574 -0.0302173)
(-0.172088 -0.897305 -0.0456133)
(-0.0620144 -0.597149 -0.0498408)
(-0.00483443 -0.212227 0.0230093)
(-0.0072363 0.210211 0.00888953)
(0.0149187 0.428818 -0.0224422)
(0.0718606 0.553008 -0.0336559)
(0.142415 0.608465 -0.0309652)
(0.205593 0.612288 -0.0191974)
(0.253149 0.589007 -0.00647594)
(0.27393 0.546826 0.0063175)
(0.251197 0.496098 0.0101519)
(0.197519 0.445847 0.00897449)
(0.127278 0.39634 0.00708403)
(0.058751 0.343466 0.00353169)
(0.000409104 0.292418 -4.16066e-05)
(-0.041999 0.242133 -0.00405852)
(-0.0668783 0.186388 -0.00947456)
(-0.0753609 0.128577 -0.0217277)
(-0.0708818 0.0743413 -0.032508)
(-0.0574216 0.0181553 -0.0400737)
(-0.0392678 -0.0340907 -0.0446783)
(-0.0164501 -0.077912 -0.0452404)
(0.0216517 -0.123774 -0.0392554)
(0.0534769 -0.158459 -0.0344528)
(0.0770961 -0.185513 -0.0288032)
(0.095679 -0.205538 -0.0238223)
(0.114638 -0.221847 -0.018509)
(0.134178 -0.231996 -0.0132149)
(0.140761 -0.237441 -0.0063426)
(0.128528 -0.236516 -0.00419863)
(0.106173 -0.240561 -0.00257523)
(0.0694128 -0.245193 0.00147417)
(0.0302256 -0.266463 0.00934039)
(-0.0192026 -0.299312 0.0154729)
(-0.0785161 -0.365471 0.0199355)
(-0.146578 -0.45173 0.0237819)
(-0.207055 -0.582187 0.0244113)
(-0.248933 -0.741016 0.0178979)
(-0.275695 -0.915586 0.0091403)
(-0.25564 -1.03444 -0.00800638)
(-0.174023 -1.05047 -0.0335399)
(-0.0343522 -0.826297 -0.0460133)
(0.0286449 -0.370517 -0.00689435)
(-0.00398543 0.189675 0.00715899)
(0.0198214 0.38813 -0.0158285)
(0.0726171 0.517934 -0.0267158)
(0.137317 0.57934 -0.0249769)
(0.197215 0.594943 -0.0127503)
(0.242632 0.576732 -0.00139051)
(0.261186 0.538717 0.0103271)
(0.236257 0.490023 0.0152105)
(0.181726 0.438735 0.0145121)
(0.111369 0.388737 0.0124597)
(0.044143 0.339918 0.00868577)
(-0.00899629 0.294557 0.00338324)
(-0.0516183 0.253685 -0.00378128)
(-0.0799582 0.204786 -0.0105009)
(-0.0882847 0.151195 -0.021091)
(-0.082909 0.0947343 -0.033529)
(-0.0689604 0.042189 -0.0427358)
(-0.0459886 -0.0116552 -0.0510011)
(-0.0217278 -0.0534603 -0.0558532)
(0.0163364 -0.0977369 -0.0506122)
(0.0552596 -0.136318 -0.0441318)