/*--------------------------------*- C++ -*----------------------------------*\
| =========                 |                                                 |
| \\      /  F ield         | OpenFOAM: The Open Source CFD Toolbox           |
|  \\    /   O peration     | Version:  v1806                                 |
|   \\  /    A nd           | Web:      www.OpenFOAM.com                      |
|    \\/     M anipulation  |                                                 |
\*---------------------------------------------------------------------------*/
FoamFile
{
    version     2.0;
    format      ascii;
    class       vectorField;
    location    "0.038";
    object      currentcloudofpoints;
}
// * * * * * * * * * * * * * * * * * * * * * * * * * * * * * * * * * * * * * //


2409
(
(0.739756 1.2643 0.999933)
(0.850696 0.799557 0.999812)
(1.19642 1.35738 0.999626)
(0.999449 1.05734 0.731937)
(1.00063 1.05722 1.26866)
(1.06811 1.08491 1.00004)
(0.577242 1.37293 0.999665)
(0.726451 0.641531 1.00058)
(1.27797 1.54006 0.999948)
(0.982462 1.05158 0.553158)
(0.979769 1.05411 1.44347)
(1.18824 1.34077 1.08803)
(1.16082 1.29812 1.16605)
(1.11545 1.23461 1.22694)
(1.05906 1.1489 1.26661)
(1.19279 1.3502 1.04388)
(1.17566 1.31962 1.12739)
(1.13865 1.26703 1.19625)
(1.08679 1.19386 1.24784)
(1.03036 1.10113 1.27061)
(0.860151 0.811545 1.05781)
(0.882672 0.851732 1.11665)
(0.915163 0.911627 1.17948)
(0.956744 0.980227 1.2309)
(0.855808 0.80568 1.02833)
(0.873028 0.831897 1.08474)
(0.899144 0.882189 1.14731)
(0.937667 0.946844 1.20342)
(0.977643 1.01845 1.2495)
(1.18779 1.34095 0.911535)
(1.16022 1.29772 0.834213)
(1.11482 1.23326 0.774322)
(1.0592 1.14766 0.734372)
(1.19261 1.35019 0.955424)
(1.17509 1.31974 0.872571)
(1.13792 1.26614 0.804431)
(1.08671 1.1922 0.753566)
(1.02952 1.10081 0.730302)
(0.957264 0.979929 0.769161)
(0.915612 0.910948 0.820563)
(0.880197 0.850734 0.882071)
(0.860677 0.812762 0.941522)
(0.977689 1.01847 0.750891)
(0.937967 0.946128 0.796104)
(0.898342 0.881221 0.852582)
(0.871266 0.831842 0.913824)
(0.857387 0.807195 0.971323)
(0.934525 1.10613 1.22986)
(0.860857 1.15956 1.18042)
(0.798036 1.20714 1.11848)
(0.754874 1.2465 1.06881)
(0.969405 1.07981 1.24445)
(0.89852 1.1322 1.20655)
(0.829449 1.18411 1.1459)
(0.775699 1.22551 1.09124)
(0.745305 1.2564 1.03542)
(0.756064 1.24662 0.931709)
(0.79709 1.20784 0.880482)
(0.860001 1.15934 0.818869)
(0.932632 1.10581 0.771684)
(0.74649 1.25583 0.965013)
(0.775697 1.22666 0.907837)
(0.828792 1.18335 0.854372)
(0.896817 1.13259 0.792723)
(0.967958 1.07951 0.757306)
(0.776244 0.890694 0.999612)
(0.718277 0.987267 0.999387)
(0.685899 1.0834 0.999998)
(0.693724 1.18155 0.999826)
(0.817754 0.846634 1.00007)
(0.749425 0.940202 0.999057)
(0.704681 1.03502 0.999773)
(0.687831 1.13178 0.999958)
(0.716247 1.22269 0.999833)
(0.807924 1.32944 1.00019)
(0.896009 1.37388 1.00091)
(0.998456 1.39172 1.00015)
(1.10205 1.38897 0.999557)
(0.773436 1.2953 0.99995)
(0.851396 1.3514 1.00064)
(0.947683 1.38237 1.00061)
(1.05106 1.38927 0.999831)
(1.15084 1.377 0.999447)
(0.736602 0.652504 1.09724)
(0.754308 0.674892 1.19023)
(0.783904 0.706492 1.26287)
(0.81719 0.752911 1.32108)
(0.855648 0.811808 1.36616)
(0.890789 0.883879 1.40792)
(0.936401 0.966824 1.43398)
(0.729788 0.646459 1.04909)
(0.746906 0.663536 1.14451)
(0.76869 0.691579 1.22814)
(0.802008 0.728783 1.29202)
(0.837102 0.782448 1.34322)
(0.874209 0.846649 1.38603)
(0.914583 0.925541 1.41977)
(0.960002 1.01037 1.43989)
(1.02935 1.13616 1.44128)
(1.08945 1.21412 1.4174)
(1.14856 1.29208 1.38003)
(1.19552 1.36784 1.33005)
(1.23698 1.43402 1.26026)
(1.25945 1.49095 1.17943)
(1.2732 1.52816 1.09218)
(1.00298 1.09611 1.44187)
(1.05959 1.1747 1.42924)
(1.12156 1.25169 1.39769)
(1.17217 1.33005 1.35522)
(1.21782 1.40002 1.29605)
(1.24925 1.46246 1.2195)
(1.26693 1.51017 1.13624)
(1.27602 1.53472 1.04631)
(0.735898 0.652135 0.901712)
(0.754947 0.67511 0.811083)
(0.784554 0.70518 0.735749)
(0.814319 0.751489 0.676421)
(0.85264 0.809359 0.630909)
(0.889681 0.883361 0.592134)
(0.93577 0.966415 0.566542)
(0.731597 0.645919 0.951235)
(0.745002 0.664428 0.855447)
(0.77096 0.689844 0.771904)
(0.800415 0.728578 0.705971)
(0.834345 0.780038 0.654363)
(0.871532 0.845125 0.611536)
(0.914179 0.925196 0.581389)
(0.960277 1.00886 0.558814)
(1.27312 1.52827 0.907804)
(1.25962 1.49128 0.820503)
(1.2369 1.4335 0.739955)
(1.19564 1.36727 0.670119)
(1.14883 1.29251 0.618913)
(1.08925 1.21462 0.58284)
(1.03146 1.13549 0.558433)
(1.27591 1.53475 0.953613)
(1.26697 1.51045 0.863762)
(1.24937 1.4625 0.780471)
(1.21774 1.3992 0.704386)
(1.17244 1.33001 0.644252)
(1.12163 1.25228 0.601654)
(1.05977 1.17487 0.571568)
(1.00667 1.09422 0.555436)
(0.584406 1.36644 1.0898)
(0.608502 1.34694 1.18063)
(0.650063 1.31319 1.26524)
(0.708131 1.26775 1.3286)
(0.770172 1.21894 1.36692)
(0.835866 1.16821 1.40039)
(0.910368 1.11648 1.41882)
(0.580535 1.37051 1.04531)
(0.597413 1.35699 1.13693)
(0.629819 1.33052 1.22551)
(0.680916 1.28986 1.29941)
(0.739713 1.2433 1.34881)
(0.804512 1.19342 1.38033)
(0.870339 1.1423 1.40942)
(0.948388 1.08751 1.43358)
(0.58627 1.36537 0.909714)
(0.60514 1.34879 0.820573)
(0.65338 1.3122 0.735354)
(0.705359 1.269 0.668585)
(0.77179 1.21861 0.63472)
(0.836819 1.1683 0.604559)
(0.912975 1.11456 0.579098)
(0.583662 1.36867 0.95386)
(0.59544 1.35796 0.863666)
(0.630097 1.33083 0.775056)
(0.680893 1.29016 0.700147)
(0.739155 1.24369 0.649934)
(0.806198 1.19342 0.622548)
(0.87128 1.1414 0.59412)
(0.951775 1.08493 0.560879)
(0.645138 0.711262 1.00053)
(0.585125 0.786233 1.00006)
(0.542209 0.872433 0.999639)
(0.514312 0.967777 0.99987)
(0.506309 1.06886 1.00001)
(0.511581 1.1721 0.999923)
(0.534087 1.27488 0.999612)
(0.684518 0.678178 1.00058)
(0.614216 0.748624 1.00038)
(0.563579 0.828749 0.999692)
(0.527491 0.918977 0.999692)
(0.51002 1.01722 0.999933)
(0.509483 1.11957 0.999972)
(0.522339 1.2227 0.999793)
(0.555664 1.32378 0.999606)
(0.638136 1.45791 0.999673)
(0.71434 1.52375 0.999875)
(0.806422 1.57079 1.00036)
(0.908646 1.59508 1.00058)
(1.00536 1.60299 1.00026)
(1.09459 1.59467 0.999881)
(1.18333 1.57269 0.999957)
(0.60803 1.41641 0.999772)
(0.677089 1.49173 0.999731)
(0.76099 1.54833 1.00009)
(0.859452 1.58341 1.00052)
(0.958714 1.59853 1.00047)
(1.05058 1.59725 0.999977)
(1.13789 1.58283 0.999902)
(1.23008 1.555 0.999953)
(0.980743 1.0585 0.649959)
(0.986748 1.05478 0.596691)
(0.987271 1.05686 0.692542)
(0.983087 1.05705 1.35074)
(0.990266 1.05555 1.30907)
(0.984678 1.0562 1.40076)
(0.774784 0.7295 0.999055)
(0.809958 0.76518 0.99916)
(0.749718 0.675935 1.00017)
(1.24216 1.44035 0.999809)
(1.21747 1.39733 0.999743)
(1.26428 1.48854 0.999847)
(0.808165 1.4713 1.25153)
(0.812681 1.52913 1.17062)
(0.94686 1.30816 1.39693)
(1.00412 1.57029 1.15701)
(0.670268 1.47836 1.07811)
(0.998499 1.23254 1.42886)
(1.176 1.54993 1.13514)
(1.09134 1.53863 1.21473)
(0.714028 1.47454 1.17095)
(0.907447 1.53242 1.21413)
(0.88792 1.5716 1.11387)
(0.723685 1.38478 1.28091)
(0.997399 1.50116 1.27321)
(1.08638 1.57517 1.12975)
(0.908138 1.45263 1.30694)
(1.13005 1.58238 1.06491)
(1.04191 1.31192 1.40863)
(1.05046 1.59219 1.07328)
(0.634403 1.42433 1.1236)
(0.90995 1.20657 1.40915)
(0.848199 1.28837 1.37809)
(0.992458 1.40515 1.35653)
(1.16801 1.49079 1.23828)
(0.774408 1.54445 1.08268)
(0.657676 1.39789 1.204)
(0.904302 1.37114 1.36016)
(1.15014 1.42867 1.30759)
(1.08179 1.46656 1.30196)
(0.616561 1.42824 1.05738)
(0.967157 1.154 1.4334)
(1.20823 1.56003 1.0592)
(0.824486 1.39109 1.32752)
(0.772763 1.31269 1.34582)
(1.09899 1.38286 1.35755)
(0.843232 1.57676 1.05001)
(0.972323 1.59221 1.06995)
(1.01109 1.18559 1.43673)
(1.03898 1.22416 1.42814)
(0.972628 1.10493 1.43937)
(0.995377 1.14639 1.44111)
(0.982803 1.19354 1.43025)
(1.06392 1.26297 1.41387)
(1.0932 1.29887 1.39288)
(1.0211 1.27293 1.41986)
(1.12317 1.33652 1.36765)
(1.14633 1.37325 1.34168)
(1.07102 1.34626 1.38329)
(1.1726 1.39738 1.31786)
(1.19422 1.42929 1.28263)
(1.12408 1.40556 1.33286)
(1.20334 1.46063 1.24787)
(1.21232 1.48891 1.20756)
(1.16194 1.45844 1.27317)
(1.21709 1.51966 1.15796)
(1.2235 1.53723 1.11368)
(1.1714 1.52171 1.18825)
(1.24053 1.54401 1.0757)
(1.24352 1.54945 1.02981)
(1.19167 1.55484 1.09722)
(1.19586 1.56624 1.02961)
(0.694258 1.50167 1.03908)
(0.654515 1.46908 1.0396)
(0.643452 1.45399 1.06839)
(0.627605 1.44368 1.02856)
(0.597152 1.40135 1.02975)
(0.791984 1.55797 1.0417)
(0.746042 1.53463 1.04193)
(0.724035 1.512 1.08185)
(0.877327 1.58571 1.02572)
(0.825389 1.57411 1.02535)
(0.809502 1.56133 1.06652)
(0.988902 1.59708 1.03532)
(0.941887 1.59295 1.03521)
(0.911813 1.58319 1.06068)
(1.0723 1.59262 1.03696)
(1.02821 1.59614 1.03655)
(1.0121 1.59138 1.07198)
(1.15633 1.57698 1.03306)
(1.11216 1.58811 1.03208)
(1.08987 1.58634 1.06941)
(1.16793 1.57016 1.06272)
(0.76186 1.47393 1.21318)
(0.764115 1.50223 1.17248)
(0.810652 1.50128 1.21178)
(0.861165 1.53123 1.19329)
(0.858599 1.50248 1.23409)
(0.746261 1.51075 1.12734)
(0.794607 1.53751 1.12639)
(0.851121 1.55189 1.14237)
(0.898555 1.55342 1.16387)
(0.832389 1.55941 1.09882)
(0.976941 1.27219 1.4099)
(0.997267 1.31296 1.40332)
(0.958644 1.22142 1.41516)
(0.928833 1.25804 1.40146)
(0.971228 1.35601 1.37852)
(1.01898 1.35943 1.38321)
(0.897123 1.2983 1.38587)
(0.878589 1.24779 1.39341)
(0.92596 1.33881 1.37838)
(0.876534 1.32982 1.36939)
(0.949077 1.38798 1.3578)
(0.988495 1.58008 1.11328)
(1.02729 1.58012 1.11551)
(0.948867 1.5689 1.13684)
(0.932294 1.5803 1.09285)
(1.04518 1.51847 1.24595)
(1.00113 1.53763 1.21696)
(1.04727 1.55505 1.18634)
(1.04553 1.572 1.1441)
(1.0889 1.558 1.17221)
(1.06806 1.58321 1.10122)
(0.95808 1.55059 1.18703)
(0.95351 1.51653 1.24479)
(0.674612 1.45012 1.1489)
(0.652512 1.45213 1.10095)
(0.693441 1.47682 1.12525)
(0.625991 1.42636 1.09091)
(0.609801 1.39569 1.10806)
(0.621909 1.38617 1.15355)
(0.60049 1.39779 1.07399)
(0.633322 1.37244 1.19346)
(0.654265 1.35557 1.23746)
(0.646639 1.41178 1.16486)
(0.687172 1.34902 1.27461)
(0.717212 1.32527 1.308)
(0.690802 1.39209 1.24458)
(0.771673 1.26551 1.35686)
(0.740415 1.29048 1.33729)
(0.7503 1.34794 1.31671)
(0.809119 1.25383 1.37095)
(0.841848 1.22869 1.38633)
(0.811197 1.29998 1.36121)
(0.871128 1.18746 1.40531)
(0.909565 1.16204 1.41247)
(0.940278 1.13616 1.42414)
(0.941663 1.18166 1.4172)
(0.766508 1.42799 1.26852)
(0.817409 1.43112 1.29259)
(0.775336 1.38811 1.30556)
(0.867046 1.42144 1.31808)
(0.860142 1.46155 1.28097)
(0.720015 1.43098 1.22972)
(0.908083 1.49319 1.26273)
(1.15228 1.56615 1.1003)
(0.798862 1.35174 1.33741)
(0.837698 1.33826 1.35421)
(0.865578 1.38079 1.34386)
(0.907038 1.41129 1.33592)
(0.86668 1.57382 1.08173)
(1.13026 1.562 1.13398)
(1.1332 1.54309 1.17639)
(1.12901 1.51447 1.22944)
(1.10762 1.57764 1.09775)
(1.08745 1.50163 1.26029)
(1.03971 1.48391 1.28877)
(1.1264 1.47659 1.27195)
(0.686189 1.43698 1.18906)
(0.95345 1.47695 1.29057)
(0.951594 1.42807 1.33244)
(0.996047 1.45257 1.3177)
(1.03741 1.43623 1.33064)
(1.04736 1.39538 1.35916)
(1.09142 1.42443 1.3312)
(1.1162 1.44693 1.30622)
(0.638288 0.997543 1.30824)
(0.538175 1.08333 1.17113)
(0.594081 0.847461 1.16664)
(0.634754 0.787851 1.17717)
(0.568684 1.12997 1.23006)
(0.693642 1.06265 1.34675)
(0.68416 0.71477 1.14704)
(0.563709 1.29143 1.13782)
(0.846483 0.982103 1.40316)
(0.574986 1.04345 1.24039)
(0.65262 0.83624 1.25861)
(0.536586 1.18692 1.14212)
(0.632273 1.1097 1.30584)
(0.786848 0.902976 1.37067)
(0.696027 1.17333 1.34135)
(0.627651 1.2009 1.28782)
(0.697585 0.75322 1.22927)
(0.833232 1.07748 1.4032)
(0.613222 0.770213 1.09343)
(0.516429 1.06151 1.09354)
(0.764583 1.01388 1.37697)
(0.580946 1.24142 1.21308)
(0.763115 1.12709 1.37393)
(0.52601 0.965067 1.0864)
(0.71563 0.869197 1.32316)
(0.737871 0.78698 1.29578)
(0.590823 0.934319 1.23033)
(0.655236 0.911375 1.30217)
(0.778696 0.823228 1.33952)
(0.703216 0.957302 1.34202)
(0.552172 0.928663 1.14157)
(0.543824 1.00205 1.16356)
(0.675081 0.694533 1.06915)
(0.905432 1.04114 1.42321)
(0.552495 0.873584 1.07199)
(0.535841 1.26602 1.0642)
(0.514661 1.15019 1.06192)
(0.647549 0.743251 1.12044)
(0.624355 0.779312 1.13624)
(0.658404 0.751642 1.16265)
(0.68027 0.705361 1.10839)
(0.642669 0.732782 1.08189)
(0.665338 0.771013 1.20389)
(0.690691 0.733982 1.18989)
(0.71117 0.684726 1.12292)
(0.719713 0.695431 1.16912)
(0.706236 0.674399 1.08341)
(0.725974 0.714936 1.21072)
(0.872864 0.933646 1.40631)
(0.897645 0.975921 1.41781)
(0.823023 0.858477 1.36859)
(0.842986 0.892875 1.38754)
(0.816362 0.94095 1.38666)
(0.923089 1.00443 1.43014)
(0.945316 1.04865 1.43668)
(0.877242 1.01157 1.41241)
(0.537702 1.1345 1.15835)
(0.554315 1.15861 1.18957)
(0.554657 1.10654 1.20213)
(0.560188 1.21429 1.1803)
(0.576263 1.18507 1.22412)
(0.60115 1.12001 1.27076)
(0.598359 1.16571 1.26081)
(0.631178 1.15482 1.2973)
(0.572584 1.08618 1.236)
(0.603452 1.0764 1.27535)
(0.604358 1.22154 1.25346)
(0.558731 1.06322 1.20737)
(0.614512 0.817621 1.17206)
(0.60392 0.808969 1.13101)
(0.582106 0.822208 1.08291)
(0.572639 0.860699 1.12053)
(0.59836 0.778581 1.04716)
(0.627012 0.740778 1.04778)
(0.658753 0.702681 1.03511)
(0.568422 0.830338 1.03629)
(0.551043 1.23882 1.14265)
(0.573419 1.26653 1.17771)
(0.53687 1.22625 1.10505)
(0.550356 1.279 1.1023)
(0.526137 1.11627 1.11892)
(0.525762 1.16832 1.10324)
(0.525085 1.20718 1.0644)
(0.66511 1.14145 1.32365)
(0.663353 1.18672 1.31586)
(0.695789 1.11803 1.34238)
(0.664299 1.08614 1.32682)
(0.636018 1.05361 1.30642)
(0.667088 1.03003 1.3277)
(0.606797 1.02039 1.27734)
(0.818612 0.817807 1.35307)
(0.783646 0.863605 1.35489)
(0.774484 0.957668 1.37288)
(0.804131 0.997487 1.38848)
(0.744573 0.930892 1.35493)
(0.734063 0.985359 1.35957)
(0.751692 0.886883 1.34623)
(0.746492 0.847163 1.33024)
(0.709438 0.913273 1.33159)
(0.702621 1.2202 1.33525)
(0.669224 1.23412 1.30822)
(0.733463 1.1964 1.35355)
(0.767108 1.17287 1.36917)
(0.730757 1.14996 1.35647)
(0.72906 1.09478 1.35925)
(0.640831 1.25608 1.27896)
(0.616477 1.27711 1.24182)
(0.870875 1.09677 1.41123)
(0.83486 1.12326 1.40219)
(0.799659 1.10232 1.38829)
(0.800766 1.14759 1.38598)
(0.907847 1.07913 1.42046)
(0.867667 1.05931 1.41062)
(0.838405 1.02977 1.40138)
(0.799883 1.04521 1.38852)
(0.764067 1.07102 1.3742)
(0.624437 0.8432 1.21356)
(0.644518 0.813395 1.21879)
(0.59386 0.89128 1.19917)
(0.621499 0.885136 1.24524)
(0.551906 0.900626 1.10734)
(0.572882 0.887909 1.15448)
(0.573228 0.932192 1.18696)
(0.675099 0.795995 1.24373)
(0.586867 1.31903 1.16101)
(0.574503 1.32877 1.1149)
(0.560749 1.31613 1.0794)
(0.556073 1.31957 1.03217)
(0.596171 1.29355 1.20017)
(0.697994 1.00966 1.34399)
(0.67159 0.977566 1.32512)
(0.613028 0.965118 1.27323)
(0.583627 0.988416 1.23625)
(0.646802 0.954269 1.30503)
(0.621468 0.922782 1.26958)
(0.680326 0.934616 1.32127)
(0.699515 0.668432 1.03504)
(0.54746 0.87294 1.03587)
(0.532479 0.91876 1.03601)
(0.511544 1.06446 1.04663)
(0.515728 1.01312 1.04683)
(0.520191 0.965681 1.04286)
(0.539136 0.918369 1.07947)
(0.521054 1.01224 1.09067)
(0.513043 1.16092 1.031)
(0.510726 1.10869 1.03098)
(0.516034 1.10511 1.07836)
(0.534703 1.27056 1.03215)
(0.523488 1.21823 1.03283)
(0.740796 0.731819 1.24696)
(0.778735 0.770104 1.30876)
(0.762239 0.747597 1.28002)
(0.718329 0.771039 1.26374)
(0.798895 0.788266 1.33089)
(0.759134 0.805016 1.31743)
(0.729624 1.03863 1.36113)
(0.693994 0.812904 1.2776)
(0.541405 1.04213 1.16817)
(0.561724 1.02276 1.20335)
(0.569566 0.968144 1.1978)
(0.726586 0.828462 1.30926)
(0.683572 0.851817 1.29287)
(0.653582 0.873153 1.28177)
(0.685593 0.890397 1.31206)
(0.528859 1.03118 1.1304)
(0.526876 1.0722 1.13353)
(0.538749 0.946622 1.11461)
(0.534569 0.983286 1.12634)
(0.548421 0.964984 1.15298)
(0.630847 0.892926 0.731722)
(0.602483 1.1014 0.72415)
(0.630654 0.840217 0.77471)
(0.630882 0.790384 0.830482)
(0.531795 1.14192 0.852098)
(0.742772 1.02531 0.631697)
(0.548315 1.23991 0.851493)
(0.824423 1.07211 0.600412)
(0.59571 0.918226 0.773571)
(0.556622 1.07435 0.7927)
(0.739729 0.868711 0.666495)
(0.631845 1.20042 0.710365)
(0.667085 1.05271 0.668513)
(0.59902 0.990422 0.733932)
(0.708001 0.967847 0.657479)
(0.566296 1.16797 0.783249)
(0.747501 1.11874 0.631057)
(0.689695 0.754519 0.781139)
(0.845818 0.981985 0.595799)
(0.678466 0.715875 0.862433)
(0.558212 0.84104 0.938567)
(0.519646 1.04896 0.893933)
(0.533567 0.930317 0.911868)
(0.611182 0.763949 0.916846)
(0.593582 1.25408 0.773953)
(0.55603 0.973085 0.821701)
(0.694865 0.817356 0.713276)
(0.580098 0.863205 0.848445)
(0.686837 1.16527 0.658698)
(0.518349 1.18189 0.93324)
(0.78528 0.918459 0.627062)
(0.673716 0.693894 0.935413)
(0.553298 1.30011 0.915409)
(0.660299 0.928703 0.687568)
(0.642811 1.13008 0.686468)
(0.903404 1.03943 0.575816)
(0.59759 0.953878 0.753002)
(0.615211 0.941346 0.732297)
(0.613934 0.905545 0.752351)
(0.631563 0.866623 0.753076)
(0.613745 0.879089 0.77397)
(0.644015 0.910206 0.707792)
(0.628942 0.959507 0.709394)
(0.662462 0.82848 0.742381)
(0.662054 0.855029 0.72163)
(0.676459 0.872975 0.700247)
(0.793177 1.00311 0.615604)
(0.784448 1.04783 0.617278)
(0.833483 1.02711 0.599049)
(0.744743 1.07192 0.631896)
(0.787258 1.09538 0.617647)
(0.814814 0.948721 0.610422)
(0.764062 0.972011 0.630889)
(0.72586 0.996513 0.644655)
(0.68748 1.01039 0.663984)
(0.705565 1.03924 0.650906)
(0.706895 1.08563 0.649561)
(0.747536 0.94407 0.644585)
(0.908101 1.07712 0.577157)
(0.946117 1.04631 0.560016)
(0.921623 1.00345 0.569852)
(0.558005 1.2044 0.814442)
(0.549537 1.15541 0.815355)
(0.540684 1.19047 0.849722)
(0.580852 1.21061 0.777101)
(0.570843 1.24777 0.810422)
(0.534041 1.21056 0.890285)
(0.525451 1.16174 0.891627)
(0.600094 1.30122 0.794407)
(0.577896 1.294 0.831891)
(0.550873 1.27004 0.882264)
(0.579849 1.32507 0.864571)
(0.53564 1.24029 0.922054)
(0.86148 1.05568 0.590645)
(0.875229 1.01088 0.587401)
(0.79337 1.14326 0.620265)
(0.830452 1.12035 0.603299)
(0.866176 1.09329 0.591207)
(0.5761 0.945883 0.796996)
(0.578968 0.981907 0.776272)
(0.606779 0.852314 0.81056)
(0.589297 0.891506 0.809909)
(0.568488 0.918022 0.834424)
(0.871801 0.933197 0.593681)
(0.896669 0.975798 0.582705)
(0.839823 0.899898 0.609615)
(0.601503 1.04553 0.728491)
(0.579259 1.03211 0.761864)
(0.579366 1.08758 0.756642)
(0.557447 1.02275 0.806055)
(0.562215 1.12053 0.786642)
(0.544951 1.10818 0.820052)
(0.585871 1.13408 0.751895)
(0.538425 1.06226 0.84043)
(0.526492 1.09462 0.871668)
(0.53775 1.01066 0.855475)
(0.685096 0.948815 0.673635)
(0.724191 0.91837 0.663593)
(0.700501 0.899484 0.678004)
(0.764189 0.893851 0.648552)
(0.796888 0.840714 0.650633)
(0.777105 0.812364 0.672359)
(0.716964 0.843756 0.688636)
(0.755448 0.788405 0.697077)
(0.819871 0.865221 0.629559)
(0.618523 1.15052 0.716762)
(0.600806 1.18404 0.745091)
(0.615277 1.22663 0.740266)
(0.668871 1.23481 0.689095)
(0.644983 1.25524 0.720737)
(0.624883 1.28269 0.753185)
(0.659145 1.1831 0.682653)
(0.696837 1.21677 0.663337)
(0.637708 1.16499 0.697672)
(0.623757 1.11543 0.704814)
(0.664737 1.14776 0.671953)
(0.635633 1.07729 0.695101)
(0.633368 1.0218 0.699917)
(0.665555 0.991095 0.680262)
(0.718472 1.14191 0.645635)
(0.677136 1.10874 0.664176)
(0.655394 1.09132 0.677389)
(0.76007 1.16869 0.634337)
(0.729649 1.19223 0.647157)
(0.659428 0.797744 0.777575)
(0.659947 0.773046 0.805201)
(0.631178 0.815779 0.802041)
(0.653978 0.753418 0.845962)
(0.684326 0.736494 0.820922)
(0.723186 0.716082 0.79548)
(0.73767 0.731349 0.757102)
(0.716949 0.697193 0.836549)
(0.693399 0.785801 0.746073)
(0.74027 0.764373 0.724811)
(0.519791 1.11395 0.911965)
(0.605777 0.826533 0.839313)
(0.644059 0.740516 0.889457)
(0.621094 0.77783 0.872688)
(0.595039 0.81332 0.881923)
(0.569903 1.33271 0.911568)
(0.566584 1.33592 0.957252)
(0.596529 0.773349 0.95819)
(0.626945 0.737157 0.958226)
(0.658691 0.70213 0.96797)
(0.699783 0.668179 0.967917)
(0.64121 0.729355 0.925828)
(0.549395 0.85584 0.968966)
(0.570662 0.812258 0.968697)
(0.583651 0.80161 0.927451)
(0.52213 0.947598 0.955857)
(0.535586 0.899388 0.955465)
(0.545655 0.884961 0.925065)
(0.51585 1.00685 0.946976)
(0.512157 1.05783 0.947029)
(0.526568 0.988672 0.902049)
(0.514823 1.17675 0.966438)
(0.512533 1.12413 0.966426)
(0.526051 1.22749 0.965801)
(0.544512 1.28718 0.956581)
(0.705246 0.673702 0.9183)
(0.70707 0.684891 0.881395)
(0.675888 0.704681 0.898213)
(0.568794 0.852007 0.89285)
(0.557018 0.895919 0.879378)
(0.545665 0.952269 0.865322)
(0.849614 1.53618 0.821361)
(0.784092 1.48085 0.775378)
(1.09657 1.56577 0.845786)
(0.882707 1.36955 0.640356)
(0.648269 1.44114 0.884008)
(1.18629 1.54685 0.866622)
(0.994131 1.24193 0.570751)
(0.987446 1.35541 0.617481)
(0.738162 1.51037 0.869008)
(0.872423 1.46843 0.720994)
(0.777041 1.3983 0.696947)
(0.842592 1.57085 0.920579)
(0.97386 1.46119 0.684792)
(0.921281 1.29396 0.604607)
(0.953421 1.53036 0.774363)
(0.908469 1.20869 0.591207)
(1.1595 1.51226 0.784311)
(0.855267 1.26583 0.616207)
(0.674856 1.48456 0.939214)
(1.1348 1.58095 0.934035)
(1.03107 1.59356 0.915324)
(1.0573 1.51837 0.749112)
(1.06597 1.32189 0.60238)
(0.691725 1.41775 0.778563)
(0.747149 1.53834 0.945374)
(1.01569 1.56593 0.829004)
(1.11599 1.38016 0.647382)
(1.05429 1.42435 0.657896)
(0.621895 1.42754 0.943578)
(1.21116 1.559 0.940888)
(0.969408 1.15412 0.563792)
(0.934512 1.57231 0.86375)
(0.945823 1.59448 0.939406)
(1.141 1.44191 0.699368)
(0.703542 1.35359 0.713431)
(0.795391 1.30759 0.643112)
(1.19731 1.56562 0.970405)
(1.24496 1.54904 0.970193)
(1.24197 1.54361 0.924342)
(0.794748 1.52414 0.843105)
(0.761173 1.49722 0.821351)
(0.817426 1.50927 0.797393)
(0.829994 1.47439 0.746673)
(0.86247 1.50348 0.769454)
(0.847166 1.5534 0.871162)
(0.792863 1.54162 0.89341)
(0.913945 1.49878 0.746447)
(0.903822 1.533 0.796818)
(0.893537 1.55396 0.841782)
(0.890395 1.57026 0.891573)
(0.944586 1.55308 0.819023)
(0.657883 1.47137 0.96879)
(0.695632 1.50499 0.969448)
(0.600497 1.4006 0.970523)
(0.630875 1.443 0.971682)
(0.648916 1.45653 0.940882)
(0.731403 1.5315 0.97245)
(0.777645 1.55544 0.972583)
(0.711429 1.51231 0.941905)
(0.825601 1.57176 0.96041)
(0.876952 1.58367 0.960177)
(0.795912 1.55587 0.932371)
(0.976324 1.59905 0.969575)
(0.927787 1.59506 0.969934)
(0.89635 1.582 0.929304)
(1.01847 1.59775 0.957899)
(1.06288 1.59228 0.956876)
(0.989538 1.59334 0.927196)
(1.1146 1.58712 0.967379)
(1.15873 1.5761 0.966484)
(1.08267 1.58527 0.923725)
(1.17177 1.56887 0.936823)
(0.975909 1.10347 0.555572)
(0.943779 1.13483 0.572306)
(0.997652 1.14608 0.556279)
(0.626739 1.39598 0.850325)
(0.617959 1.40367 0.894983)
(0.6361 1.43421 0.913069)
(0.604845 1.3965 0.926084)
(0.649389 1.3834 0.796948)
(0.669201 1.43132 0.829914)
(0.707391 1.49796 0.903572)
(0.662715 1.46304 0.911459)
(0.693625 1.47676 0.874839)
(0.715496 1.46592 0.821828)
(1.14036 1.55507 0.854386)
(1.12696 1.53984 0.813166)
(1.17237 1.52976 0.82511)
(1.20806 1.49937 0.803399)
(1.2227 1.51866 0.843254)
(1.15975 1.56419 0.899742)
(1.19849 1.55306 0.903702)
(1.11517 1.57281 0.889352)
(1.22906 1.53624 0.887368)
(0.67277 1.36519 0.753841)
(0.705245 1.31071 0.689176)
(0.678941 1.33277 0.723671)
(0.698436 1.38588 0.743937)
(0.784147 1.26286 0.639583)
(0.750346 1.28878 0.655403)
(0.74993 1.33091 0.673145)
(0.8465 1.21749 0.611539)
(0.814608 1.24216 0.628195)
(0.827 1.28601 0.631644)
(0.911061 1.16166 0.587822)
(0.871273 1.18863 0.5983)
(0.880813 1.23757 0.603352)
(0.942719 1.18244 0.581691)
(0.980414 1.40612 0.64993)
(0.92888 1.41445 0.66131)
(0.935323 1.36194 0.630586)
(0.903164 1.33069 0.622908)
(0.955274 1.32519 0.611442)
(0.887887 1.28018 0.610637)
(0.869536 1.31724 0.62774)
(0.839462 1.33885 0.642538)
(0.825712 1.43317 0.707754)
(0.831666 1.38301 0.667271)
(0.87822 1.41871 0.676816)
(0.924142 1.46368 0.702585)
(0.786322 1.35253 0.665741)
(0.738167 1.44971 0.775016)
(0.781907 1.4393 0.733644)
(0.735936 1.40844 0.734656)
(0.960877 1.26957 0.590978)
(0.994637 1.29984 0.595291)
(1.03116 1.28289 0.584125)
(1.02854 1.34057 0.608402)
(0.914752 1.2521 0.597562)
(0.955325 1.2267 0.583799)
(0.981856 1.19846 0.569059)
(1.0367 1.22968 0.570956)
(1.07786 1.26828 0.592161)
(1.01014 1.19013 0.562466)
(1.02089 1.38909 0.636968)
(1.01503 1.44364 0.670594)
(1.06018 1.3722 0.629249)
(0.744559 1.5245 0.9072)
(0.96417 1.49483 0.727836)
(0.739998 1.37648 0.704345)
(0.940525 1.58231 0.901637)
(1.00505 1.52315 0.760823)
(1.01728 1.49029 0.715173)
(1.05955 1.47282 0.699701)
(1.03533 1.54147 0.788714)
(0.984931 1.54805 0.801013)
(0.976068 1.56914 0.846015)
(1.10159 1.48165 0.719842)
(1.15328 1.4764 0.74091)
(1.10902 1.51439 0.764104)
(1.18884 1.43464 0.721396)
(1.19941 1.47084 0.763089)
(1.07634 1.54114 0.796812)
(1.09788 1.43293 0.676918)
(1.12846 1.41045 0.673126)
(1.08507 1.40176 0.651322)
(1.16783 1.4025 0.68607)
(1.15559 1.37226 0.660571)
(1.06348 1.57954 0.880759)
(1.02338 1.57992 0.872207)
(0.984053 1.58196 0.888585)
(1.05624 1.5651 0.836667)
(1.09092 1.35047 0.624617)
(1.10637 1.30529 0.612278)
(1.13262 1.33605 0.634064)
(0.875026 0.996162 1.19251)
(0.795612 0.910834 1.08175)
(0.722509 1.02927 1.05805)
(0.862614 1.07257 1.19554)
(0.699631 1.13477 1.05413)
(0.811827 1.03833 1.15536)
(0.844003 0.940191 1.14654)
(0.771033 1.0065 1.1059)
(0.748485 1.10551 1.1041)
(0.92405 1.03961 1.22275)
(0.754211 0.933263 1.03461)
(0.808164 1.11828 1.15089)
(0.742368 1.17354 1.09054)
(0.801909 0.864172 1.0357)
(0.71621 1.20755 1.04795)
(0.726497 1.23645 1.02431)
(0.734973 1.22648 1.0576)
(0.747669 1.20933 1.07872)
(0.769855 1.18934 1.10251)
(0.728394 1.18998 1.06921)
(0.822439 0.924572 1.1114)
(0.809276 0.972289 1.12606)
(0.785536 0.959371 1.09344)
(0.762761 0.97077 1.06805)
(0.747952 1.01788 1.0795)
(0.741506 0.982308 1.04523)
(0.775879 0.921843 1.05744)
(0.799505 0.887936 1.05812)
(0.779152 0.899175 1.03509)
(0.865005 0.897326 1.13046)
(0.84334 0.879673 1.09778)
(0.830786 0.86232 1.06912)
(0.832785 0.837449 1.04627)
(0.736837 1.06724 1.07824)
(0.724614 1.11921 1.07639)
(0.711119 1.08079 1.05363)
(0.691288 1.11007 1.02575)
(0.705706 1.05703 1.02892)
(0.744786 1.13888 1.09591)
(0.72092 1.15397 1.07134)
(0.694753 1.15875 1.02788)
(0.7069 1.17074 1.05064)
(0.703709 1.19535 1.02375)
(0.918292 0.988237 1.20594)
(0.940583 1.00997 1.22438)
(0.900124 1.01807 1.20711)
(0.963075 1.0471 1.24133)
(0.894594 1.05614 1.2099)
(0.869024 1.0343 1.19421)
(0.929557 1.0728 1.22585)
(0.899256 1.08954 1.21249)
(0.829044 0.989481 1.15259)
(0.792207 1.02221 1.12929)
(0.760663 1.05618 1.10325)
(0.782259 1.07156 1.12649)
(0.766461 0.912374 1.01692)
(0.738816 0.961291 1.01635)
(0.790229 0.878027 1.01742)
(0.723567 1.00966 1.02765)
(0.89718 0.955277 1.18415)
(0.859863 0.968617 1.16958)
(0.844597 1.01636 1.1754)
(0.881318 0.925644 1.16154)
(0.837997 1.05492 1.17569)
(0.862544 1.11531 1.18839)
(0.802685 1.1623 1.13244)
(0.835133 1.13844 1.16549)
(0.836867 1.09491 1.17373)
(0.775203 1.14464 1.11409)
(0.828951 0.832853 1.01766)
(0.779169 1.11117 1.1249)
(0.81022 1.07824 1.15289)
(0.827257 1.28745 1.09683)
(1.09149 1.35397 1.11429)
(1.04298 1.38267 1.05995)
(1.04102 1.31045 1.15791)
(0.960074 1.28613 1.16439)
(1.0157 1.21774 1.21534)
(0.996863 1.34693 1.12116)
(0.950684 1.37255 1.06705)
(0.939644 1.19431 1.20516)
(1.12895 1.37752 1.05461)
(0.91228 1.32688 1.11677)
(0.884362 1.25824 1.15241)
(0.85407 1.34278 1.05953)
(0.789038 1.30185 1.04875)
(0.990101 1.1409 1.24646)
(0.997706 1.37753 1.06299)
(1.02071 1.36548 1.091)
(0.974699 1.36011 1.09384)
(0.931608 1.35002 1.09266)
(0.955028 1.33755 1.11896)
(1.04484 1.34924 1.11615)
(1.0665 1.33272 1.13662)
(1.02047 1.32887 1.13832)
(1.06854 1.36847 1.08664)
(1.00155 1.29719 1.15938)
(0.979497 1.31761 1.14236)
(0.937493 1.3082 1.14037)
(0.771666 1.27386 1.05849)
(0.763208 1.28298 1.02377)
(0.812436 1.24716 1.10544)
(0.79069 1.26558 1.08039)
(0.80752 1.29419 1.07264)
(1.12642 1.3283 1.13901)
(1.14118 1.35077 1.10202)
(1.11105 1.36638 1.08515)
(1.15977 1.36137 1.07108)
(1.16399 1.37061 1.02735)
(1.03474 1.18278 1.24404)
(1.06037 1.22724 1.22454)
(1.07444 1.27212 1.18953)
(1.09854 1.30683 1.16293)
(1.02838 1.26467 1.18267)
(1.02136 1.14273 1.25816)
(0.995325 1.09822 1.25814)
(1.00293 1.17863 1.23216)
(0.900336 1.17705 1.1945)
(0.937609 1.14884 1.21987)
(0.967132 1.16583 1.22431)
(0.963565 1.12258 1.23751)
(0.912219 1.22741 1.17778)
(0.87201 1.20916 1.16508)
(0.979436 1.20346 1.20811)
(0.949727 1.24076 1.18149)
(0.922135 1.27336 1.15894)
(0.990012 1.24987 1.18328)
(0.797669 1.3164 1.02492)
(0.841433 1.2321 1.13333)
(0.856706 1.27259 1.12084)
(0.840461 1.31485 1.07851)
(0.821258 1.32161 1.05311)
(0.883144 1.33389 1.08682)
(0.869886 1.30702 1.10467)
(0.899304 1.29348 1.13337)
(1.11593 1.384 1.02693)
(1.08644 1.37941 1.05694)
(1.0729 1.38618 1.03001)
(0.830109 1.33701 1.02972)
(0.874376 1.35985 1.03102)
(0.97485 1.38315 1.03395)
(0.922939 1.37427 1.03397)
(0.901976 1.35777 1.06273)
(1.02078 1.38779 1.02992)
(0.939196 1.21115 0.800771)
(1.11184 1.3463 0.874542)
(0.894312 1.34282 0.917147)
(1.02577 1.22133 0.779537)
(0.912511 1.29825 0.863361)
(1.01608 1.34771 0.876784)
(0.87202 1.22171 0.839374)
(0.990759 1.2854 0.828708)
(0.827879 1.27583 0.895885)
(1.06293 1.30028 0.82529)
(1.09047 1.38072 0.938546)
(0.990976 1.14425 0.756086)
(0.97659 1.38105 0.943833)
(0.810936 1.3174 0.9516)
(0.79124 1.26047 0.915688)
(0.812294 1.24178 0.88969)
(0.774309 1.29033 0.976749)
(0.783274 1.28124 0.942438)
(0.819182 1.29613 0.923383)
(0.850462 1.24895 0.872294)
(0.834861 1.21399 0.862496)
(0.865916 1.19033 0.829375)
(0.936013 1.15711 0.783811)
(0.967272 1.17649 0.780035)
(0.962833 1.12405 0.765076)
(1.00852 1.18196 0.766677)
(0.984694 1.21404 0.792748)
(0.952261 1.29272 0.846869)
(0.965395 1.24861 0.816845)
(0.92729 1.25669 0.83639)
(1.00955 1.25318 0.807751)
(0.899634 1.18457 0.808161)
(0.906062 1.21634 0.819466)
(0.892901 1.26084 0.853766)
(0.808834 1.32406 0.975555)
(0.870994 1.28601 0.882401)
(0.861811 1.30879 0.907306)
(0.904486 1.3207 0.891335)
(0.852406 1.32909 0.93592)
(0.994893 1.09967 0.743884)
(1.02193 1.14396 0.743762)
(1.04017 1.18346 0.755055)
(1.04192 1.32453 0.853997)
(1.02733 1.29217 0.828236)
(1.00469 1.31791 0.853495)
(1.04403 1.26193 0.803901)
(0.965183 1.32412 0.870292)
(1.08798 1.3243 0.849553)
(1.06419 1.3463 0.877228)
(1.13665 1.32381 0.854552)
(1.11053 1.30153 0.827809)
(1.08607 1.26733 0.799941)