/*--------------------------------*- C++ -*----------------------------------*\
| =========                 |                                                 |
| \\      /  F ield         | OpenFOAM: The Open Source CFD Toolbox           |
|  \\    /   O peration     | Version:  v1806                                 |
|   \\  /    A nd           | Web:      www.OpenFOAM.com                      |
|    \\/     M anipulation  |                                                 |
\*---------------------------------------------------------------------------*/
FoamFile
{
    version     2.0;
    format      ascii;
    class       vectorField;
    location    "0.14";
    object      currentcloudofpoints;
}
// * * * * * * * * * * * * * * * * * * * * * * * * * * * * * * * * * * * * * //


2409
(
(1.55847 1.8078 1.48673)
(0.710006 1.39031 1.66921)
(0.843592 1.49007 1.50252)
(1.52352 1.74842 0.656163)
(1.29715 1.64391 1.15624)
(1.16219 1.29085 0.579849)
(1.31319 1.02473 1.34612)
(0.83998 1.36992 0.949532)
(0.745218 1.40841 0.952971)
(1.15942 0.87951 1.00443)
(0.878335 1.45194 1.46034)
(1.32645 0.893855 1.39428)
(1.40461 1.19306 0.996542)
(1.38337 1.30018 0.9079)
(1.32548 0.879444 1.12992)
(1.00647 1.27201 1.76919)
(1.46165 0.963283 1.39693)
(1.43277 1.5022 1.21464)
(1.62939 1.22681 1.07879)
(1.65289 1.42899 1.40635)
(0.369355 1.06469 1.19937)
(0.774906 1.54233 1.14506)
(1.6431 1.33653 1.43533)
(1.50777 1.22132 0.985365)
(0.643429 1.3894 1.4215)
(0.903536 1.06892 1.58585)
(0.669367 0.82959 1.30609)
(1.01546 1.68271 1.46206)
(1.61603 1.67769 1.42011)
(1.51004 1.48778 0.949247)
(0.915621 1.51831 1.04067)
(1.51949 1.42878 0.727046)
(1.17951 1.1817 0.585091)
(0.660201 1.7301 0.700917)
(1.3943 0.931265 0.732388)
(0.814412 1.04365 0.512621)
(1.52819 1.51276 0.975835)
(1.48724 1.4178 0.814474)
(1.19719 1.42577 0.243206)
(0.77023 1.27285 0.965616)
(0.645892 1.68616 0.645605)
(0.974751 1.13248 1.07443)
(0.84436 1.02152 0.538899)
(1.53289 1.24007 0.630446)
(0.431809 1.39704 0.773984)
(0.970142 1.44474 0.354443)
(1.15392 1.42773 0.403376)
(1.56512 1.26119 0.920662)
(1.24004 1.11281 1.60986)
(1.36845 1.44398 1.46113)
(0.497173 0.991297 0.91681)
(1.30774 1.50019 0.980913)
(1.65962 1.59845 1.48426)
(1.58513 1.28289 1.57857)
(1.71209 1.30349 1.16351)
(1.41543 1.51406 1.65527)
(1.23199 1.56867 1.52889)
(1.56605 1.643 0.440889)
(1.16921 1.84093 0.947901)
(1.16738 1.57244 0.522029)
(1.50882 1.55186 1.38453)
(0.968351 0.922368 0.730869)
(1.2576 1.1863 0.737063)
(0.659899 1.77902 0.973319)
(1.50185 1.46024 0.753087)
(1.26632 1.18863 1.52913)
(1.61306 1.72694 1.25631)
(1.89747 1.17482 1.25743)
(1.2702 1.20748 0.97492)
(1.64191 1.54405 1.35755)
(0.360198 1.04523 1.23419)
(1.56758 1.48245 1.25277)
(0.526943 1.24845 1.07752)
(1.26819 1.70739 0.695617)
(1.36765 1.24658 0.642747)
(1.56262 1.24897 1.1555)
(1.6086 1.46303 1.04483)
(1.39711 1.01668 1.45764)
(0.830111 1.33971 1.04865)
(1.74995 1.09105 1.39853)
(1.47723 1.16226 1.24575)
(1.63022 0.9946 1.11139)
(1.35427 1.11005 1.57078)
(0.431213 0.935224 0.947757)
(0.690483 1.45382 1.34028)
(0.787528 1.04818 1.63379)
(1.45213 1.64073 1.61945)
(1.0257 1.03798 1.60043)
(1.02367 0.985541 1.65666)
(1.44537 1.18175 1.0866)
(0.539746 1.15584 1.14771)
(0.544073 0.990464 1.13369)
(0.515108 1.51309 1.22986)
(1.18459 1.35227 1.66813)
(0.896814 0.973375 1.67162)
(0.819713 0.859775 1.23763)
(1.29547 1.65357 1.11217)
(0.893168 1.44683 1.434)
(0.970442 1.52371 1.74595)
(0.913372 0.790699 1.23052)
(0.874971 0.903035 1.17375)
(1.24585 0.861346 1.2992)
(0.92661 1.33156 1.5105)
(1.40252 1.61854 0.677225)
(0.68823 1.28728 0.752026)
(1.38176 0.93743 1.56611)
(0.949474 1.44771 1.73053)
(0.961923 1.29349 1.60586)
(1.04644 1.29509 1.76302)
(0.625489 1.0507 1.15634)
(1.58954 1.28936 1.47306)
(0.709126 1.54761 0.786833)
(0.646993 1.32058 1.00038)
(1.22572 0.853671 0.934954)
(0.81219 1.54487 1.1434)
(0.755781 0.992578 0.436648)
(0.837111 1.92977 0.87736)
(1.10943 1.52966 0.439261)
(1.10893 0.996902 0.37027)
(1.02344 1.18574 0.282995)
(1.06195 1.2998 1.20209)
(1.14351 1.20284 0.263503)
(1.16479 1.42826 0.673759)
(1.07443 1.67408 1.48172)
(1.03225 0.926558 0.416417)
(0.765317 1.10553 0.411527)
(1.06583 0.962394 0.601439)
(1.00124 1.32657 0.3708)
(0.79603 1.42995 0.912491)
(0.504696 0.998936 0.941467)
(0.78222 1.80301 0.938356)
(0.885862 1.23231 0.620963)
(1.25199 1.3997 0.637763)
(1.3701 1.30647 0.354246)
(1.05295 1.19253 0.626621)
(0.741911 1.45922 0.829972)
(0.759136 1.38152 0.630494)
(0.9799 1.09281 1.0553)
(1.13862 0.978135 0.621102)
(1.4053 1.36409 0.331598)
(1.39167 1.25077 0.39539)
(1.38882 1.20015 0.45167)
(1.31308 0.932403 0.430208)
(1.86803 1.44234 1.18792)
(1.232 1.59821 1.34828)
(1.69698 1.42922 1.44202)
(1.25095 1.81415 1.36391)
(0.490661 1.2372 1.10317)
(0.514951 1.1029 0.953961)
(0.897879 1.21149 0.560664)
(1.33051 1.64655 1.17258)
(1.4953 1.19811 0.648542)
(1.27903 1.5494 0.848546)
(1.56201 1.27398 1.31237)
(1.42562 1.71865 1.40138)
(1.26109 1.38769 1.65028)
(0.751896 0.750983 1.16068)
(1.56596 0.939092 1.2297)
(1.53161 1.83532 0.707918)
(1.19326 1.7483 0.75031)
(1.58137 1.76761 0.847359)
(0.871758 1.27158 0.506069)
(1.41941 1.66928 0.437378)
(0.839338 1.07011 0.671411)
(1.02879 1.41973 0.27669)
(1.27291 1.31922 1.26344)
(1.36385 1.66235 0.667211)
(1.17174 1.58259 0.842186)
(1.17122 1.53141 1.20772)
(1.37713 1.85115 0.557441)
(1.24374 1.56523 0.312639)
(1.30721 0.923413 0.450037)
(1.35221 0.963794 0.428997)
(0.706552 1.04142 1.01227)
(1.28509 1.61438 0.683066)
(1.24351 1.58212 1.03507)
(1.23604 1.6411 0.89205)
(1.60658 1.52047 1.47812)
(1.3216 1.03938 1.05125)
(0.826288 1.45612 1.51876)
(0.824499 1.65691 0.808081)
(0.931381 1.41718 1.32451)
(1.33107 1.6699 0.630119)
(0.868849 1.51935 0.343922)
(1.73875 1.25329 1.41333)
(1.6541 1.15159 1.27724)
(0.466526 1.38176 1.13705)
(0.770894 1.02189 1.16182)
(1.23731 1.28757 0.919178)
(1.44028 0.93192 1.20984)
(0.580338 1.29775 0.821805)
(1.23596 1.08582 1.01797)
(1.63518 1.32053 1.12911)
(1.40728 1.05126 1.30726)
(1.35381 1.20958 1.397)
(1.70479 1.51952 1.08506)
(1.19031 1.51064 1.56949)
(1.63809 1.10954 1.10606)
(0.684076 1.28429 0.822515)
(1.68014 1.27552 1.28332)
(1.62501 1.30794 1.09397)
(1.33903 1.05131 1.36745)
(0.71217 1.60097 0.538645)
(1.3202 1.50839 0.626796)
(1.29765 0.969987 0.413779)
(0.975219 1.34434 1.17606)
(1.29198 1.59133 1.63062)
(1.58873 1.53711 1.25145)
(0.966815 1.4499 1.61538)
(1.05187 1.18041 0.608365)
(1.12901 1.51418 0.432377)
(0.582811 1.75657 0.854407)
(1.22179 1.64845 0.974365)
(1.31827 1.19082 0.638014)
(0.76723 1.58806 0.468645)
(1.15989 1.27361 1.16733)
(1.15488 1.15002 0.8721)
(1.52756 1.53648 1.24956)
(1.67397 1.37219 1.12063)
(1.4801 1.27711 1.54252)
(0.815331 1.27534 1.17651)
(0.979284 1.2428 1.09965)
(1.65897 1.02473 1.24222)
(1.33055 1.34318 1.25039)
(1.70301 1.27705 0.94787)
(1.69244 1.09602 1.03648)
(1.36573 1.27167 0.68614)
(1.44364 1.02145 1.13472)
(1.60749 1.04178 1.13515)
(0.873468 1.41743 0.897675)
(1.6139 1.11847 1.24678)
(1.58856 1.09184 1.13607)
(1.53224 1.048 1.11081)
(1.11468 1.54611 1.1236)
(0.986684 1.46057 1.7239)
(1.6397 1.41421 1.47578)
(1.32761 1.30391 0.784686)
(1.34734 1.62 0.6206)
(1.44309 1.56321 1.1994)
(1.28852 1.29489 0.401591)
(1.70148 1.6739 1.09415)
(1.5272 1.06359 1.34697)
(1.51654 1.48694 1.13444)
(1.19739 1.75615 1.29074)
(0.6217 1.14003 1.25747)
(0.646046 1.43952 0.826487)
(1.55079 1.53945 1.24075)
(1.29437 1.59599 0.53028)
(1.46681 1.00495 1.3317)
(1.66449 1.2347 0.977918)
(1.67834 0.980083 1.14618)
(0.889058 0.899369 1.26938)
(1.33981 1.38394 1.40304)
(0.980385 1.41252 1.71431)
(0.819272 0.747567 1.3588)
(0.91711 1.4554 1.74656)
(1.44017 1.2017 1.45945)
(0.711066 1.45569 0.817363)
(0.949275 1.27955 1.24021)
(0.660093 1.46892 0.91819)
(1.09908 1.48018 1.45028)
(1.79266 1.28118 1.1389)
(0.704884 1.35515 1.0082)
(1.19808 1.83107 0.894751)
(1.65259 1.20686 1.30627)
(1.16475 1.37656 1.22153)
(1.29742 1.29237 1.40928)
(0.677124 1.21791 1.03047)
(0.805525 1.04972 0.491706)
(0.821241 1.1093 0.416959)
(0.736 1.48097 0.814074)
(0.894676 1.12486 0.524838)
(0.850489 1.03248 0.552546)
(1.40771 0.941997 1.06544)
(1.17299 1.35762 1.1955)
(0.887219 1.26783 1.25222)
(1.35313 1.28102 0.866072)
(1.23311 1.739 1.36833)
(1.05932 1.27435 0.835057)
(1.56693 1.20513 0.863396)
(1.26671 1.58817 1.25119)
(1.21006 1.55496 1.29786)
(1.55318 1.24477 0.952012)
(1.79169 1.05669 1.02405)
(1.68775 1.20839 0.989947)
(1.28621 1.85098 1.29219)
(1.56156 1.11024 1.18672)
(1.664 1.12385 1.2251)
(1.72258 1.05647 1.19378)
(1.80314 1.17495 0.971215)
(1.38564 1.03702 1.31648)
(1.60859 1.40762 1.03919)
(0.826845 1.2866 1.19642)
(1.481 0.996698 1.32309)
(1.62042 1.28794 1.28155)
(1.64964 1.05369 1.30642)
(1.16491 1.65625 1.34553)
(1.169 1.66127 1.37534)
(1.35804 1.66596 1.1221)
(0.855357 1.29384 0.664724)
(1.59743 1.60503 1.18543)
(1.13571 1.61308 1.11577)
(0.846053 1.07651 0.515823)
(1.73761 1.2273 0.976445)
(1.79886 1.3822 1.02564)
(1.5204 1.23907 1.6339)
(1.78756 1.30578 1.14573)
(1.4006 1.11131 1.25412)
(1.00759 1.31338 1.74656)
(1.59798 1.06699 1.14113)
(1.60997 1.11432 1.19152)
(1.14605 1.61647 0.70419)
(1.36215 0.938778 1.38366)
(0.511229 1.19414 1.18135)
(1.13575 1.42919 1.63636)
(0.985671 1.35609 1.66524)
(1.82353 1.20477 1.03326)
(1.74839 1.25163 1.09337)
(1.57296 1.10591 1.13629)
(0.988297 1.22222 0.892928)
(1.73246 1.36431 0.951225)
(1.42139 1.08006 1.2798)
(1.57255 1.17276 1.0755)
(1.60796 1.13546 1.16273)
(1.58412 1.0928 1.12781)
(1.61062 1.10619 1.14851)
(1.58774 1.00494 1.10849)
(1.67835 1.25678 1.05421)
(1.74754 1.59018 1.30993)
(1.13006 1.78439 0.968236)
(1.21701 1.58094 1.29964)
(1.38655 1.78404 1.07555)
(1.31997 1.72176 1.34573)
(1.0792 1.5024 1.2189)
(1.40954 1.2407 1.03211)
(1.12506 1.81988 1.29115)
(1.31104 1.53044 1.3427)
(1.25638 1.60757 0.642077)
(1.38905 1.74407 1.40036)
(1.26808 1.18562 0.470677)
(1.54501 1.28928 1.27994)
(0.886139 1.40344 1.13002)
(0.801028 1.0454 0.411653)
(1.67198 1.32127 1.44206)
(1.66945 1.3576 1.40778)
(1.3492 1.76058 0.616323)
(1.10326 1.71867 1.18222)
(1.2959 1.0854 0.837497)
(0.872175 0.841559 1.29667)
(1.10405 1.49088 0.784149)
(0.644571 1.21957 1.00974)
(0.96974 1.45673 1.71186)
(0.716853 1.48411 1.14748)
(1.37097 1.68029 1.40183)
(1.83161 1.15213 1.18445)
(1.17273 1.71958 1.34764)
(1.87301 1.31407 1.04024)
(1.48391 1.60961 1.52657)
(1.43296 1.23205 0.90365)
(1.6587 1.09928 1.20046)
(0.927374 1.2836 1.52883)
(0.982239 1.36176 1.5646)
(1.37475 1.73729 1.4462)
(0.728174 1.63511 1.0731)
(1.89932 1.26347 1.00686)
(1.5417 0.984372 1.0659)
(1.52353 0.951399 1.07128)
(0.808227 1.25742 1.12626)
(1.60717 1.14039 1.1828)
(1.60627 0.967475 1.17215)
(1.71982 1.17821 1.02391)
(1.58176 0.973808 1.28299)
(1.14244 1.75492 1.04189)
(1.77368 1.52573 1.22808)
(1.18754 1.22109 1.09527)
(1.66793 1.38379 0.923396)
(1.50069 1.00035 1.20019)
(1.72546 1.14429 0.970099)
(1.16131 1.26156 0.912442)
(1.55967 1.0268 1.13066)
(1.10919 1.17628 1.68375)
(0.577246 1.52324 1.37632)
(0.675146 1.2185 1.36836)
(0.772097 1.23011 1.26595)
(0.695991 1.5647 1.38108)
(1.25303 1.43978 1.50476)
(0.562307 1.01691 1.31426)
(1.44028 1.58437 1.22357)
(0.680122 1.41151 1.17636)
(1.37571 1.36131 1.4349)
(0.851975 0.980857 1.63544)
(0.979338 1.13889 0.947112)
(0.878255 1.19936 1.70544)
(0.801123 1.24398 1.28231)
(1.27158 1.44759 1.68295)
(0.643613 1.24426 1.33993)
(0.635043 1.50148 1.25088)
(1.02237 1.14945 1.57215)
(0.302584 1.39382 1.23068)
(0.869685 1.37238 1.67644)
(1.1259 1.25625 1.6916)
(1.25018 1.63233 1.54046)
(1.36511 1.59744 1.5739)
(0.833352 0.981704 1.6423)
(1.00407 1.18943 1.74021)
(1.27961 1.50159 0.968743)
(1.37975 0.965298 1.14076)
(0.534852 1.54064 1.23557)
(0.573829 1.39063 1.2207)
(0.774016 1.18722 1.33285)
(0.98415 1.22056 1.62724)
(0.740765 1.14825 1.50547)
(1.09453 1.14054 1.30775)
(0.919248 0.82362 1.2271)
(0.870203 1.27352 0.973026)
(1.41652 1.55777 0.986972)
(1.71358 1.55014 1.27166)
(0.395327 1.12173 1.29608)
(0.632072 0.920803 1.27001)
(0.692559 1.41854 1.1494)
(1.0953 1.73339 1.28577)
(0.252088 1.37518 0.877936)
(0.546803 1.51066 1.51484)
(0.760251 1.35658 1.5923)
(0.469793 0.962964 1.12234)
(0.30036 1.5195 1.08776)
(0.300844 1.37152 1.15448)
(0.749841 1.39027 1.62283)
(1.05057 1.02138 1.56075)
(1.23824 1.19673 1.25178)
(1.23978 1.10235 1.49315)
(0.843809 0.806427 1.4113)
(0.971077 1.23363 1.02242)
(1.5631 0.944445 1.17222)
(0.818065 1.23888 1.09218)
(1.38396 1.50044 1.61646)
(1.37119 1.45316 1.27291)
(0.685347 1.29503 0.772956)
(0.681762 1.64225 1.37909)
(1.09495 1.28408 1.09183)
(1.30162 1.79549 1.49861)
(0.511654 1.62137 1.42965)
(0.546582 1.57286 1.11304)
(1.18132 1.68382 1.33588)
(0.803648 1.7202 1.47274)
(0.700207 1.13055 1.42692)
(1.54902 1.33675 1.08657)
(0.623338 1.15077 1.19421)
(0.279396 0.977767 1.14696)
(0.326349 1.44909 1.25496)
(1.13667 1.35258 1.46337)
(1.02342 1.33306 1.58164)
(1.04037 1.28981 0.736861)
(0.713765 1.09113 0.947119)
(0.670094 1.47 1.41185)
(1.61688 1.70441 1.3745)
(1.65451 1.40767 1.20397)
(1.25377 1.58098 1.32855)
(1.55596 1.75075 0.853284)
(1.2236 1.33078 0.770435)
(1.08576 1.14257 1.61812)
(0.91124 0.950623 1.45886)
(1.57384 1.55722 1.22852)
(1.3414 1.56679 1.58636)
(1.37899 1.7694 1.28982)
(1.32592 1.54578 1.4938)
(1.23061 1.49463 1.73476)
(1.19304 1.02418 1.43389)
(1.18647 1.52814 1.75694)
(0.870594 1.00301 1.2063)
(1.02229 1.103 1.5054)
(0.913233 1.46932 1.71827)
(1.02257 1.05434 1.64373)
(0.657448 1.33735 1.17023)
(1.01694 1.0943 1.56499)
(1.08638 1.18241 1.65652)
(1.01413 1.10876 1.5483)
(0.706741 0.778421 1.23807)
(1.1028 1.21622 1.65638)
(1.32356 1.46689 1.31667)
(1.25652 1.32695 1.28733)
(1.38579 1.41298 1.33907)
(1.34273 1.48691 1.59424)
(1.43982 1.68254 1.50806)
(1.25041 1.32665 1.67268)
(1.44693 1.31068 0.946226)
(1.17561 1.70099 1.31051)
(0.826353 0.739295 1.29621)
(0.386066 1.40305 0.953601)
(1.57776 1.64342 1.41558)
(0.782105 1.13832 1.30686)
(0.998974 1.05031 1.17059)
(1.00182 1.10619 1.68341)
(0.928802 0.837859 1.19623)
(1.01969 1.4267 1.39996)
(1.29982 1.45451 1.46351)
(1.11522 1.65595 1.13843)
(0.478268 1.50231 1.33414)
(0.913501 1.58573 1.36634)
(0.753809 1.61461 1.46595)
(0.837178 1.42228 1.51021)
(1.85837 1.36398 1.3113)
(0.295618 1.27592 0.986213)
(0.631171 1.14901 1.19677)
(1.60852 1.60912 1.0551)
(1.21562 1.74949 1.3658)
(1.85816 1.45093 1.23627)
(1.30761 1.15876 1.15745)
(1.79663 1.44798 1.15542)
(1.09525 1.06001 1.43133)
(0.867332 0.763349 1.25754)
(0.650958 1.34455 1.58637)
(1.07917 1.69731 1.29756)
(0.997397 1.49548 1.43605)
(1.21436 0.99017 0.784221)
(0.744837 1.31819 0.707602)
(0.936163 1.48669 1.30234)
(1.42297 1.75999 1.39109)
(1.66118 1.49931 1.15525)
(1.7889 1.47949 1.03161)
(1.35786 1.52782 1.19586)
(0.842673 1.4923 1.52537)
(0.897102 1.65901 1.60175)
(1.01338 1.65732 1.53612)
(1.59503 1.33678 1.23729)
(1.38867 1.78612 1.50509)
(0.980777 1.09107 1.75185)
(0.97533 1.08069 1.73342)
(1.34382 1.57132 0.686846)
(0.93026 1.74546 1.47202)
(1.03391 1.43991 1.79231)
(0.859997 0.974687 1.64244)
(0.866519 1.42706 1.62576)
(1.0237 1.58678 1.37414)
(0.419196 1.42221 1.18074)
(1.20597 1.03024 1.42725)
(0.632805 1.28896 1.53755)
(1.1256 1.68316 1.49052)
(1.13684 1.32882 1.776)
(1.08441 1.86889 1.00376)
(1.35243 1.31148 1.30274)
(0.535805 1.64787 1.24357)
(0.728034 1.40004 1.52629)
(0.595836 1.46518 1.35614)
(1.63765 1.59928 1.38262)
(1.06966 1.65004 0.511415)
(0.684637 1.24191 1.63416)
(0.692289 1.40993 1.14941)
(0.788258 0.888754 1.37106)
(0.566885 1.6701 0.819263)
(1.12565 1.84376 1.01782)
(1.27237 0.997145 0.521796)
(0.64548 1.50665 0.719343)
(1.32285 1.32491 1.13014)
(1.26142 1.65036 0.756126)
(1.18243 1.8628 0.973206)
(1.19896 1.44089 0.426706)
(1.01294 0.999522 0.868227)
(1.50077 1.63269 0.822395)
(1.50593 1.68144 0.869982)
(1.23413 1.42505 0.640813)
(1.13233 1.86147 0.910373)
(0.605502 1.66136 0.790499)
(0.713165 1.28757 0.511666)
(1.47822 1.74093 0.558043)
(0.998205 1.41295 0.252386)
(0.967404 1.32754 0.654354)
(1.21944 0.985306 0.635038)
(1.13567 1.46532 0.575253)
(1.03493 1.6454 1.0919)
(0.620651 1.56922 0.457013)
(0.907195 1.29336 0.830174)
(0.927758 1.01123 0.624201)
(1.56182 1.39787 0.835121)
(0.756253 1.36364 0.388928)
(0.815682 1.25021 0.501233)
(1.2129 1.32556 1.33817)
(1.09902 1.70734 0.274504)
(1.28211 1.75788 0.530596)
(0.854878 1.45712 0.193431)
(1.28201 1.54927 0.701013)
(1.41257 1.75687 0.988224)
(1.00831 1.42389 0.291611)
(0.843152 1.58404 0.413881)
(1.47419 1.2367 0.35775)
(0.556642 1.72063 1.03138)
(0.586581 1.55508 0.640636)
(1.00228 0.737954 0.890871)
(0.808938 1.16113 0.266982)
(0.975506 1.06141 0.62538)
(1.12128 1.25187 1.57282)
(1.45586 1.50259 0.916116)
(0.922988 1.15441 0.509815)
(1.08815 1.00752 0.544024)
(0.833272 1.34624 0.218957)
(1.30106 1.38707 0.495582)
(1.1337 0.938141 0.601157)
(1.45089 1.62747 0.442732)
(0.811452 1.49364 1.08442)
(1.23161 1.22268 0.480759)
(1.04593 1.53518 0.261085)
(1.12466 1.52265 0.602177)
(0.989141 1.46922 0.89126)
(1.53148 1.56989 0.435429)
(1.53223 1.54755 0.463609)
(1.32118 1.75393 0.523926)
(1.03187 1.49534 0.313096)
(1.10714 1.30551 0.262695)
(1.22411 1.08911 0.65162)
(1.28057 1.05096 0.567074)
(1.37696 1.64443 0.601797)
(1.36394 1.86805 0.996249)
(1.36434 1.86028 0.940741)
(1.38269 1.74514 0.643952)
(1.53059 1.74811 0.550953)
(1.31021 1.21006 1.00484)
(1.3082 1.14117 0.820099)
(1.59172 1.68933 0.497785)
(1.33141 1.70132 0.679084)
(1.18977 1.64551 0.920489)
(1.13035 1.54938 1.27918)
(1.12716 1.56411 1.30314)
(1.04685 0.804573 0.491245)
(0.913143 0.985808 0.279551)
(1.23096 1.81656 0.413486)
(1.27941 1.84096 0.531458)
(1.10351 1.33992 0.310503)
(0.499126 1.44168 0.678594)
(1.0382 1.30107 0.508699)
(0.67668 1.15473 0.44677)
(1.05308 1.45769 1.61173)
(0.715526 1.14496 0.814937)
(0.659724 1.41564 0.866279)
(1.25124 1.30619 0.202212)
(1.00253 1.16477 0.246294)
(0.455251 1.73639 0.916586)
(1.35939 1.8556 0.945129)
(0.990076 1.91208 0.887266)
(0.795018 1.55598 0.863924)
(1.43278 1.71801 0.553162)
(0.729201 1.8699 0.720535)
(0.731365 1.85447 0.583345)
(1.25157 1.83427 0.988819)
(0.828932 1.7293 0.593192)
(1.09352 1.53673 0.412058)
(1.86733 1.28518 1.26449)
(0.78235 1.72725 1.05385)
(0.54761 1.80276 0.678759)
(0.883807 1.55081 0.258042)
(1.41943 1.5789 0.390991)
(1.01961 1.32388 0.426401)
(1.48049 1.43306 0.703272)
(0.874498 1.23763 0.57709)
(0.738005 1.1688 0.459997)
(0.860973 1.65034 0.803913)
(1.57599 1.48959 0.90543)
(1.2711 1.59737 0.512293)
(1.75346 1.58814 0.671648)
(1.00921 1.71201 0.760323)
(1.5721 1.76696 0.755473)
(1.23236 1.54935 0.323936)
(1.40562 1.76966 0.596996)
(0.688776 1.1682 0.380379)
(1.29351 1.59379 0.516659)
(1.33262 1.73254 0.389367)
(0.84727 1.90093 0.773941)
(1.3157 1.75147 0.664042)
(1.29812 1.24369 0.984117)
(1.09822 1.43594 0.311202)
(0.871539 1.56591 0.435116)
(0.819862 1.67786 0.58323)
(1.14445 1.44811 0.286482)
(1.23514 1.47308 0.67072)
(0.967492 1.40414 0.608711)
(0.712791 1.60275 0.909455)
(0.875455 1.13853 0.543229)
(0.555207 1.70925 0.683067)
(0.554984 1.63037 0.597619)
(0.754656 1.5287 0.611345)
(0.646997 1.33877 1.10908)
(1.24078 1.44858 0.516712)
(1.00717 1.52902 1.58901)
(1.19746 1.35609 0.667736)
(1.08367 0.983353 0.730562)
(0.960711 1.67005 1.13199)
(1.10311 1.61903 1.59876)
(0.731988 1.48871 0.90932)
(0.923436 1.2498 0.266702)
(1.77583 1.50022 0.715747)
(1.2847 1.80917 1.44643)
(0.963955 1.59845 0.561711)
(0.882533 0.814263 0.474993)
(0.975008 1.0034 0.758328)
(1.11643 0.743557 0.980894)
(0.75367 1.00175 0.631099)
(1.41396 1.56158 0.715111)
(1.5279 1.41176 0.816972)
(1.22279 1.4572 0.315875)
(1.75378 1.19982 1.3661)
(1.27988 1.21026 0.544049)
(0.743325 1.68397 0.825168)
(1.48655 1.47805 1.12633)
(1.51368 1.3151 1.09042)
(0.727111 1.44307 0.883128)
(1.30834 1.70133 0.659304)
(1.50812 1.56556 0.488424)
(1.24041 1.80961 0.454918)
(1.23481 1.58011 0.813533)
(0.841989 1.28454 0.906344)
(0.696824 0.876788 0.482023)
(1.16537 1.40325 0.523879)
(1.23142 1.36703 0.506227)
(1.01188 1.52467 0.851406)
(0.743048 1.79306 1.07327)
(1.55082 1.65367 0.672199)
(1.42716 1.6508 1.0145)
(1.5765 0.970445 0.90999)
(0.868893 1.23689 0.946296)
(1.08246 1.69919 0.754583)
(0.862237 1.1403 0.381306)
(0.878225 1.32833 1.17173)
(1.5017 1.04241 0.821719)
(1.4112 1.64815 1.10812)
(1.39543 1.75902 0.966718)
(1.35641 1.66487 0.606082)
(1.0521 1.1775 0.986618)
(1.04072 1.12632 0.922949)
(1.51102 1.43419 0.959064)
(1.7728 1.11195 0.893223)
(1.3953 1.0855 0.687626)
(0.943424 1.20202 0.55524)
(0.681685 1.86317 0.957714)
(1.02685 1.16013 0.891148)
(1.33177 1.22404 1.37011)
(1.00949 1.08643 0.689566)
(1.52896 0.990557 0.907777)
(1.02361 1.16751 0.898852)
(1.34179 1.82384 0.752089)
(1.47287 1.4076 1.0633)
(1.10108 1.13833 0.965846)
(1.04058 1.23854 0.85508)
(1.2019 1.26271 0.534509)
(1.42659 1.66996 1.09288)
(0.903476 0.871592 0.650572)
(0.925736 1.3453 0.737686)
(1.72119 1.26131 0.816542)
(0.88965 1.08893 0.604304)
(1.2257 1.07834 0.613807)
(1.37077 1.66238 0.589227)
(1.5554 1.55648 1.40796)
(0.69801 1.57982 0.534208)
(0.833906 0.971293 0.563674)
(0.6858 1.52247 0.769103)
(1.48867 1.70072 0.638141)
(1.45187 1.69153 0.736877)
(1.47604 1.58034 0.788301)
(1.45766 1.73914 0.848427)
(1.59257 1.59401 0.651426)
(1.76283 1.5163 0.610069)
(1.61939 1.72999 0.679586)
(1.6354 1.40609 0.673582)
(1.75805 1.43784 0.777694)
(1.70053 1.4611 0.840174)
(1.72499 1.29515 0.805048)
(1.77291 1.26643 0.862042)
(1.49207 0.985071 0.828781)
(0.814993 1.65196 0.982739)
(1.15675 1.6464 1.42123)
(1.10011 1.85034 0.528574)
(1.27537 1.66117 1.33454)
(1.80874 1.44277 0.999439)
(0.90343 1.19686 0.567368)
(1.12211 1.43094 0.763639)
(0.89224 1.1536 0.576302)
(1.11997 1.1726 0.957147)
(1.70956 1.14305 0.945346)
(0.949365 1.47248 1.0042)
(1.17274 1.03121 0.700901)
(1.70242 1.17014 0.914832)
(1.00897 1.29631 0.78325)
(0.970189 1.24563 1.1211)
(1.35386 1.32401 0.440943)
(1.42031 1.17899 1.36662)
(1.37624 1.61695 0.631891)
(1.09462 1.29589 1.1176)
(0.71782 1.59933 0.541322)
(0.942307 0.926994 0.437817)
(1.28785 1.17179 0.272698)
(0.649406 1.06156 0.3947)
(1.54766 1.82416 0.690422)
(1.39092 1.64932 0.669943)
(1.21328 1.6933 1.30673)
(1.67129 1.56598 0.504326)
(1.17746 1.57961 0.845685)
(1.38762 1.65442 0.5995)
(1.20944 1.55521 1.34858)
(1.4811 1.79768 1.0815)
(1.20247 1.48616 1.24736)
(1.25638 1.69928 0.775496)
(0.682124 1.36845 0.749984)
(0.686196 1.17582 0.962855)
(0.677958 1.52119 0.735588)
(0.735126 1.51004 1.01536)
(0.783444 1.34617 0.638615)
(1.03128 0.943448 0.779065)
(0.831511 0.901685 0.608663)
(1.01755 1.18067 0.595985)
(0.8294 0.944886 0.588856)
(1.35109 1.6626 0.675219)
(1.48832 1.73548 0.929305)
(1.71416 1.49499 0.759949)
(1.35904 1.66422 0.641271)
(1.35192 1.81211 0.524071)
(1.18079 1.76674 0.629212)
(1.37987 1.74051 0.768209)
(1.23316 1.45982 1.26388)
(1.36189 1.82115 0.537221)
(1.30091 1.78402 0.794156)
(1.41279 1.01536 0.689388)
(1.28386 0.942997 0.459153)
(1.02057 0.995832 0.763904)
(1.31203 1.08088 0.629377)
(0.87988 1.42246 0.705908)
(1.79227 1.36041 0.748278)
(1.30087 1.43851 1.12462)
(1.31701 1.53489 0.472647)
(1.51724 1.44275 0.776637)
(0.910775 1.30794 1.06392)
(0.430184 1.40107 1.2179)
(1.48623 1.70392 0.694568)
(1.36422 1.48021 0.538894)
(1.25425 1.57446 0.86453)
(1.44347 1.6034 1.07074)
(1.64817 1.59313 0.813225)
(1.39665 1.90864 0.880083)
(1.57498 1.78266 0.865863)
(0.563582 1.17701 1.14399)
(1.34607 1.66106 0.686761)
(0.740666 1.83631 0.959427)
(1.13772 1.1353 0.716966)
(1.34418 1.21208 0.331169)
(1.43799 1.04952 0.623216)
(0.908285 1.76264 1.04472)
(1.37561 1.18148 0.41439)
(1.37571 1.2264 0.390626)
(0.724499 1.56735 0.838715)
(0.565582 0.949922 1.0105)
(1.08804 1.19038 0.761626)
(0.771713 0.996979 0.539956)
(1.24745 1.6927 0.497546)
(1.34469 1.23353 1.02917)
(1.47792 1.54967 1.24401)
(1.49607 1.42261 0.982613)
(1.34907 1.67972 0.651264)
(1.40627 1.13868 0.974873)
(1.48692 1.18388 0.750256)
(1.54078 1.02323 0.866402)
(1.1617 1.71661 0.708297)
(1.50863 1.09941 0.69639)
(0.739802 1.3391 1.05248)
(0.972166 1.10023 0.96127)
(1.45005 1.59727 0.58433)
(1.02032 1.14846 0.64109)
(0.841311 1.06181 0.517996)
(0.905487 1.36209 1.14345)
(0.627563 1.59939 0.732317)
(1.55113 0.982379 0.853068)
(1.43712 0.968349 0.730395)
(1.32871 1.52383 0.685907)
(0.900346 1.64482 0.764458)
(0.944956 1.741 1.06192)
(0.707845 1.3716 1.0199)
(0.875971 1.1905 0.854814)
(1.44014 1.09364 0.97842)
(1.27405 1.15266 0.957493)
(1.56393 1.03303 0.874814)
(0.685267 1.31691 0.71528)
(0.624317 1.58578 0.69528)
(1.3234 1.04116 0.678492)
(0.755665 1.80395 1.03501)
(1.24198 1.05056 0.756989)
(1.47326 1.21063 0.982093)
(1.64223 1.53471 1.16333)
(1.37443 1.70741 1.63635)
(1.62629 1.27262 1.5131)
(1.57843 1.52449 1.52642)
(1.69497 1.54092 1.46257)
(1.52492 1.69606 1.3152)
(1.22944 1.59916 1.26773)
(1.2511 1.45438 1.44487)
(1.29655 1.51997 1.00425)
(1.52329 1.2949 1.67183)
(1.01875 1.13623 1.17615)
(0.859928 1.29561 1.02479)
(0.570313 0.977293 0.975255)
(0.963268 1.48396 1.00957)
(1.31307 1.6799 1.5664)
(1.52719 1.3193 1.27385)
(1.24093 1.04314 1.59357)
(0.973524 1.64315 1.17102)
(0.57411 1.55091 1.16328)
(0.909027 1.09238 1.63866)
(1.2274 1.16062 1.10725)
(0.369675 0.860142 1.16548)
(1.22963 1.02562 1.26569)
(1.58286 1.61829 1.51185)
(1.35779 1.23329 1.60035)
(1.11087 1.59584 1.52875)
(0.72078 1.78409 1.26917)
(0.979621 1.52436 1.70506)
(1.89772 1.33347 1.19354)
(1.08512 1.59111 1.68225)
(0.500892 1.58995 1.42936)
(1.68254 1.21814 1.35999)
(1.21532 1.42147 0.957774)
(1.58593 1.52709 1.35616)
(1.76665 1.22008 1.37926)
(1.19595 1.23637 1.57999)
(1.52641 1.59835 1.61853)
(1.62821 1.66762 1.45565)
(1.23329 1.09064 1.61592)
(0.870068 0.945056 1.16588)
(1.72077 1.55098 1.4107)
(1.48226 1.243 0.826935)
(0.841989 1.32599 1.7649)
(1.52626 1.48914 1.23885)
(1.57331 1.27731 1.54099)
(1.34151 1.37499 1.33432)
(1.33869 1.75649 0.515101)
(1.85387 1.18547 1.14812)
(0.742337 1.38672 0.829442)
(1.21691 1.3697 1.58458)
(0.573749 1.55777 1.09187)
(1.55351 1.67091 1.25114)
(1.24784 1.57993 1.10186)
(1.07946 1.51997 1.08735)
(1.82176 1.45519 1.22017)
(1.4819 1.45636 1.5826)
(1.46578 1.25897 1.58853)
(1.6705 1.54964 1.25089)
(1.29674 1.11391 1.53648)
(0.987312 1.48879 1.1549)
(0.884653 1.52932 1.01951)
(1.36689 1.39245 1.01422)
(1.45256 1.59094 1.09041)
(1.55655 1.28843 1.59764)
(1.28515 1.21045 0.4566)
(1.12215 1.20605 1.52895)
(1.52722 1.20061 1.59165)
(1.18136 1.44449 1.02364)
(1.01182 1.17326 1.19659)
(0.671912 1.29298 0.849345)
(1.733 1.53233 0.877675)
(1.77608 1.06362 1.31491)
(1.40836 1.0335 1.07047)
(1.66758 1.12795 1.22218)
(1.44402 1.48702 1.15508)
(1.41608 1.21482 0.942833)
(1.61608 1.06997 1.06714)
(1.47121 1.11893 1.1903)
(1.22538 0.903652 1.38649)
(1.62519 0.994728 1.04688)
(1.65958 1.28124 1.08684)
(1.29186 1.7537 0.576145)
(1.65523 1.46144 1.46857)
(1.59761 1.52893 1.57712)
(1.53628 1.40073 0.983786)
(1.59242 1.03744 1.06064)
(1.61394 1.13553 1.10824)
(1.48641 1.12932 1.0527)
(1.59826 1.06306 1.18834)
(0.815807 1.29746 0.497114)
(1.47533 1.05029 1.11497)
(1.20368 1.04118 0.949888)
(1.65072 1.26494 0.921479)
(1.56851 1.1631 0.576587)
(1.3849 1.32757 0.682587)
(1.6151 1.08755 1.18348)
(0.667429 1.55649 1.10584)
(1.06923 1.75372 1.36838)
(1.43978 1.38459 0.448024)
(1.43127 0.933164 0.651697)
(1.23973 1.66344 0.542378)
(1.76874 1.3465 0.971135)
(1.44389 0.963655 1.39643)
(1.57407 1.45935 0.988675)
(1.15306 0.953307 1.4381)
(1.39429 0.971079 1.51191)
(1.84348 1.19928 1.13867)
(1.36994 1.00217 1.11883)
(1.23621 1.69307 1.08151)
(1.38948 1.17188 0.514053)
(1.47266 1.11139 1.03853)
(1.83567 1.28958 1.13191)
(1.69612 1.61857 1.24357)
(1.77613 1.57795 1.01448)
(1.54541 1.38283 1.61178)
(1.70103 1.2352 1.3933)
(1.30902 1.62991 1.36782)
(1.60434 1.45269 1.05847)
(1.36422 0.938744 1.35207)
(1.36165 0.892017 1.37148)
(1.69785 1.21165 1.40255)
(0.741994 1.83362 0.839713)
(1.57498 1.06542 1.02333)
(1.45461 1.03215 1.08716)
(1.34316 1.24112 1.12832)
(1.71196 1.21067 1.43476)
(1.67985 1.47733 1.05768)
(1.41093 1.61137 1.55265)
(1.30551 1.1221 0.862694)
(1.07067 1.81077 0.756675)
(1.63135 1.50698 1.09119)
(1.3091 0.998298 1.20578)
(0.991755 1.36978 1.48813)
(1.61415 1.00275 1.09907)
(1.63239 0.99027 1.11522)
(1.11488 1.41434 1.27025)
(1.4806 0.966816 1.12371)
(1.57496 1.44037 1.03557)
(1.56292 1.15727 1.04061)
(1.72498 0.951391 1.12222)
(1.64071 0.995673 1.11162)
(0.804578 1.15117 0.331956)
(1.61915 0.985893 1.12799)
(0.766824 1.07384 0.32814)
(1.17425 0.923605 0.967016)
(1.51226 1.05259 0.927539)
(1.47439 1.15895 1.21725)
(1.12415 0.861135 0.99774)
(1.29237 0.949305 0.822966)
(1.18638 1.55139 0.648199)
(1.80297 1.29969 1.23939)
(1.67888 1.22573 1.1544)
(1.15327 0.917473 0.94254)
(1.58795 1.24957 1.22695)
(1.44696 1.30467 0.427255)
(0.525122 1.08743 1.08275)
(0.720889 1.79743 1.00674)
(0.78646 1.78644 1.0271)
(0.68868 1.80378 0.963428)
(0.843848 1.25465 0.700315)
(0.908358 0.832018 1.12775)
(0.940234 1.74723 0.498779)
(1.35865 1.12018 1.45899)
(1.19858 1.42937 0.173113)
(0.904122 1.05394 0.918953)
(1.56056 1.5185 0.612356)
(1.36066 1.14289 0.355276)
(1.54386 1.44134 0.894465)
(1.3127 0.917817 0.770251)
(1.48096 1.73179 0.834335)
(1.44857 1.69551 0.836829)
(1.04983 1.36223 1.15187)
(1.17038 1.0933 0.473406)
(1.61192 1.49377 0.730787)
(1.08051 1.76624 0.547893)
(0.647552 1.61707 0.607931)
(0.641797 1.80977 0.942512)
(1.51473 1.55614 0.973679)
(1.31193 1.08095 0.93193)
(0.663503 1.47209 0.670363)
(1.20617 0.943056 0.981528)
(1.63454 1.46481 0.621993)
(1.4552 1.36512 0.656997)
(0.807505 1.06767 0.369483)
(0.804185 1.33633 0.635013)
(1.53277 1.07213 1.2793)
(0.897868 1.30987 0.67747)
(0.985132 1.14835 0.969609)
(0.963747 0.861025 0.787701)
(1.67797 1.03238 0.891897)
(1.31924 1.05045 0.419556)
(1.67752 1.09442 0.959561)
(1.31401 1.17368 1.00084)
(1.27557 1.11355 1.07574)
(1.61174 1.07212 1.05496)
(1.5356 1.07916 1.12736)
(1.30059 1.01656 0.457841)
(1.37811 1.41155 0.731057)
(0.920522 1.0089 0.630203)
(1.55227 1.1295 1.27858)
(1.62199 1.14393 1.23178)
(1.39456 1.28983 0.415372)
(1.01434 1.1038 0.959962)
(0.854464 1.40351 1.45138)
(1.50549 1.06991 1.17349)
(1.76008 1.18904 1.10817)
(1.50881 1.06624 1.25144)
(1.30338 1.07353 0.372615)
(1.65084 1.11858 1.25787)
(1.04906 1.6468 0.599088)
(0.72064 1.41872 0.387243)
(1.36986 1.83105 0.758959)
(1.11612 1.53199 0.358036)
(1.63026 1.47906 0.624576)
(1.38717 1.25056 0.288464)
(1.0019 0.861334 0.771515)
(1.20834 1.47303 1.26985)
(0.905158 1.49331 0.573994)