/*--------------------------------*- C++ -*----------------------------------*\
| =========                 |                                                 |
| \\      /  F ield         | OpenFOAM: The Open Source CFD Toolbox           |
|  \\    /   O peration     | Version:  v1806                                 |
|   \\  /    A nd           | Web:      www.OpenFOAM.com                      |
|    \\/     M anipulation  |                                                 |
\*---------------------------------------------------------------------------*/
FoamFile
{
    version     2.0;
    format      ascii;
    class       surfaceScalarField;
    location    "0.0805";
    object      phi;
}
// * * * * * * * * * * * * * * * * * * * * * * * * * * * * * * * * * * * * * //

dimensions      [0 3 -1 0 0 0 0];
oriented        oriented;


internalField   nonuniform List<scalar> 
187200
(
7.14267e-06
2.58578e-06
-9.73058e-06
5.09949e-05
-2.20429e-05
-2.18092e-05
7.29542e-05
-9.94986e-06
-1.20092e-05
9.23089e-05
-9.49385e-06
-9.86082e-06
0.000108189
-5.84261e-06
-1.00376e-05
0.000125211
-4.95808e-06
-1.20643e-05
0.000140357
-7.07555e-07
-1.44378e-05
0.000157128
5.30276e-07
-1.73017e-05
0.000170457
5.14736e-06
-1.84762e-05
0.000183011
6.18893e-06
-1.87423e-05
0.0001947
7.811e-06
-1.95e-05
0.000202298
1.27744e-05
-2.03726e-05
0.000193362
2.20082e-05
-1.30721e-05
0.000165508
3.61275e-05
-8.27372e-06
0.00012077
4.45007e-05
2.3665e-07
8.20116e-05
2.93245e-05
9.43376e-06
2.85004e-05
3.17274e-05
2.17837e-05
-2.35609e-05
4.56156e-05
6.44523e-06
-0.000121017
9.92312e-05
-1.77569e-06
-0.00025377
0.000136963
-4.21016e-06
-0.000505961
0.00022584
2.63513e-05
-0.000690372
0.000234918
-5.05069e-05
-0.000820655
0.000281697
-0.000151414
-0.000864239
0.000307395
-0.000263811
-0.000847942
0.000338448
-0.000354745
-0.00077857
0.000367182
-0.000436554
-0.00066779
0.000391953
-0.000502733
-0.000529128
0.000408032
-0.000546694
-0.000362424
0.000400432
-0.000567136
-0.000197984
0.000385172
-0.000549611
-6.50595e-05
0.000343082
-0.000476007
2.11641e-05
0.000298584
-0.000384807
5.51759e-05
0.000236108
-0.00027012
4.93797e-05
0.000174455
-0.000168659
2.61801e-05
0.000120492
-9.72928e-05
5.4892e-06
8.08605e-05
-6.01699e-05
-5.68145e-06
5.49676e-05
-4.37971e-05
-9.98666e-06
4.25783e-05
-3.8273e-05
-9.30328e-06
3.28842e-05
-3.35677e-05
2.29868e-05
-3.22899e-05
4.17449e-06
1.62366e-05
-1.78252e-05
4.4676e-05
-3.16731e-05
-3.0871e-05
8.61925e-05
-2.45165e-05
-2.69496e-05
0.000116827
-1.43555e-05
-2.57728e-05
0.000138798
-2.9786e-06
-2.48346e-05
0.000155641
7.23808e-06
-2.90395e-05
0.00016334
2.68099e-05
-3.5216e-05
0.000166967
3.81992e-05
-4.1296e-05
0.000160477
6.321e-05
-5.1573e-05
0.000143158
8.19641e-05
-5.84559e-05
0.000101257
0.000125082
-7.53698e-05
3.83025e-05
0.00016621
-9.04819e-05
-4.62367e-05
0.000203403
-9.68563e-05
-0.000148119
0.000245643
-0.000107634
-0.000271584
0.000300175
-0.000132209
-0.000452989
0.000374655
-0.000163925
-0.000629444
0.000450396
-0.000242214
-0.00081617
0.000533235
-0.000300894
-0.00098217
0.000635439
-0.000370207
-0.00113952
0.000735696
-0.000441382
-0.001293
0.000862723
-0.0004834
-0.00139128
0.000938531
-0.000605338
-0.00144948
0.00104459
-0.0007047
-0.00144008
0.0010889
-0.000790898
-0.00135886
0.00113383
-0.000876601
-0.0012162
0.00115805
-0.000933531
-0.00102374
0.00116434
-0.00096485
-0.0007961
0.00114232
-0.000961923
-0.00055856
0.00108351
-0.000920618
-0.000330865
0.00100416
-0.000846682
-0.000137034
0.000877259
-0.000728008
2.24334e-05
0.000734532
-0.000595416
0.000110124
0.000580611
-0.000432193
0.000136722
0.00045268
-0.000304823
0.000124907
0.000333405
-0.000201098
9.64685e-05
0.000247335
-0.000138037
6.46972e-05
0.000185469
-9.87303e-05
3.97103e-05
0.00014556
-7.7995e-05
1.49909e-05
0.000116025
-5.84218e-05
8.03079e-05
-4.23306e-05
1.88845e-05
9.85827e-06
-1.2506e-05
5.73422e-05
-3.55102e-05
-3.462e-05
9.82852e-05
-2.52045e-05
-4.02547e-05
0.000127741
-2.37356e-06
-4.14375e-05
0.000143562
2.88028e-05
-4.76027e-05
0.000148906
5.88479e-05
-5.69534e-05
0.000140418
0.000100431
-6.51334e-05
0.000123886
0.000137711
-8.29798e-05
9.57529e-05
0.000199165
-0.000107821
3.93173e-05
0.000266673
-0.000128273
-4.43128e-05
0.000349683
-0.000140972
-0.000148582
0.000433282
-0.000162803
-0.000303628
0.000537366
-0.000178917
-0.00048109
0.000645234
-0.000222129
-0.000679561
0.000754277
-0.000255632
-0.000863429
0.000865215
-0.000306693
-0.00102399
0.000973386
-0.000362431
-0.00116734
0.00109504
-0.000418458
-0.00130054
0.00123861
-0.000469967
-0.00143041
0.0013847
-0.000519142
-0.00155488
0.00152276
-0.00053557
-0.00162339
0.00160658
-0.000599545
-0.00164427
0.00171319
-0.000647715
-0.001612
0.00173349
-0.000676864
-0.00151979
0.00175629
-0.00071467
-0.00138103
0.00174478
-0.000725481
-0.00120531
0.00170449
-0.000715859
-0.00100468
0.0016251
-0.000683412
-0.000792338
0.00150688
-0.000635718
-0.000572347
0.00135816
-0.000573996
-0.000383394
0.00118161
-0.000493304
-0.000222638
0.0010001
-0.000426319
-0.000103886
0.000799446
-0.000337587
-2.0792e-05
0.000638061
-0.000268475
2.20808e-05
0.000489326
-0.000198793
3.78787e-05
0.000383489
-0.000151952
3.98666e-05
0.000304623
-0.000121141
3.17884e-05
0.000253643
-0.000100005
1.43446e-05
0.000204808
-7.13398e-05
0.000136849
-4.21966e-05
2.08751e-05
6.7225e-06
-1.77389e-05
5.88637e-05
-2.66093e-05
-4.68888e-05
9.90744e-05
-6.60345e-06
-5.88115e-05
0.000120642
4.18975e-05
-6.58383e-05
0.00012499
9.62776e-05
-7.18237e-05
0.000114098
0.0001548
-8.50607e-05
9.40617e-05
0.000230306
-0.000109838
5.6611e-05
0.000310755
-0.000135594
6.72454e-07
0.000422413
-0.000167309
-8.1768e-05
0.000535908
-0.000186795
-0.000199069
0.000669217
-0.000202233
-0.000345004
0.000799835
-0.000220618
-0.000505516
0.00093133
-0.000233452
-0.000660319
0.00104994
-0.0002499
-0.000811297
0.00117701
-0.000271756
-0.000952408
0.00130525
-0.000298929
-0.0010819
0.00142973
-0.000326854
-0.00119638
0.00155289
-0.000343373
-0.00130227
0.00169353
-0.000349028
-0.00140524
0.00182346
-0.000335795
-0.00152087
0.00192194
-0.000283538
-0.00158403
0.00196082
-0.000291076
-0.00160342
0.00202321
-0.000290628
-0.00158055
0.0019885
-0.000277877
-0.00150888
0.00196611
-0.000281495
-0.00140676
0.00191096
-0.000268297
-0.00128072
0.00182903
-0.000250587
-0.00113848
0.00171395
-0.000231081
-0.000984631
0.00156276
-0.000209736
-0.000817725
0.00139679
-0.000205536
-0.000639013
0.00120726
-0.000204362
-0.00046259
0.00102642
-0.000202751
-0.000306704
0.000840867
-0.000197307
-0.000181311
0.000702735
-0.000190066
-9.38162e-05
0.000572191
-0.00017036
-3.38371e-05
0.000473048
-0.000149538
3.94629e-06
0.000401462
-0.000134623
1.81846e-05
0.000349021
-0.000109615
1.564e-05
0.000285657
-7.83041e-05
0.000192306
-3.98165e-05
2.14629e-05
2.11884e-05
-3.59285e-05
6.07215e-05
9.98682e-06
-7.58545e-05
0.000103102
4.26326e-05
-9.16167e-05
0.000121156
0.000122061
-9.82171e-05
0.000116633
0.000206534
-0.000105733
8.81867e-05
0.000304221
-0.000120975
4.67356e-05
0.000423587
-0.00015183
4.79976e-06
0.00053494
-0.000182249
-4.21689e-05
0.000678612
-0.000209231
-0.000116093
0.00082878
-0.000218949
-0.000211396
0.000984926
-0.000220407
-0.000318604
0.0011241
-0.000217056
-0.000446566
0.00126761
-0.000208315
-0.000585224
0.00139664
-0.000208047
-0.000723157
0.00151692
-0.000201974
-0.000844754
0.0016246
-0.000197747
-0.000947579
0.00171671
-0.000184152
-0.00102394
0.00178287
-0.000153616
-0.00111369
0.00187173
-8.84442e-05
-0.00120805
0.00194065
-2.28293e-05
-0.00134183
0.00198162
7.40979e-05
-0.0014123
0.00193249
9.8795e-05
-0.00144909
0.00194967
0.000110331
-0.00145769
0.00188278
0.000114314
-0.00143075
0.00184205
9.71131e-05
-0.00138566
0.00177818
8.7678e-05
-0.00132179
0.00169147
7.36872e-05
-0.00125162
0.00158444
5.93393e-05
-0.00115595
0.00144854
1.8558e-05
-0.0010357
0.00130312
-2.65657e-05
-0.000888515
0.00113836
-7.82897e-05
-0.000721931
0.00098763
-0.000127791
-0.000554547
0.000831671
-0.000158188
-0.000390828
0.000715712
-0.000176695
-0.000252974
0.00061701
-0.000182673
-0.00013873
0.000525944
-0.00016714
-5.66451e-05
0.000467428
-0.000148051
-6.18749e-06
0.000420941
-0.000122379
8.99217e-06
0.000352725
-8.2248e-05
0.000237079
-3.57812e-05
1.4505e-05
6.95209e-05
-6.28374e-05
6.29196e-05
7.78475e-05
-0.000116275
0.000107264
0.000136927
-0.000138639
0.000126147
0.000241393
-0.000138215
0.000116226
0.000355189
-0.000138734
8.35115e-05
0.000486487
-0.000149552
5.59944e-05
0.00063681
-0.000185706
2.30269e-05
0.000784063
-0.000216156
-2.48393e-05
0.000953828
-0.00022735
-8.90947e-05
0.00110808
-0.000215045
-0.000162068
0.00125446
-0.000196565
-0.000245528
0.00138117
-0.000173609
-0.00033217
0.00150071
-0.000146465
-0.000414567
0.00159586
-0.000116823
-0.000496324
0.00168141
-8.27331e-05
-0.00056449
0.00173826
-4.55e-05
-0.000653036
0.00178118
2.40754e-05
-0.000755076
0.00179731
8.76018e-05
-0.000855135
0.00180658
0.000165209
-0.000948211
0.0017862
0.000247524
-0.00108631
0.0018086
0.000311127
-0.00118725
0.00170865
0.000324773
-0.00125918
0.00169806
0.000323543
-0.00131413
0.00161834
0.000319398
-0.00133933
0.00156993
0.000297324
-0.00135135
0.00151169
0.000278515
-0.00134886
0.00144262
0.000246363
-0.0013358
0.00136333
0.000208048
-0.0012979
0.0012626
0.000148038
-0.00121327
0.0011593
5.91855e-05
-0.00109829
0.00103948
-1.60952e-05
-0.000935328
0.000926065
-0.000101401
-0.000758335
0.000812738
-0.000158059
-0.000564261
0.000716968
-0.000195331
-0.000385649
0.000647564
-0.000209166
-0.000233659
0.000566695
-0.000192741
-0.000112188
0.000519216
-0.000173259
-3.22992e-05
0.000477619
-0.000136567
5.33081e-06
0.000404566
-8.94701e-05
0.000276933
-3.45242e-05
1.76595e-05
0.000146808
-9.49467e-05
8.28566e-05
0.000182376
-0.000169726
0.000132371
0.000272095
-0.000184681
0.000153837
0.000395239
-0.000175312
0.000145332
0.000533463
-0.000169769
0.000100826
0.000704208
-0.000173216
9.01955e-05
0.00085689
-0.000209449
6.8965e-05
0.00102376
-0.00021847
4.94269e-05
0.0011791
-0.000205736
9.47975e-06
0.00131987
-0.000171839
-4.3206e-05
0.00144455
-0.000137401
-0.000109435
0.00154701
-9.96124e-05
-0.00017919
0.00163124
-6.07728e-05
-0.000250374
0.00168295
-1.59042e-05
-0.000320957
0.00171248
3.95109e-05
-0.000382688
0.00171012
8.98771e-05
-0.000448436
0.00169633
0.0001506
-0.000515465
0.00164701
0.000217324
-0.000616965
0.00161243
0.00029565
-0.000721641
0.00152828
0.000362591
-0.00085783
0.00152491
0.00041988
-0.000996486
0.00140888
0.000438425
-0.00108127
0.001364
0.000418842
-0.00118287
0.0013179
0.000402044
-0.00125661
0.00128141
0.000362261
-0.00132278
0.00124946
0.0003284
-0.00137341
0.00121133
0.000281917
-0.00140727
0.00116679
0.0002304
-0.00141663
0.00110936
0.000162606
-0.00136696
0.00104699
6.26377e-05
-0.00128048
0.000965824
-1.28224e-05
-0.00114028
0.000879346
-9.34771e-05
-0.000954757
0.000793927
-0.000166716
-0.000733878
0.000703002
-0.000206912
-0.000502476
0.000660834
-0.000244673
-0.000320195
0.000610518
-0.000226104
-0.000160166
0.000564217
-0.00020503
-5.46961e-05
0.000530694
-0.000158544
6.04286e-07
0.000453168
-0.000103902
0.000315131
-3.75935e-05
2.75732e-05
0.000247115
-0.00012788
0.000110299
0.000316811
-0.00021716
0.000175379
0.000434339
-0.000227325
0.000201511
0.000569868
-0.000200761
0.000192957
0.000722119
-0.000180101
0.000179035
0.000898547
-0.000180417
0.00018576
0.00104999
-0.000199826
0.000182345
0.00121846
-0.000191282
0.000166911
0.0013538
-0.000159265
0.00012737
0.00147336
-0.000113953
7.97905e-05
0.00156822
-7.6095e-05
2.36203e-05
0.00163097
-2.77882e-05
-3.77432e-05
0.00166674
2.5866e-05
-0.00010195
0.00166472
8.24409e-05
-0.000164012
0.00163971
0.000134829
-0.000228077
0.00158371
0.000190471
-0.000293447
0.00151742
0.000244277
-0.000363841
0.00143053
0.000286876
-0.000453657
0.00136285
0.000339389
-0.000559436
0.0012555
0.000378564
-0.000676424
0.00122428
0.00041762
-0.000844532
0.00115282
0.000424167
-0.000955049
0.001074
0.000400519
-0.00109291
0.00107836
0.000377406
-0.00120605
0.00105389
0.000340655
-0.00130673
0.00104669
0.00030344
-0.00139239
0.00103335
0.000263644
-0.00146083
0.00101312
0.000222111
-0.00149811
0.000988268
0.000158365
-0.00148235
0.000945077
8.61567e-05
-0.00142015
0.000887762
1.58601e-05
-0.00130014
0.000817849
-5.85136e-05
-0.00111247
0.000752816
-0.000146558
-0.00089548
0.000688115
-0.000202106
-0.000641435
0.000647946
-0.000241157
-0.000413089
0.000639519
-0.000257348
-0.000216195
0.000595584
-0.000228262
-7.99437e-05
0.000576162
-0.00018172
-6.35994e-06
0.000496067
-0.000116482
0.000350869
-4.20977e-05
4.60918e-05
0.000357848
-0.000156825
0.000152651
0.000470257
-0.000260005
0.000246097
0.000608988
-0.000268095
0.000289393
0.000750388
-0.000223816
0.00028505
0.000914688
-0.000188227
0.000282611
0.00107601
-0.000175028
0.000279601
0.00122098
-0.000167975
0.000283115
0.00136348
-0.000148534
0.000277334
0.00147268
-0.000113098
0.000246565
0.00156601
-6.18769e-05
0.000202915
0.0016198
-7.92327e-06
0.000149874
0.00163862
4.53839e-05
8.35996e-05
0.00163175
0.000101261
1.55177e-05
0.00158425
0.000148547
-5.17427e-05
0.00151365
0.000193325
-0.000121954
0.00141911
0.000234815
-0.000194473
0.00132199
0.000267942
-0.000268822
0.00121543
0.000289449
-0.000347306
0.00113151
0.000309825
-0.000462706
0.00103778
0.000333118
-0.000572813
0.000984318
0.000350065
-0.000739716
0.0009648
0.000354925
-0.00088773
0.000880834
0.000341175
-0.00103705
0.000910484
0.000317196
-0.00117419
0.000895607
0.000295415
-0.0012929
0.000904146
0.000261266
-0.00140279
0.000900121
0.000243117
-0.00149328
0.000899442
0.000204162
-0.0015606
0.000880817
0.00017478
-0.00158123
0.000846422
0.00011928
-0.00153924
0.00079642
4.93506e-05
-0.00143326
0.00074181
-2.99424e-05
-0.00125097
0.000683749
-0.000113217
-0.00101995
0.000637313
-0.000180219
-0.000748768
0.000606002
-0.000229242
-0.00049192
0.000633774
-0.000251104
-0.000268565
0.000619106
-0.000246877
-0.000101866
0.000608933
-0.000199471
-1.46209e-05
0.000539441
-0.000130619
0.000385192
-4.89421e-05
6.41175e-05
0.000466095
-0.000172365
0.000196599
0.000628824
-0.000291049
0.000316399
0.000783973
-0.000294785
0.000373686
0.000926555
-0.000233454
0.000388621
0.00107834
-0.000178583
0.000387212
0.00121993
-0.00014251
0.00037789
0.00135292
-0.000122625
0.000374045
0.00146424
-9.69136e-05
0.000365746
0.00154273
-6.17574e-05
0.000348784
0.00159173
-8.76381e-06
0.00031205
0.00161762
3.89099e-05
0.000242402
0.00160516
0.000103109
0.000173084
0.00155182
0.000149255
9.86326e-05
0.00146746
0.000191246
2.26756e-05
0.00136648
0.00022313
-5.58512e-05
0.00125139
0.000246243
-0.00013457
0.00114213
0.00025858
-0.000214783
0.00103621
0.000259435
-0.000299431
0.00095663
0.000259531
-0.000415429
0.000889734
0.000264044
-0.000539998
0.000836803
0.000272085
-0.00068415
0.000830067
0.000278884
-0.00085308
0.000767004
0.00028276
-0.000992744
0.000783482
0.000266665
-0.00113807
0.000777934
0.000263004
-0.00126008
0.000789479
0.000236671
-0.00138281
0.000789327
0.000233527
-0.00149465
0.000789313
0.000221968
-0.00158128
0.000766128
0.000201319
-0.00162761
0.000735761
0.000156992
-0.00161242
0.000697843
8.33862e-05
-0.00152609
0.000656104
-6.27543e-07
-0.00136505
0.000613428
-9.07138e-05
-0.00113447
0.000577456
-0.000170724
-0.000862502
0.000543692
-0.00020966
-0.000569155
0.000576976
-0.000236548
-0.000319913
0.000613964
-0.0002441
-0.00012765
0.000623635
-0.000206964
-2.31807e-05
0.000572202
-0.00013723
0.000415417
-5.34058e-05
8.02066e-05
0.000564446
-0.000178557
0.000242126
0.000777788
-0.000310883
0.000388539
0.000946877
-0.000309318
0.000464714
0.00108485
-0.000234467
0.000495499
0.00121494
-0.000167393
0.000492753
0.00133284
-0.000110158
0.000483268
0.00144071
-7.83013e-05
0.000467028
0.00152263
-4.21484e-05
0.000440463
0.00157716
-7.85634e-06
0.000405552
0.00159869
2.79547e-05
0.000371219
0.00157662
7.53369e-05
0.000314991
0.00152732
0.000134071
0.000238959
0.00145312
0.00017473
0.000150598
0.00134443
0.000211393
6.46757e-05
0.00122383
0.000228567
-2.24115e-05
0.00110223
0.000236253
-0.000109307
0.000995579
0.000233448
-0.000197933
0.000900031
0.000224805
-0.000294726
0.000834856
0.000218567
-0.000398855
0.000780895
0.000212968
-0.000518483
0.000740937
0.000215494
-0.000634715
0.00072122
0.000225079
-0.000802901
0.000695137
0.000240053
-0.000936992
0.00067909
0.000238483
-0.00107645
0.000674035
0.000243355
-0.00120382
0.000676201
0.000240648
-0.00133453
0.00067929
0.00024075
-0.00146267
0.000667952
0.000249496
-0.00157248
0.000649261
0.000226684
-0.00164234
0.000624826
0.000180792
-0.00166381
0.000590785
0.000128525
-0.00160903
0.000565502
3.58239e-05
-0.00146557
0.000528701
-5.87298e-05
-0.0012246
0.000503984
-0.000167495
-0.000936995
0.00047661
-0.000220528
-0.000631717
0.000506592
-0.000234895
-0.000366428
0.000572083
-0.000223407
-0.000149683
0.000625952
-0.000219062
-2.97593e-05
0.000594886
-0.000142608
0.000445997
-6.03388e-05
9.28466e-05
0.000645135
-0.000173536
0.000281546
0.000907995
-0.000318906
0.000452858
0.00109091
-0.000315347
0.000547366
0.00121691
-0.000226569
0.000589985
0.00132233
-0.000150005
0.000592027
0.00141233
-8.15376e-05
0.000580178
0.00149209
-3.95294e-05
0.000551842
0.00154666
4.30285e-06
0.000511918
0.00157552
4.15606e-05
0.000459183
0.00156472
8.66993e-05
0.000402386
0.00152564
0.000107776
0.000335622
0.00144695
0.000147132
0.000265992
0.00133812
0.000184628
0.00018103
0.0012199
0.000209487
9.08247e-05
0.0010962
0.000217834
-1.41542e-06
0.000980373
0.000214093
-9.10361e-05
0.000881741
0.000203458
-0.000184974
0.00080065
0.000193319
-0.000286178
0.000748927
0.000187132
-0.000386751
0.000700169
0.0001813
-0.000494799
0.000665633
0.000183351
-0.000595205
0.00062816
0.000193466
-0.000739298
0.000623682
0.000215548
-0.000860851
0.000581855
0.000218788
-0.000988109
0.000566261
0.000235032
-0.00111115
0.000562004
0.000237242
-0.0012511
0.000553462
0.000265777
-0.00139042
0.000544647
0.000262622
-0.00151507
0.000531711
0.000242202
-0.00161718
0.000517129
0.000209801
-0.00165756
0.00050478
0.000126388
-0.00163557
0.000486531
5.69848e-05
-0.00153107
0.000453226
-2.9034e-05
-0.00133212
0.000428605
-0.000123566
-0.00103777
0.000413493
-0.000231238
-0.000701456
0.00042764
-0.000257358
-0.000400596
0.000498691
-0.000227468
-0.000172937
0.00059619
-0.000197896
-3.71638e-05
0.000604947
-0.000145835
0.000472294
-6.34601e-05
0.000102956
0.000702409
-0.00016023
0.000314816
0.00101272
-0.00031658
0.000511759
0.0012053
-0.000311329
0.000626215
0.00131694
-0.000214488
0.00067504
0.00140154
-0.000128034
0.000682566
0.00146501
-6.02051e-05
0.00066806
0.00151311
-6.51507e-06
0.000632722
0.00153869
4.33071e-05
0.000580455
0.00154082
8.69668e-05
0.000512362
0.00151108
0.000121735
0.00043645
0.00144843
0.000153116
0.000354589
0.00135575
0.000173058
0.000272993
0.00123781
0.000181905
0.000188251
0.00110897
0.000195678
0.000100023
0.000988348
0.000196081
9.91742e-06
0.000880813
0.000189666
-7.76012e-05
0.000792148
0.000177112
-0.000169571
0.000721409
0.000171211
-0.000265051
0.000676072
0.000168336
-0.000362456
0.000628701
0.000168872
-0.000454919
0.000586796
0.0001713
-0.000550043
0.000545336
0.000177947
-0.000659516
0.000537325
0.000195831
-0.000760901
0.000481362
0.000201878
-0.000872811
0.000459394
0.000218777
-0.000995646
0.000442434
0.000242405
-0.00113508
0.000433755
0.000259138
-0.0012795
0.000427268
0.000261807
-0.0014227
0.00042263
0.000252276
-0.00153985
0.000424442
0.000209839
-0.0016271
0.000422178
0.000169851
-0.0016404
0.000399947
9.98777e-05
-0.00158293
0.000358177
3.7582e-05
-0.00141727
0.000321295
-5.83485e-05
-0.00114563
0.000310227
-0.000168378
-0.000794006
0.000334164
-0.000258143
-0.000451237
0.000417961
-0.000262039
-0.000195187
0.000532265
-0.000192125
-4.47855e-05
0.000600665
-0.000146119
0.000497304
-6.97953e-05
0.000106655
0.000739069
-0.000143314
0.000337343
0.00108884
-0.000306813
0.000558701
0.00129062
-0.000306684
0.000690449
0.00138923
-0.000204044
0.000745507
0.00145261
-0.000106126
0.000752432
0.00149188
-3.37961e-05
0.000732925
0.00151589
1.67211e-05
0.000686936
0.00151139
7.32879e-05
0.000626163
0.00148843
0.000113166
0.000552941
0.00143546
0.000148849
0.000465658
0.00135921
0.00017651
0.000369968
0.00125562
0.000195827
0.000274252
0.00113632
0.000197209
0.000190237
0.00100907
0.000183909
0.000105264
0.000894046
0.000179276
2.34818e-05
0.0007963
0.000166295
-6.1649e-05
0.000718222
0.000159057
-0.0001519
0.000654471
0.000157189
-0.000234959
0.000602744
0.000156389
-0.000322377
0.000553532
0.000162588
-0.000400607
0.000502446
0.00016258
-0.000488471
0.000463955
0.000169246
-0.000561347
0.000437977
0.000172223
-0.000648524
0.000384467
0.000184071
-0.00074935
0.000357494
0.000202725
-0.000861097
0.000328055
0.000226126
-0.000992608
0.0003206
0.000244664
-0.00113478
0.000316829
0.000252615
-0.00128188
0.000327034
0.000242695
-0.00143004
0.000336158
0.000236444
-0.00154307
0.000326568
0.000208638
-0.00161063
0.000288414
0.000179093
-0.00159918
0.000236579
0.000110142
-0.00148038
0.000186341
1.61606e-05
-0.00123625
0.000160731
-9.46307e-05
-0.000890748
0.00019127
-0.000202612
-0.000508272
0.000304296
-0.000268811
-0.000217847
0.000463111
-0.000221271
-4.91481e-05
0.000578793
-0.000146827
0.000523383
-7.52286e-05
0.000111797
0.000745089
-0.000117818
0.000359518
0.00112814
-0.000287023
0.000600106
0.00134207
-0.000292039
0.000748642
0.00143481
-0.000194112
0.000808869
0.0014781
-8.57242e-05
0.000813584
0.00149169
-4.52376e-06
0.00078722
0.00148748
5.47745e-05
0.000740019
0.00146143
9.71609e-05
0.000673299
0.00141723
0.000137919
0.000591323
0.00135029
0.000167144
0.00049663
0.00126207
0.000191825
0.000392564
0.00115299
0.000206689
0.000285829
0.00103601
0.000207041
0.000192438
0.000916529
0.000185934
0.000107891
0.000811879
0.000166714
3.18902e-05
0.000718487
0.000153814
-4.2683e-05
0.000647283
0.000145512
-0.00012249
0.000584255
0.000150022
-0.000197088
0.000527959
0.000149383
-0.00027191
0.000475059
0.000153295
-0.000343868
0.000419909
0.000154496
-0.000411827
0.000380002
0.000151912
-0.000466573
0.00034358
0.000149143
-0.000536401
0.000295367
0.000158928
-0.000621806
0.000268383
0.000174516
-0.000721188
0.000230952
0.000196485
-0.000836124
0.000219833
0.000215703
-0.000969098
0.000225306
0.000224495
-0.0011209
0.00024199
0.000236851
-0.00126986
0.000245219
0.000239892
-0.00141377
0.000225572
0.000244909
-0.00152517
0.000184127
0.000215687
-0.0015703
0.00012038
0.000161333
-0.00151048
4.83817e-05
7.81326e-05
-0.00131451
-1.9618e-06
-3.32778e-05
-0.000999414
1.24966e-05
-0.000136318
-0.000592713
0.000131818
-0.000234222
-0.000245893
0.000369497
-0.000253205
-6.0117e-05
0.000536692
-0.000143674
0.000539046
-7.57803e-05
0.000112487
0.000725927
-9.33264e-05
0.000369516
0.00113341
-0.000262295
0.000624
0.0013607
-0.000273108
0.000785735
0.00145066
-0.000177589
0.000853625
0.0014807
-7.04815e-05
0.000853371
0.00146959
2.23551e-05
0.000820841
0.00144429
7.57257e-05
0.000763071
0.00139576
0.000123444
0.000690737
0.00133607
0.000153488
0.000607518
0.00125668
0.000176825
0.000509711
0.00115842
0.000201464
0.000404875
0.00105005
0.000207773
0.000300402
0.000935629
0.000204853
0.000203623
0.000825787
0.00018752
0.000123354
0.00072872
0.000163428
5.17409e-05
0.00064299
0.00014711
-1.67209e-05
0.000575486
0.000140259
-8.84916e-05
0.000516229
0.000139797
-0.000154202
0.000454325
0.000139345
-0.000213011
0.000392815
0.000141053
-0.000276979
0.000345269
0.000138607
-0.000331833
0.00030446
0.000130396
-0.000381481
0.000265322
0.000127905
-0.000435994
0.000219587
0.000130293
-0.000503793
0.000190004
0.000146177
-0.000592624
0.00015531
0.000164473
-0.000688859
0.00013786
0.000178208
-0.000813583
0.00015029
0.00019974
-0.00094665
0.000152727
0.00022233
-0.00109829
0.00014385
0.000253006
-0.00125642
0.000123028
0.000260678
-0.00139765
7.64712e-05
0.000248888
-0.00148902
6.56636e-06
0.000205181
-0.00148556
-8.67696e-05
0.000131695
-0.00135281
-0.000165834
3.11191e-05
-0.00106998
-0.000189237
-8.11016e-05
-0.0006786
-7.87475e-05
-0.000180811
-0.000278217
0.00019843
-0.000229316
-6.30888e-05
0.000482885
-0.00016132
0.00055086
-7.49018e-05
0.000123273
0.000637945
-3.52911e-05
0.000390238
0.00108646
-0.000220021
0.000657366
0.00133583
-0.000242257
0.000837357
0.00142395
-0.000153279
0.000908451
0.00144296
-3.33577e-05
0.000903921
0.00141616
5.79644e-05
0.000862456
0.00137068
0.000115078
0.000801859
0.00130487
0.000151488
0.000727987
0.00123545
0.000174491
0.000641987
0.00115223
0.000190453
0.000545063
0.00105846
0.000196882
0.000437767
0.000952744
0.000204607
0.000330024
0.000847832
0.00019554
0.000229647
0.000745702
0.000180462
0.000145312
0.000654636
0.000158418
6.80951e-05
0.000576808
0.000143399
3.52193e-06
0.000507476
0.000132584
-4.83003e-05
0.000438822
0.000129229
-9.88811e-05
0.000380946
0.00012396
-0.000158986
0.000331846
0.000121075
-0.000215551
0.000285531
0.000116304
-0.000261783
0.000240828
0.000109863
-0.000304954
0.000200279
0.000108214
-0.000352997
0.000159157
0.000108473
-0.000404437
0.000123876
0.000117569
-0.00047778
9.0656e-05
0.000137997
-0.000561855
6.68958e-05
0.000155038
-0.000660578
6.89063e-05
0.000180107
-0.000781775
5.90894e-05
0.000214835
-0.000926152
4.51865e-05
0.000243039
-0.001088
2.09502e-05
0.000263929
-0.00124678
-2.9356e-05
0.000264605
-0.00137381
-0.000105831
0.000239423
-0.00142353
-0.000216577
0.000179534
-0.00135347
-0.000323745
8.78457e-05
-0.00113346
-0.000386161
-2.30808e-05
-0.00077514
-0.000312807
-0.000124263
-0.000348871
-4.51763e-05
-0.000182664
-6.65091e-05
0.000381407
-0.000180884
0.000547831
-6.34794e-05
0.000118984
0.000528676
-9.71504e-06
0.000373613
0.00103295
-0.000201116
0.00065178
0.00129548
-0.00023782
0.000846278
0.00138515
-0.000155697
0.000928955
0.00139389
-3.36086e-05
0.000925315
0.0013496
7.01934e-05
0.000885068
0.00128434
0.000126581
0.000814103
0.00121275
0.000163086
0.000726177
0.0011371
0.000186277
0.000633529
0.00104542
0.00019946
0.000537849
0.000948689
0.000205448
0.000439716
0.000849285
0.000201593
0.000343172
0.000751866
0.000192511
0.000254593
0.00066332
0.000170961
0.000179782
0.000579207
0.000150241
0.000113717
0.000506645
0.000136228
5.02293e-05
0.00044179
0.000129173
-1.41941e-05
0.000383644
0.000119602
-6.92435e-05
0.000327829
0.000108166
-0.000115721
0.000276597
0.000101727
-0.000160245
0.000232252
9.78017e-05
-0.000199853
0.000188387
9.20489e-05
-0.000240941
0.000149291
9.20761e-05
-0.000280171
0.000109405
8.89813e-05
-0.000328009
7.07815e-05
0.000100932
-0.000387324
3.372e-05
0.00011625
-0.000463001
2.79828e-06
0.000139774
-0.000544968
-1.96503e-05
0.000170523
-0.000646833
-4.36577e-05
0.000204612
-0.000767791
-7.3171e-05
0.000239315
-0.000913254
-0.000101141
0.000267554
-0.00107244
-0.000151484
0.000281313
-0.00122492
-0.000222508
0.000269162
-0.00132079
-0.000344786
0.000224071
-0.00130887
-0.000482905
0.000147243
-0.00113988
-0.000606489
5.13389e-05
-0.000807423
-0.000583787
-6.14746e-05
-0.000394049
-0.000316698
-0.000141852
-6.20737e-05
0.000200071
-0.00015064
0.000530108
-4.43516e-05
0.000147038
0.000333454
4.81839e-05
0.000381445
0.000920373
-0.00012183
0.000665103
0.00119769
-0.000185867
0.00086377
0.00129358
-0.000107099
0.000956114
0.00129319
8.36219e-06
0.00095038
0.00124769
0.000107647
0.000903501
0.00117225
0.000158974
0.000834814
0.00108851
0.000192925
0.000763804
0.00100347
0.000204639
0.0006873
0.000914769
0.000207152
0.000602263
0.000831773
0.000201953
0.00050724
0.000750952
0.000193357
0.000407954
0.000672052
0.000179099
0.000312003
0.000599904
0.000159367
0.000229422
0.000530933
0.000130855
0.000154493
0.00046836
0.000113214
8.69325e-05
0.000401979
0.000107372
2.04615e-05
0.00034225
0.000107864
-3.20574e-05
0.000285728
9.46209e-05
-7.55812e-05
0.000235293
8.48278e-05
-0.000113212
0.000187235
8.26484e-05
-0.000148945
0.000146862
7.72576e-05
-0.000183442
0.000107106
7.66803e-05
-0.000219335
6.92987e-05
7.59991e-05
-0.00026341
2.78772e-05
8.69784e-05
-0.000312774
-1.33801e-05
9.64639e-05
-0.000370579
-5.20337e-05
0.000112637
-0.000438169
-9.57396e-05
0.000143679
-0.000527335
-0.000134359
0.000179867
-0.000642241
-0.000175076
0.000216812
-0.000785548
-0.000213537
0.000255704
-0.000941798
-0.000287829
0.000292596
-0.00110278
-0.000376274
0.00031475
-0.00122461
-0.000527014
0.000304053
-0.00127001
-0.000690563
0.00025306
-0.00117741
-0.000870681
0.000171588
-0.000895777
-0.000921204
5.57868e-05
-0.000463259
-0.000697128
-5.20865e-05
-8.71003e-05
-7.66273e-05
-9.946e-05
0.000456384
-1.33757e-05
0.000118173
0.000204143
1.11374e-05
0.000334796
0.000841744
-0.000137995
0.000622316
0.00111605
-0.000205882
0.000835657
0.00121508
-0.000134841
0.000945499
0.0012024
-1.9059e-05
0.000967974
0.00114355
8.16648e-05
0.000934583
0.00105191
0.000153728
0.000874197
0.000972321
0.000176574
0.000795819
0.000897548
0.000184302
0.00070458
0.000823069
0.000182939
0.000609337
0.000749018
0.000177998
0.000512029
0.000678161
0.000170099
0.000418735
0.000608538
0.000156808
0.000330077
0.000547365
0.000141196
0.000249224
0.000487188
0.000124599
0.000184476
0.000431866
0.000101243
0.000128311
0.00037137
8.67746e-05
7.26251e-05
0.000314198
8.37383e-05
1.81524e-05
0.000255756
8.44444e-05
-2.37119e-05
0.000200221
7.69364e-05
-6.71629e-05
0.000158922
7.17635e-05
-0.00010042
0.000111049
6.90697e-05
-0.000135361
7.49025e-05
6.71444e-05
-0.000168886
3.2688e-05
7.01356e-05
-0.000209698
-9.3784e-06
7.80668e-05
-0.00025966
-4.82558e-05
8.48373e-05
-0.000313674
-8.96319e-05
9.16127e-05
-0.000373374
-0.000148038
0.000111999
-0.000439668
-0.000211409
0.000143344
-0.000512894
-0.000282686
0.000180836
-0.000602034
-0.000351686
0.000227289
-0.000720526
-0.000446983
0.000277645
-0.000875645
-0.000543303
0.000322147
-0.00104417
-0.000702994
0.000344508
-0.00116516
-0.000902339
0.000332765
-0.00115231
-0.00114817
0.000264642
-0.000973299
-0.0012614
0.000161185
-0.000573125
-0.00113115
3.38473e-05
-0.000148531
-0.000478422
-2.28006e-05
0.000259689
4.81636e-05
8.62163e-05
0.000101325
1.66018e-05
0.000326769
0.000723258
-0.000122067
0.000604515
0.00102372
-0.000185417
0.000833442
0.00113211
-0.000145959
0.000954905
0.00112316
-4.22165e-05
0.000983558
0.00106164
5.32544e-05
0.000939324
0.000968017
0.000128127
0.00087152
0.00088055
0.000159574
0.000803304
0.000799806