/*--------------------------------*- C++ -*----------------------------------*\
| =========                 |                                                 |
| \\      /  F ield         | OpenFOAM: The Open Source CFD Toolbox           |
|  \\    /   O peration     | Version:  v1806                                 |
|   \\  /    A nd           | Web:      www.OpenFOAM.com                      |
|    \\/     M anipulation  |                                                 |
\*---------------------------------------------------------------------------*/
FoamFile
{
    version     2.0;
    format      ascii;
    class       volVectorField;
    location    "0.1115";
    object      U_0;
}
// * * * * * * * * * * * * * * * * * * * * * * * * * * * * * * * * * * * * * //

dimensions      [0 1 -1 0 0 0 0];


internalField   nonuniform List<vector> 
64000
(
(-0.0114253 -0.0138866 -0.00977869)
(0.017117 -0.0132768 -0.00723905)
(0.0237495 -0.00457464 5.28841e-05)
(0.0288368 -0.00366251 0.00117909)
(0.0303678 -0.00256035 0.00151451)
(0.0313012 -0.00310991 0.00186656)
(0.0316574 -0.00403047 0.00186018)
(0.0296487 -0.00473595 0.00236748)
(0.0293988 -0.00580716 0.00309418)
(0.0242462 -0.00565191 0.00429047)
(0.0185851 -0.007144 0.00280612)
(0.0091759 -0.00705572 0.0085086)
(-0.00307264 -0.0121982 0.00591476)
(-0.0265706 -0.0175184 0.00415274)
(-0.0512721 -0.0184627 0.00413516)
(-0.0866222 -0.0192785 0.00271838)
(-0.108949 -0.00196402 0.000745369)
(-0.1539 -0.00483099 -0.00344655)
(-0.146527 -0.00876889 0.00324628)
(-0.210952 -0.0261508 -0.0127206)
(-0.180488 -0.0187482 -0.0174663)
(-0.0873742 -0.0216971 -0.0370818)
(-0.105028 -0.00476437 -0.0224447)
(-0.103641 -0.0017688 -0.0367779)
(-0.1264 0.00444646 -0.0474837)
(-0.119913 0.0123321 -0.057807)
(-0.109391 0.0227401 -0.0620968)
(-0.0721725 0.0330129 -0.0592128)
(-0.0382724 0.0407184 -0.0544716)
(0.00589061 0.0513444 -0.0414821)
(0.0500532 0.050076 -0.0324167)
(0.0879141 0.0395359 -0.0258411)
(0.103501 0.0295583 -0.0128751)
(0.100991 0.0155424 -0.00564849)
(0.0870035 0.00673816 0.000775253)
(0.0689596 -0.00129211 0.00330514)
(0.0502049 -0.00548861 0.00409244)
(0.0302219 -0.00516622 0.00490792)
(0.0160999 -0.00381768 0.0051647)
(0.00237043 -0.00246507 0.00331777)
(-0.00814322 0.00330637 -0.00597923)
(0.00890012 -0.0175543 -0.00584928)
(0.0247269 -0.0112682 -0.0025143)
(0.0363356 -0.00768853 -0.000985241)
(0.0427489 -0.00307875 -0.00165833)
(0.0437842 -0.00113593 -0.00183069)
(0.0433132 0.00237199 -0.00380639)
(0.0372509 0.00406506 -0.00294162)
(0.0312678 0.0074948 -0.00835591)
(0.0145965 0.0148722 -0.00358767)
(-0.00615654 0.022356 -0.00797441)
(-0.0402419 0.0318018 0.000450098)
(-0.084678 0.0404889 -0.00379158)
(-0.136021 0.0588413 -0.00654029)
(-0.192087 0.0735738 -0.0117639)
(-0.248097 0.0830571 -0.0171517)
(-0.317 0.0914856 -0.0440809)
(-0.421181 0.0931914 -0.059703)
(-0.462669 0.100355 -0.0777223)
(-0.553722 0.101448 -0.0960895)
(-0.501224 0.129721 -0.0889842)
(-0.377723 0.145856 -0.12446)
(-0.378022 0.193068 -0.131385)
(-0.363668 0.214516 -0.143799)
(-0.359938 0.23874 -0.155838)
(-0.32046 0.259731 -0.162656)
(-0.274712 0.280838 -0.164111)
(-0.201678 0.295824 -0.152531)
(-0.128515 0.302359 -0.133045)
(-0.0548107 0.305566 -0.109552)
(0.00768549 0.291461 -0.0766567)
(0.0712591 0.260126 -0.0461859)
(0.108772 0.21257 -0.0388386)
(0.121263 0.160237 -0.0259249)
(0.116225 0.110018 -0.012645)
(0.0978206 0.0702772 -0.00517616)
(0.078433 0.0419587 -0.000910432)
(0.0540178 0.026951 2.94822e-05)
(0.0322415 0.0171536 0.00127818)
(0.00787584 0.0089234 0.0011914)
(-0.000453438 -0.00383738 0.00136021)
(0.0156621 -0.023009 -0.00242103)
(0.0326724 -0.0177801 -0.00326753)
(0.0442603 -0.00568657 -0.0043432)
(0.0475723 0.00304449 -0.00611579)
(0.0459932 0.0135453 -0.00770931)
(0.0397988 0.0279114 -0.00877241)
(0.0251272 0.0411055 -0.0107415)
(0.0116936 0.0650916 -0.0021772)
(-0.0162395 0.0862393 -0.00425497)
(-0.0536985 0.113574 -0.00811943)
(-0.104179 0.143407 -0.0126762)
(-0.156385 0.179475 -0.017437)
(-0.230869 0.208639 -0.0317608)
(-0.321209 0.229842 -0.0370964)
(-0.417768 0.245183 -0.0435432)
(-0.496601 0.250323 -0.0608462)
(-0.583518 0.267511 -0.0800446)
(-0.618712 0.300036 -0.0981446)
(-0.695385 0.336998 -0.115831)
(-0.62728 0.374031 -0.10016)
(-0.476545 0.409082 -0.1243)
(-0.454654 0.465108 -0.122184)
(-0.428697 0.49434 -0.122842)
(-0.416122 0.526172 -0.12656)
(-0.372031 0.546927 -0.125609)
(-0.325788 0.56149 -0.120873)
(-0.258873 0.563755 -0.105141)
(-0.195043 0.553706 -0.0825156)
(-0.128542 0.53267 -0.0592837)
(-0.0745821 0.500341 -0.0394346)
(-0.0293065 0.451956 -0.0277441)
(0.00325782 0.379478 -0.0172833)
(0.0261949 0.306172 -0.00866974)
(0.0400136 0.227092 -0.0104952)
(0.0466052 0.162684 -0.0108777)
(0.0472299 0.115961 -0.00712538)
(0.0381802 0.0794021 -0.00503753)
(0.0271584 0.0535222 -0.00156215)
(0.00791434 0.0279181 0.00103548)
(0.00129777 -0.00911057 0.00213322)
(0.0183073 -0.0251109 -0.00157868)
(0.0390429 -0.0125829 -0.00417193)
(0.0465883 0.00403963 -0.00765976)
(0.0446875 0.0276884 -0.00813603)
(0.0417462 0.0512683 -0.0093489)
(0.0294 0.0856102 -0.00931431)
(0.0123319 0.117171 -0.00511663)
(-0.012472 0.163068 -0.010657)
(-0.0568734 0.201716 -0.0127718)
(-0.102483 0.245963 -0.0174902)
(-0.162141 0.284129 -0.0237698)
(-0.240247 0.314093 -0.0290437)
(-0.330987 0.330314 -0.0299489)
(-0.41274 0.352722 -0.033268)
(-0.490607 0.375891 -0.0376783)
(-0.554511 0.407933 -0.0539249)
(-0.628218 0.437126 -0.064282)
(-0.649669 0.48283 -0.074868)
(-0.715283 0.531543 -0.078809)
(-0.634713 0.562185 -0.0409153)
(-0.462583 0.589628 -0.0456597)
(-0.427946 0.628859 -0.0368628)
(-0.401332 0.633813 -0.0293121)
(-0.389627 0.646787 -0.0280103)
(-0.354278 0.646128 -0.0236113)
(-0.319788 0.638635 -0.0201494)
(-0.269412 0.618623 -0.0120406)
(-0.223188 0.592176 0.000154342)
(-0.17725 0.557951 0.00746165)
(-0.147607 0.515841 0.0120877)
(-0.12133 0.469778 0.0108047)
(-0.0974776 0.409302 0.00475105)
(-0.0743952 0.347515 -0.00304837)
(-0.0502766 0.268536 -0.00648085)
(-0.0197403 0.201741 -0.0108482)
(0.000951757 0.147846 -0.0110272)
(0.00923203 0.112268 -0.0082182)
(0.0169405 0.0794338 -0.00372665)
(0.00632612 0.0406116 0.000782831)
(0.000978999 -0.00992313 0.000381199)
(0.0234901 -0.0148793 -0.00389184)
(0.0460208 0.00221343 -0.0082761)
(0.0551437 0.035029 -0.00885899)
(0.0530756 0.0723161 -0.00889988)
(0.0469777 0.117492 -0.0151399)
(0.0293477 0.173208 -0.0130844)
(0.00311624 0.229597 -0.00593764)
(-0.0275207 0.286104 -0.00851991)
(-0.0791157 0.333356 -0.0108704)
(-0.13622 0.372056 -0.0141474)
(-0.211415 0.395071 -0.0166151)
(-0.284602 0.415684 -0.0171396)
(-0.354693 0.440593 -0.0205228)
(-0.420923 0.471197 -0.0224416)
(-0.489655 0.504268 -0.02339)
(-0.541319 0.534864 -0.0286117)
(-0.597399 0.566424 -0.0271922)
(-0.598185 0.62376 -0.0208882)
(-0.649154 0.673517 -0.0282829)
(-0.569894 0.699264 0.0107501)
(-0.391394 0.709221 0.0177324)
(-0.353718 0.718529 0.0321233)
(-0.336385 0.688245 0.036613)
(-0.33733 0.672025 0.0360573)
(-0.321102 0.644583 0.0416631)
(-0.306285 0.612848 0.0427183)
(-0.274682 0.57478 0.0466296)
(-0.249164 0.53286 0.0397308)
(-0.22292 0.491621 0.0309428)
(-0.204335 0.445648 0.0206243)
(-0.193542 0.411549 0.0136349)
(-0.18402 0.372626 0.00653579)
(-0.174833 0.341393 -0.00563235)
(-0.151271 0.27843 -0.0145107)
(-0.101578 0.209504 -0.0151584)
(-0.0502442 0.162142 -0.0140879)
(-0.0156818 0.132425 -0.012062)
(0.00331925 0.0985533 -0.00642364)
(0.00344323 0.0510782 0.00085563)
(0.00517437 -0.00331611 -0.000284803)
(0.0282719 0.0017978 -0.00646171)
(0.0593751 0.0290212 -0.00727308)
(0.0707018 0.0793314 -0.00975944)
(0.0659854 0.136528 -0.0146977)
(0.0644031 0.199642 -0.0186236)
(0.0457786 0.273986 -0.014837)
(0.0129425 0.326604 -0.00578423)
(-0.0341903 0.371811 -0.00752486)
(-0.101799 0.406744 -0.00977887)
(-0.168254 0.437262 -0.0118485)
(-0.23134 0.465283 -0.0116087)
(-0.287221 0.498912 -0.0100317)
(-0.343986 0.529618 -0.00660681)
(-0.390423 0.557949 -0.00120482)
(-0.441681 0.586988 0.0046319)
(-0.474043 0.617393 0.00857742)
(-0.501533 0.648827 0.0103078)
(-0.492838 0.69827 0.00740752)
(-0.534895 0.739923 0.00939643)
(-0.458979 0.758831 0.0453388)
(-0.300068 0.719087 0.0557862)
(-0.280634 0.69829 0.0689952)
(-0.284974 0.636247 0.0771585)
(-0.299815 0.597839 0.0777356)
(-0.302921 0.554152 0.0761391)
(-0.303873 0.512334 0.0732415)
(-0.292318 0.468953 0.0660827)
(-0.279686 0.42172 0.0639105)
(-0.267321 0.381871 0.0419103)
(-0.258304 0.337541 0.0298066)
(-0.246741 0.306329 0.0137342)
(-0.232377 0.279098 0.00385849)
(-0.236997 0.267416 -0.00761253)
(-0.238369 0.243026 -0.0184823)
(-0.173072 0.194293 -0.0153263)
(-0.0907474 0.163187 -0.0158256)
(-0.0391423 0.13778 -0.0124298)
(-0.00430619 0.106355 -0.00725706)
(0.00254017 0.0548947 0.0014455)
(0.0051662 0.00317329 -0.00164309)
(0.0372927 0.0169682 -0.00981264)
(0.0800339 0.0573632 -0.0108633)
(0.103494 0.112369 -0.0129916)
(0.100199 0.178932 -0.0184769)
(0.0969789 0.251294 -0.021837)
(0.0578306 0.314892 -0.0162718)
(-0.00329078 0.34457 -0.000880571)
(-0.0500484 0.387968 -0.00648628)
(-0.104906 0.425538 -0.00678636)
(-0.150418 0.46911 -0.00660895)
(-0.198783 0.512358 -0.00437255)
(-0.242631 0.552593 -0.000379028)
(-0.287626 0.585794 0.00406916)
(-0.324446 0.618905 0.0129536)
(-0.358763 0.644037 0.0177643)
(-0.376704 0.672536 0.0251411)
(-0.397745 0.687745 0.0281216)
(-0.373946 0.707486 0.0298097)
(-0.398434 0.720806 0.0168015)
(-0.383148 0.740512 0.0420286)
(-0.254282 0.632731 0.0586283)
(-0.22814 0.594007 0.0668357)
(-0.249572 0.527192 0.0755788)
(-0.275653 0.489418 0.0743669)
(-0.296379 0.450451 0.0725894)
(-0.313603 0.416913 0.0681513)
(-0.31917 0.381608 0.0598343)
(-0.319429 0.344526 0.0457117)
(-0.319635 0.309485 0.0286898)
(-0.316626 0.275974 0.0148135)
(-0.308277 0.247228 0.00096714)
(-0.292464 0.225711 -0.00602931)
(-0.284641 0.210257 -0.0137603)
(-0.2869 0.220368 -0.0212454)
(-0.224986 0.195264 -0.0217617)
(-0.1256 0.169666 -0.0223403)
(-0.0544415 0.149003 -0.0173465)
(-0.00955317 0.116254 -0.0110089)
(0.00248903 0.060455 -0.000199415)
(0.0063178 0.0100574 -0.004279)
(0.0449975 0.0365274 -0.0136845)
(0.0986477 0.0849258 -0.0141015)
(0.124527 0.141295 -0.0122653)
(0.127991 0.200867 -0.0135384)
(0.113842 0.271645 -0.0162504)
(0.0534414 0.302716 -0.00562126)
(0.00798952 0.350984 0.00197553)
(-0.0194104 0.395712 -0.00242724)
(-0.0678895 0.450714 -0.000435411)
(-0.106667 0.494825 0.000436884)
(-0.146943 0.533356 0.00672685)
(-0.182299 0.565139 0.0125605)
(-0.212892 0.591447 0.0213999)
(-0.235973 0.616557 0.0258418)
(-0.263196 0.630532 0.0307165)
(-0.277393 0.642797 0.034169)
(-0.295397 0.638381 0.0334098)
(-0.286612 0.63985 0.0311473)
(-0.298299 0.604557 0.0154704)
(-0.332186 0.621874 0.0204646)
(-0.251297 0.520363 0.0407433)
(-0.205074 0.465352 0.04399)
(-0.235519 0.418955 0.0547769)
(-0.26844 0.389899 0.0567944)
(-0.301811 0.364011 0.0573676)
(-0.329133 0.340425 0.0576718)
(-0.347147 0.313856 0.0490075)
(-0.359142 0.287009 0.0378502)
(-0.365541 0.256538 0.0146676)
(-0.36703 0.224776 0.00409564)
(-0.35704 0.199353 -0.00531134)
(-0.341251 0.1862 -0.0129121)
(-0.320523 0.175152 -0.0158035)
(-0.325981 0.195715 -0.0252226)
(-0.275231 0.198966 -0.0214884)
(-0.1604 0.175227 -0.0228882)
(-0.0731099 0.158154 -0.0174749)
(-0.0146268 0.12319 -0.0106034)
(0.00322585 0.0641543 0.000679014)
(0.00506447 0.0249375 -0.00713573)
(0.0535257 0.0690156 -0.0178179)
(0.118979 0.124409 -0.0195693)
(0.151057 0.180624 -0.0143383)
(0.158881 0.241166 -0.0156118)
(0.126408 0.291176 -0.0156292)
(0.0751977 0.326907 -0.00667441)
(0.0378431 0.386911 0.00115105)
(0.0132979 0.423534 0.00783333)
(-0.0177317 0.465718 0.00671304)
(-0.0556731 0.498566 0.0114727)
(-0.0870732 0.527555 0.0159958)
(-0.111923 0.547614 0.0252727)
(-0.133893 0.559925 0.0315893)
(-0.154793 0.563226 0.0347798)
(-0.177854 0.556697 0.0352778)
(-0.195666 0.548897 0.0341348)
(-0.218687 0.528016 0.0292824)
(-0.236308 0.514282 0.0226944)
(-0.245442 0.472308 0.00963432)
(-0.296469 0.474423 -0.00188585)
(-0.270491 0.424851 0.0155551)
(-0.211554 0.358086 0.0225471)
(-0.232559 0.339304 0.0319181)
(-0.269685 0.320005 0.0381975)
(-0.309636 0.304478 0.0422384)
(-0.346286 0.2887 0.0466939)
(-0.372583 0.267011 0.0410605)
(-0.394409 0.244885 0.0238136)
(-0.411384 0.211466 0.00606868)
(-0.413246 0.185972 -0.00342959)
(-0.399642 0.162589 -0.0112153)
(-0.38371 0.148532 -0.0147268)
(-0.35316 0.147886 -0.0251758)
(-0.341773 0.160265 -0.0277534)
(-0.306307 0.194817 -0.0309286)
(-0.196794 0.17861 -0.0262243)
(-0.0890478 0.168305 -0.0246831)
(-0.0200079 0.13362 -0.0135685)
(0.0041378 0.0710541 -0.0014745)
(0.00759831 0.041821 -0.00986743)
(0.0627787 0.106884 -0.0258391)
(0.137611 0.166546 -0.0250912)
(0.176759 0.220701 -0.0165025)
(0.176765 0.273506 -0.0164639)
(0.146225 0.306422 -0.0178629)
(0.108851 0.354861 -0.00711284)
(0.0775071 0.401291 0.00412069)
(0.0494103 0.441317 0.011479)
(0.0228257 0.466137 0.0218466)
(0.00013536 0.489073 0.0219549)
(-0.0263345 0.501661 0.0300151)
(-0.0512365 0.505317 0.0361809)
(-0.0722107 0.498463 0.0420758)
(-0.0925586 0.480464 0.0432911)
(-0.117367 0.455289 0.0402533)
(-0.14156 0.430172 0.0343848)
(-0.169122 0.399728 0.0262761)
(-0.198184 0.378537 0.0174744)
(-0.215146 0.353775 0.00613189)
(-0.270706 0.343679 -0.0112625)
(-0.2866 0.334884 -0.00132747)
(-0.2255 0.290066 0.0107496)
(-0.226832 0.286891 0.0167314)
(-0.268169 0.272261 0.0275244)
(-0.310587 0.264291 0.0341243)
(-0.352656 0.247159 0.0429493)
(-0.387295 0.231706 0.0349898)
(-0.418033 0.202903 0.0247912)
(-0.433316 0.17592 0.00718711)
(-0.438821 0.14792 0.0074298)
(-0.43234 0.12403 0.0151036)
(-0.412363 0.105104 0.0104254)
(-0.383923 0.104961 0.00777717)
(-0.362705 0.117662 -0.016155)
(-0.330335 0.164502 -0.0263549)
(-0.227785 0.174809 -0.0255862)
(-0.107714 0.167331 -0.0211851)
(-0.0260837 0.140199 -0.0127908)
(0.00493443 0.0745675 -0.0002457)
(0.00857764 0.0663542 -0.0123424)
(0.0719635 0.151136 -0.0318787)
(0.155871 0.214185 -0.0310771)
(0.199439 0.263341 -0.0196029)
(0.196647 0.300484 -0.0133654)
(0.172472 0.336322 -0.0169434)
(0.14899 0.376729 -0.0061875)
(0.118826 0.414702 0.000586321)
(0.094938 0.443663 0.0083158)
(0.067981 0.464642 0.0225468)
(0.0419491 0.472062 0.0343445)
(0.0204012 0.46978 0.0440244)
(0.0017994 0.458056 0.0486573)
(-0.0222817 0.43161 0.0484921)
(-0.0501984 0.404681 0.0488016)
(-0.0779066 0.369135 0.0429021)
(-0.108485 0.339372 0.033717)
(-0.142047 0.310244 0.0229916)
(-0.175099 0.289126 0.0134769)
(-0.199183 0.275908 0.00186069)
(-0.25106 0.263783 -0.0123862)
(-0.275127 0.266784 -0.00693726)
(-0.219586 0.257881 0.00473699)
(-0.215908 0.251953 0.00954378)
(-0.255673 0.240286 0.0218945)
(-0.301298 0.229412 0.0296821)
(-0.348693 0.215712 0.0378648)
(-0.387541 0.194454 0.0334763)
(-0.422333 0.169709 0.0203551)
(-0.446063 0.139438 0.0290523)
(-0.460867 0.103798 0.0306586)
(-0.460548 0.0754324 0.0159959)
(-0.445057 0.0572629 0.0113637)
(-0.409918 0.0544158 0.00152061)
(-0.371215 0.0672069 -0.00252022)
(-0.340275 0.116912 -0.0248399)
(-0.253388 0.153715 -0.0286323)
(-0.125899 0.164376 -0.0233576)
(-0.0297388 0.144424 -0.0145823)
(0.00425741 0.079994 -0.00190798)
(0.0100287 0.0861956 -0.0130984)
(0.0779002 0.191178 -0.0358855)
(0.169321 0.256555 -0.0343554)
(0.212416 0.294909 -0.0189163)
(0.216391 0.323692 -0.0121835)
(0.203185 0.357927 -0.00929293)
(0.183749 0.390673 -0.00812687)
(0.158628 0.414919 0.00366631)
(0.132704 0.435561 0.00977657)
(0.107707 0.443293 0.0201244)
(0.086311 0.445664 0.0284793)
(0.0609305 0.433367 0.0488486)
(0.032245 0.410514 0.0536084)
(0.0118354 0.374339 0.0564891)
(-0.0148311 0.337804 0.0487923)
(-0.0496326 0.305875 0.0424143)
(-0.0820377 0.27834 0.0303621)
(-0.119216 0.255984 0.0185773)
(-0.153212 0.241617 0.00941604)
(-0.182845 0.236565 -0.00236455)
(-0.233806 0.2277 -0.0130196)
(-0.24948 0.229887 -0.00784773)
(-0.199261 0.238393 0.000611314)
(-0.196292 0.22398 0.0052369)
(-0.23459 0.210311 0.0171652)
(-0.277767 0.194864 0.0258161)
(-0.327924 0.180726 0.0326698)
(-0.369986 0.158133 0.0254946)
(-0.409762 0.131696 0.0387673)
(-0.443729 0.0959272 0.0448019)
(-0.464973 0.0610017 0.0369533)
(-0.468521 0.0329047 0.0458407)
(-0.460339 0.011737 0.0377912)
(-0.437242 0.00668566 0.0360687)
(-0.396655 0.0146786 0.0249598)
(-0.354708 0.0600523 0.00322456)
(-0.267645 0.115528 -0.0248437)
(-0.140311 0.149377 -0.0250199)
(-0.0363961 0.141216 -0.0139954)
(0.00549073 0.0811127 -0.00171474)
(0.0103753 0.107623 -0.0120923)
(0.082569 0.231535 -0.0381722)
(0.175082 0.29796 -0.0371698)
(0.224991 0.327571 -0.0199691)
(0.240276 0.351876 -0.00725074)
(0.234499 0.376548 -0.00155473)
(0.216101 0.400281 0.00191064)
(0.191852 0.414918 0.00265623)
(0.171277 0.424341 0.0109403)
(0.147361 0.425605 0.0227223)
(0.122464 0.416418 0.0314918)
(0.0952435 0.395479 0.0390933)
(0.0673122 0.366299 0.0473014)
(0.0348577 0.331155 0.0548602)
(0.00815604 0.290258 0.0512697)
(-0.0214298 0.257969 0.0389991)
(-0.0599661 0.236887 0.0267541)
(-0.0974454 0.219554 0.014574)
(-0.129739 0.210399 0.00675017)
(-0.161204 0.208107 -0.00430623)
(-0.208919 0.201342 -0.0111652)
(-0.209615 0.206447 -0.00540732)
(-0.166483 0.218489 -0.000292463)
(-0.172451 0.197077 0.00318783)
(-0.203866 0.178914 0.014123)
(-0.245909 0.16089 0.0219931)
(-0.29403 0.140602 0.0263499)
(-0.339819 0.119393 0.0355518)
(-0.386819 0.0880837 0.0477169)
(-0.427286 0.053695 0.0471526)
(-0.452974 0.0224606 0.0671071)
(-0.474246 -0.0154146 0.0503435)
(-0.479975 -0.0535823 0.0335944)
(-0.464188 -0.0748793 0.0106943)
(-0.421406 -0.0646181 0.00381184)
(-0.374452 -0.0196102 0.00641949)
(-0.289214 0.0639293 -0.00231343)
(-0.157254 0.120251 -0.0301219)
(-0.0415693 0.133825 -0.0137377)
(0.00499167 0.0835818 -0.00319763)
(0.009767 0.115978 -0.0116431)
(0.0807584 0.255994 -0.04104)
(0.175919 0.325779 -0.0417382)
(0.23219 0.353493 -0.0231822)
(0.258124 0.369153 -0.00498214)
(0.259581 0.382391 0.00501964)
(0.243369 0.394931 0.010891)
(0.220169 0.402835 0.0135217)
(0.199871 0.406663 0.0165484)
(0.17715 0.400892 0.0209129)
(0.153994 0.385263 0.0250744)
(0.124314 0.358779 0.0372436)
(0.0909229 0.32661 0.0382769)
(0.0588715 0.289861 0.0419554)
(0.0260315 0.258518 0.0469197)
(-0.0018269 0.223925 0.0376095)
(-0.0343088 0.2076 0.0224933)
(-0.0731333 0.193373 0.0115961)
(-0.101834 0.186728 0.00470094)
(-0.133113 0.185689 -0.00524603)
(-0.17259 0.176597 -0.00843549)
(-0.159281 0.193611 -0.00172293)
(-0.12932 0.195086 -0.00183505)
(-0.143249 0.169353 0.00320666)
(-0.169368 0.148185 0.0104155)
(-0.207336 0.123211 0.0180164)
(-0.252423 0.103501 0.0202069)
(-0.297831 0.0765561 0.0384502)
(-0.348828 0.0472892 0.0449373)
(-0.388607 0.0181403 0.0663632)
(-0.435985 -0.0223563 0.0506884)
(-0.479183 -0.0747015 0.0397056)
(-0.496106 -0.121557 0.0248441)
(-0.481912 -0.154378 0.0122391)
(-0.43955 -0.157201 -0.00865039)
(-0.379286 -0.118958 -0.0073687)
(-0.296696 -0.0187708 -0.000813098)
(-0.175653 0.0756001 -0.0166948)
(-0.0475478 0.116647 -0.0195759)
(0.00690998 0.0814453 -0.00149211)
(0.00853822 0.12408 -0.00920687)
(0.0801047 0.2785 -0.0400846)
(0.176881 0.353381 -0.0429231)
(0.239952 0.378292 -0.0238759)
(0.272797 0.386212 -0.0030967)
(0.279051 0.386707 0.0114809)
(0.267321 0.389523 0.0212068)
(0.248245 0.390912 0.0237212)
(0.230725 0.390105 0.0260069)
(0.20714 0.379222 0.0281123)
(0.180541 0.360406 0.0290879)
(0.150541 0.330407 0.0281859)
(0.117487 0.297674 0.026562)
(0.0828765 0.261952 0.0302221)
(0.0468242 0.231137 0.0335312)
(0.0185737 0.2058 0.0326351)
(-0.0100844 0.182385 0.0184799)
(-0.0466288 0.173322 0.00870799)
(-0.0695365 0.169182 0.00328349)
(-0.10124 0.160255 -0.00636241)
(-0.122559 0.160138 -0.00316435)
(-0.104026 0.182428 0.000380627)
(-0.0973074 0.16698 0.000884098)
(-0.114874 0.141054 0.00390006)
(-0.137521 0.115356 0.00957834)
(-0.169307 0.0884954 0.0139281)
(-0.208966 0.0659165 0.0274554)
(-0.254684 0.0384422 0.035941)
(-0.297177 0.0139898 0.0528428)
(-0.351651 -0.0218648 0.047324)
(-0.413105 -0.0744417 0.0422171)
(-0.462696 -0.127196 0.0319855)
(-0.493074 -0.178643 0.0195988)
(-0.494752 -0.22106 0.00345546)
(-0.459335 -0.240555 -0.0139569)
(-0.391137 -0.21293 -0.0201023)
(-0.302389 -0.124781 -0.018467)
(-0.187284 0.0177588 0.00267704)
(-0.0566776 0.0924618 -0.0250633)
(0.00511778 0.0802064 -0.00249139)
(0.00626703 0.108399 -0.00984575)
(0.0739494 0.275895 -0.0405583)
(0.171387 0.357036 -0.0425484)
(0.23941 0.383139 -0.0231077)
(0.279488 0.385782 0.000528045)
(0.293402 0.382815 0.0154184)
(0.288738 0.380262 0.0216792)
(0.272032 0.374585 0.0258776)
(0.253422 0.365268 0.0275591)
(0.230402 0.350683 0.0281706)
(0.204628 0.330073 0.0270161)
(0.172656 0.303393 0.0251259)
(0.136996 0.272199 0.0203929)
(0.101738 0.239213 0.0142552)
(0.068899 0.210713 0.0145678)
(0.0362185 0.189766 0.0201667)
(0.0117801 0.170528 0.0143121)
(-0.0115789 0.156756 0.00461665)
(-0.0400851 0.151903 -0.00137321)
(-0.0619473 0.145051 -0.00407305)
(-0.0627017 0.159864 0.000880574)
(-0.05991 0.160341 0.00240911)
(-0.0719135 0.138946 0.00421443)
(-0.0893451 0.112381 0.00604278)
(-0.109897 0.0872368 0.00786467)
(-0.13572 0.0598616 0.0118146)
(-0.170394 0.0344445 0.0217545)
(-0.20542 0.00800259 0.0361381)
(-0.25401 -0.021939 0.0386537)
(-0.314411 -0.0700833 0.0388973)
(-0.374289 -0.118792 0.034839)
(-0.429463 -0.175526 0.0292409)
(-0.469139 -0.234045 0.0182542)
(-0.485354 -0.289041 0.00395983)
(-0.462872 -0.322813 -0.0145096)
(-0.402883 -0.313261 -0.0268451)
(-0.297464 -0.236397 -0.030129)
(-0.190542 -0.0822485 -0.0182481)
(-0.068391 0.0504645 -0.0173527)
(0.00656261 0.0707626 -0.00595054)
(0.00784215 0.110652 -0.00282804)
(0.0747346 0.284635 -0.0330683)
(0.170874 0.369757 -0.0378551)
(0.24483 0.393253 -0.0176911)
(0.29448 0.389918 0.00763524)
(0.316628 0.378068 0.0158065)
(0.312776 0.368933 0.0243613)
(0.295454 0.356727 0.0262609)
(0.278427 0.346327 0.0256563)
(0.256826 0.329462 0.022816)
(0.231649 0.308421 0.0193905)
(0.200511 0.279167 0.0153514)
(0.163415 0.248931 0.0102201)
(0.126089 0.216572 0.00676835)
(0.0923464 0.190062 0.0028173)
(0.0640262 0.169503 0.00416962)
(0.0362916 0.160427 0.00541373)
(0.0126733 0.15532 0.000677577)
(-0.000476532 0.156823 -0.00173118)
(-0.00801982 0.158672 -0.000749044)
(-0.0184539 0.157127 0.00269803)
(-0.0330546 0.137246 0.00540166)
(-0.0496327 0.115081 0.00741777)
(-0.0677412 0.088887 0.00844413)
(-0.0863866 0.064156 0.0094389)
(-0.110211 0.0380696 0.0132585)
(-0.138279 0.0110734 0.0243499)
(-0.175617 -0.0175087 0.0272988)
(-0.225281 -0.0567773 0.0290746)
(-0.28043 -0.0992991 0.0299113)
(-0.337874 -0.147609 0.0300327)
(-0.392659 -0.205449 0.0269616)
(-0.436821 -0.268152 0.019857)
(-0.462905 -0.334404 0.00686053)
(-0.453865 -0.384332 -0.0106109)
(-0.404076 -0.399287 -0.0271616)
(-0.307419 -0.336876 -0.0388531)
(-0.191191 -0.194112 -0.0299955)
(-0.0645339 -0.00224133 -0.0097338)
(0.00328753 0.0580696 -0.00997793)
(-0.00209918 0.0886057 -0.0148579)
(0.0542778 0.271141 -0.0397362)
(0.152523 0.367204 -0.0456003)
(0.234787 0.393386 -0.0243947)
(0.294468 0.392214 -0.00214136)
(0.328935 0.372996 0.0120493)
(0.33594 0.356112 0.018054)
(0.322619 0.335306 0.0193967)
(0.304961 0.317944 0.0171096)
(0.280451 0.306083 0.0138984)
(0.25179 0.296067 0.0105738)
(0.217182 0.28271 0.0083928)
(0.179208 0.262565 0.00532471)
(0.142657 0.235899 0.0032199)
(0.11375 0.211293 0.00089965)
(0.0913618 0.193099 0.00216046)
(0.0786333 0.188924 0.00199783)
(0.0657475 0.187995 -0.00230485)
(0.0458174 0.184291 -0.00372679)
(0.022852 0.168867 -0.00185659)
(0.00195595 0.148491 0.00342335)
(-0.014647 0.121046 0.00662896)
(-0.0325223 0.0965961 0.00910742)
(-0.0508816 0.0708049 0.0107172)
(-0.0676791 0.0443247 0.01276)
(-0.0893745 0.0167731 0.0146852)
(-0.116694 -0.00978801 0.0154062)
(-0.151316 -0.0456665 0.0150802)
(-0.1961 -0.0842007 0.0168974)
(-0.2451 -0.129933 0.0191616)
(-0.297158 -0.180024 0.0207311)
(-0.348921 -0.241732 0.0204862)
(-0.394937 -0.308959 0.0160206)
(-0.428224 -0.385346 0.00643904)
(-0.432476 -0.449641 -0.0100339)
(-0.393884 -0.485547 -0.0258869)
(-0.30595 -0.441311 -0.050723)
(-0.192059 -0.309158 -0.0429701)
(-0.0644486 -0.0825294 -0.0118257)
(0.00143243 0.0426401 -0.000150607)
(-0.00175253 0.154972 -0.00332408)
(0.0512117 0.352737 -0.0171506)
(0.142259 0.452479 -0.0284056)
(0.22759 0.474941 -0.00882693)
(0.296642 0.465053 -0.0013872)
(0.336438 0.432795 0.0145224)
(0.346979 0.396038 0.0183262)
(0.334738 0.373221 0.0209457)
(0.330415 0.374955 0.0183711)
(0.322322 0.37779 0.0131942)
(0.301552 0.374558 0.00683767)
(0.26431 0.362032 0.000448693)
(0.214746 0.338037 -0.00406245)
(0.169343 0.306073 -0.00532331)
(0.138363 0.275824 -0.00594411)
(0.125655 0.24968 -0.00273837)
(0.112187 0.228929 0.00256039)
(0.0883502 0.206269 -0.0040667)
(0.0615661 0.184485 -0.00735716)
(0.0378647 0.157452 -0.00364166)
(0.0150992 0.134741 0.000377734)
(-0.00457296 0.105286 0.005736)
(-0.0199966 0.0806644 0.00867103)
(-0.039384 0.0541749 0.0109635)
(-0.0570119 0.0297984 0.0129165)
(-0.0758953 0.0011327 0.0124194)
(-0.10379 -0.0213642 0.00953081)
(-0.140816 -0.0532852 0.00770219)
(-0.183206 -0.0880859 0.00821874)
(-0.227311 -0.13261 0.0106435)
(-0.272358 -0.181273 0.0140069)
(-0.316074 -0.243399 0.0161998)
(-0.358471 -0.315186 0.0152569)
(-0.393785 -0.401325 0.00855473)
(-0.406222 -0.484685 -0.00624596)
(-0.377005 -0.547977 -0.0241871)
(-0.304825 -0.548356 -0.0545887)
(-0.194299 -0.422735 -0.0563662)
(-0.0576002 -0.204759 -0.0291558)
(0.00477929 0.00205553 -0.000787277)
(-0.016462 0.229795 -0.0212872)
(0.0213164 0.469311 -0.0399295)
(0.110588 0.579441 -0.048491)
(0.196861 0.618491 -0.0321397)
(0.26909 0.609075 -0.0212646)
(0.315756 0.576754 -0.00316201)
(0.349592 0.529491 0.00488669)
(0.381304 0.494296 0.00639629)
(0.39181 0.480403 -0.001118)
(0.365134 0.458732 -0.00691129)
(0.325195 0.429712 -0.0104695)
(0.273117 0.39433 -0.0114434)
(0.216939 0.352788 -0.0111084)
(0.172587 0.315163 -0.00996444)
(0.145547 0.282917 -0.00986797)
(0.128356 0.252839 -0.00684107)
(0.116745 0.217068 -0.00190808)
(0.101558 0.188247 0.00421218)
(0.0758951 0.163992 -0.00121475)
(0.0509573 0.141293 -0.00344716)
(0.0259599 0.115584 -0.000753651)
(0.00575251 0.0895634 0.00454744)
(-0.00994611 0.0623443 0.00780567)
(-0.0277122 0.035008 0.0109903)
(-0.0444617 0.0100552 0.00948569)
(-0.05998 -0.0180767 0.0114545)
(-0.0834443 -0.0448814 0.00618752)
(-0.119059 -0.0731603 0.000476639)
(-0.159959 -0.107109 -0.00442389)
(-0.200124 -0.155235 -0.00693968)
(-0.24097 -0.205385 -0.0074136)
(-0.281471 -0.271371 -0.00764553)
(-0.320902 -0.343604 -0.0066222)
(-0.358223 -0.438728 -0.00858332)
(-0.382583 -0.535334 -0.0181149)
(-0.381921 -0.632609 -0.0351052)
(-0.313967 -0.66149 -0.0595382)
(-0.228382 -0.562313 -0.0751901)
(-0.0848608 -0.28359 -0.0351978)
(0.0154049 -0.0157705 -0.00358867)
(0.00162856 0.196622 0.00209426)
(0.0396853 0.43965 -0.0363571)
(0.114245 0.564856 -0.0487646)
(0.201024 0.621706 -0.0449321)
(0.27245 0.625627 -0.034623)
(0.320742 0.605008 -0.0238743)
(0.348211 0.566376 -0.0170175)
(0.370186 0.518864 -0.00747009)
(0.379856 0.469591 -0.00966353)
(0.357933 0.428568 -0.00954089)
(0.32462 0.391396 -0.00961202)
(0.276662 0.356719 -0.00825818)
(0.225701 0.31884 -0.00648822)
(0.18869 0.288722 -0.00485092)
(0.163287 0.261118 -0.00402708)
(0.144343 0.233817 -0.00176921)
(0.129162 0.204139 0.00142543)
(0.1145 0.170099 0.00407487)
(0.0913973 0.145009 0.00758236)
(0.0636116 0.121763 0.00230337)
(0.03537 0.0988889 0.000500015)
(0.0125979 0.0725147 0.00342319)
(-0.00505921 0.045224 0.00864739)
(-0.0218738 0.0170743 0.011525)
(-0.0384853 -0.00779351 0.0110655)
(-0.0556299 -0.0356248 0.0142745)
(-0.0775534 -0.0644542 0.0137718)
(-0.11204 -0.093918 0.00950978)
(-0.159174 -0.117463 0.00489888)
(-0.196829 -0.156852 0.00426048)
(-0.228988 -0.203347 0.0028587)
(-0.257489 -0.276259 0.000390901)
(-0.288642 -0.368694 -0.00475141)
(-0.318123 -0.503845 -0.0118451)
(-0.345923 -0.646152 -0.0186547)
(-0.350287 -0.781602 -0.0274242)
(-0.29836 -0.844935 -0.0495943)
(-0.192088 -0.79682 -0.0640882)
(-0.0696199 -0.498042 -0.0631589)
(-0.00352448 -0.125498 0.0091116)
(0.000145636 0.208762 -0.00249885)
(0.035252 0.425966 -0.0331067)
(0.102386 0.548932 -0.0438271)
(0.181018 0.603183 -0.0418449)
(0.250072 0.607741 -0.0251745)
(0.302248 0.582971 -0.0189185)
(0.337339 0.541642 -0.0103155)
(0.364516 0.498868 -0.00339898)
(0.38066 0.450726 -0.00442339)
(0.365738 0.413786 -0.00453136)
(0.331983 0.379511 -0.00464499)
(0.281537 0.343341 -0.0037962)
(0.232491 0.307408 -0.00260315)
(0.199815 0.276882 -0.00187497)
(0.175374 0.24803 -0.0012345)
(0.155171 0.218657 0.000563597)
(0.134737 0.189856 0.00239086)
(0.121233 0.153819 0.0071583)
(0.103015 0.12266 0.00797783)
(0.0771311 0.0986517 0.0103433)
(0.04641 0.078856 0.00399968)
(0.0200151 0.0543145 0.00398573)
(0.00179115 0.0303299 0.00976247)
(-0.01326 0.00420885 0.00984696)
(-0.0282123 -0.0183106 0.0116328)
(-0.0447487 -0.0436247 0.013244)
(-0.0647093 -0.0677982 0.014112)
(-0.0867615 -0.0944366 0.0138389)
(-0.124889 -0.109118 0.00829438)
(-0.168216 -0.126832 0.00593644)
(-0.213005 -0.154375 0.00693827)
(-0.260183 -0.209626 0.00991921)
(-0.316467 -0.285074 0.0146017)
(-0.359805 -0.408193 0.0180571)
(-0.368759 -0.555778 0.0133633)
(-0.358851 -0.723184 0.00557912)
(-0.312824 -0.846892 -0.0107623)
(-0.212665 -0.87254 -0.0370026)
(-0.0565016 -0.650893 -0.0479896)
(0.0221924 -0.215454 -0.0144571)
(0.00502669 0.192728 -0.00352459)
(0.0417819 0.391633 -0.0267087)
(0.102515 0.521011 -0.0372697)
(0.176794 0.580385 -0.0362959)
(0.242038 0.594873 -0.0247696)
(0.290344 0.575403 -0.0145104)
(0.327803 0.535532 -0.00555674)
(0.352813 0.490917 0.000374918)
(0.369692 0.437195 -0.000694904)
(0.363071 0.39245 -0.00164809)
(0.331013 0.352208 -0.00230431)
(0.283478 0.312423 -0.000992752)
(0.240876 0.279379 9.65294e-06)
(0.213023 0.249467 0.000808381)
(0.189519 0.221627 0.00118972)
(0.170289 0.19313 0.0024078)
(0.146985 0.165748 0.00403109)
(0.127024 0.134856 0.00646206)
(0.112165 0.0983918 0.0127711)
(0.0919341 0.0734018 0.011729)
(0.0601074 0.0549294 0.0123245)
(0.0312782 0.0357694 0.00750692)
(0.0112581 0.0163653 0.0111328)
(-0.0038079 -0.00686516 0.0106873)
(-0.0183352 -0.0271191 0.0119951)
(-0.0348519 -0.05226 0.0119596)
(-0.0541507 -0.0735883 0.0122764)
(-0.0722016 -0.100858 0.0126102)