/*--------------------------------*- C++ -*----------------------------------*\
| =========                 |                                                 |
| \\      /  F ield         | OpenFOAM: The Open Source CFD Toolbox           |
|  \\    /   O peration     | Version:  v1806                                 |
|   \\  /    A nd           | Web:      www.OpenFOAM.com                      |
|    \\/     M anipulation  |                                                 |
\*---------------------------------------------------------------------------*/
FoamFile
{
    version     2.0;
    format      ascii;
    class       volScalarField;
    location    "0.0155";
    object      p;
}
// * * * * * * * * * * * * * * * * * * * * * * * * * * * * * * * * * * * * * //

dimensions      [0 2 -2 0 0 0 0];


internalField   nonuniform List<scalar> 
64000
(
-2.74265e-05
-0.0828624
-0.236689
-0.420047
-0.572596
-0.604062
-0.689999
-0.742327
-0.779892
-0.81585
-0.875496
-0.866277
-0.866353
-0.851371
-0.749385
-0.679772
-0.599186
-0.520445
-0.570241
-0.335506
-0.76751
-0.19242
-2.24699
-2.04305
-2.25475
-2.35027
-2.31753
-2.30401
-2.21143
-2.11973
-2.10467
-2.13553
-2.18544
-2.23864
-2.282
-2.2619
-2.28441
-2.28279
-2.29929
-2.30104
-0.118299
-0.197884
-0.308376
-0.426807
-0.5678
-0.578912
-0.638047
-0.65747
-0.627393
-0.601861
-0.520921
-0.502294
-0.467222
-0.517926
-0.513174
-0.583103
-0.755648
-0.662899
-0.572824
-0.367932
-0.397128
-0.137531
-2.03637
-2.23208
-2.32793
-2.43748
-2.44421
-2.46113
-2.34982
-2.36284
-2.13372
-2.15267
-2.16567
-2.18056
-2.25412
-2.25316
-2.2441
-2.24924
-2.27443
-2.2768
-0.271784
-0.300045
-0.380383
-0.449276
-0.603835
-0.555055
-0.558463
-0.59101
-0.610355
-0.832762
-0.974624
-1.08204
-1.04858
-1.19771
-1.11144
-1.02825
-0.919229
-0.786501
-0.664301
-0.50171
-0.526447
-0.337153
-2.34608
-2.82788
-2.94736
-3.0862
-3.1342
-3.17077
-3.12419
-3.05548
-3.02052
-2.88507
-2.72052
-2.63317
-2.59302
-2.56335
-2.52507
-2.46689
-2.42454
-2.3817
-0.381098
-0.385454
-0.468944
-0.490884
-0.637949
-0.933164
-1.03264
-1.13931
-1.31196
-1.43535
-1.44859
-1.47829
-1.45177
-1.39669
-1.34476
-1.27861
-1.1635
-1.00884
-0.853309
-0.696819
-0.635186
-0.41607
-2.46314
-3.08938
-3.22467
-3.34166
-3.38837
-3.4421
-3.4285
-3.42811
-3.40818
-3.40568
-3.33337
-3.11126
-2.92556
-2.80058
-2.65169
-2.52709
-2.40035
-2.32381
-0.461447
-0.475234
-0.567943
-0.597865
-0.805921
-1.32859
-1.48379
-1.71458
-1.79228
-1.89588
-1.88407
-1.84579
-1.87192
-1.83211
-1.80322
-1.70032
-1.55789
-1.39275
-1.21145
-1.06536
-0.979876
-0.665218
-2.57824
-3.31233
-3.50983
-3.5986
-3.63327
-3.67456
-3.71162
-3.75754
-3.80616
-3.84028
-3.76741
-3.64473
-3.38851
-3.07152
-2.67999
-2.291
-2.12637
-2.08617
-0.5477
-0.600431
-0.628577
-0.683814
-1.12248
-1.67385
-1.81279
-2.04833
-2.14283
-2.23232
-2.26048
-2.27055
-2.1866
-2.16673
-2.24879
-2.1451
-1.96433
-1.77732
-1.60412
-1.47918
-1.33348
-0.754629
-2.0883
-2.93933
-3.37801
-3.5138
-3.56084
-3.64584
-3.74995
-3.8777
-3.90689
-3.89543
-3.87725
-3.65291
-3.35874
-2.91286
-2.42259
-1.93209
-1.65998
-1.7367
-0.572734
-0.525982
-0.646806
-0.902071
-1.51488
-1.88745
-2.05126
-2.28787
-2.41504
-2.55144
-2.63851
-2.71589
-2.7494
-2.76336
-2.76202
-2.5884
-2.53256
-2.49924
-2.4886
-2.37335
-1.74932
-0.852718
-1.34834
-1.90183
-2.76362
-3.23067
-3.38888
-3.56244
-3.76229
-3.97281
-4.0227
-4.00758
-3.95286
-3.73343
-3.35726
-2.89517
-2.29968
-1.78749
-1.43915
-1.54993
-0.624653
-0.557019
-0.740585
-1.27238
-1.72552
-2.03337
-2.23348
-2.42721
-2.62615
-2.80135
-2.96887
-3.08474
-3.15877
-3.23271
-3.27166
-3.20898
-2.92612
-3.08164
-2.98358
-2.41502
-1.4767
-0.826362
-0.93745
-1.18669
-1.81438
-2.71118
-3.15253
-3.48252
-3.73004
-4.06078
-4.14729
-4.09566
-4.05925
-3.81015
-3.42235
-2.83301
-2.22779
-1.68529
-1.34127
-1.37757
-0.514431
-0.559924
-0.947935
-1.40975
-1.80209
-2.09962
-2.37558
-2.57027
-2.74568
-2.98151
-3.10201
-3.2106
-3.40169
-3.52934
-3.60449
-3.47621
-3.02435
-3.28078
-2.46958
-1.60033
-1.06968
-0.888048
-0.888434
-0.771542
-0.955789
-1.98243
-2.90511
-3.42414
-3.73146
-4.02036
-4.14756
-4.0377
-3.9391
-3.69597
-3.34845
-2.84068
-2.16554
-1.6061
-1.2611
-1.25105
-0.605954
-0.720935
-1.05426
-1.45717
-1.78859
-2.10419
-2.37015
-2.61941
-2.79642
-2.97927
-3.09477
-3.22937
-3.44786
-3.59579
-3.63198
-3.26587
-2.86415
-2.24029
-1.12732
-0.883679
-0.86513
-0.949586
-0.986154
-0.64834
-0.402105
-1.06085
-2.51747
-3.42337
-3.82627
-3.96465
-4.01253
-4.06081
-3.89202
-3.70437
-3.28945
-2.77402
-2.07784
-1.5398
-1.16467
-1.16125
-0.659473
-0.788986
-1.08366
-1.4213
-1.73613
-2.01309
-2.29013
-2.49716
-2.65653
-2.75777
-2.82501
-2.91684
-3.22833
-3.33398
-3.13967
-2.42635
-1.76281
-0.422141
-0.273001
-0.399803
-0.611887
-0.905725
-1.05865
-0.699696
-0.431507
-0.480877
-1.99866
-3.39991
-3.88965
-4.03384
-3.93725
-3.83528
-3.68973
-3.39336
-3.08274
-2.58825
-2.04916
-1.37368
-1.05382
-1.03398
-0.740189
-0.845261
-1.09238
-1.34999
-1.61552
-1.85192
-2.09091
-2.24918
-2.24377
-2.29652
-2.37005
-2.42579
-2.48437
-2.49781
-1.81684
-0.856485
0.318
0.491224
0.327869
0.0425726
-0.290804
-0.773552
-1.10465
-0.840944
-0.68996
-0.674528
-1.24452
-3.04868
-3.88389
-3.96389
-3.86947
-3.71801
-3.60247
-3.41756
-2.97234
-2.36318
-1.79612
-1.31248
-0.916752
-0.929268
-0.79558
-0.880877
-1.0683
-1.24558
-1.44585
-1.59638
-1.7496
-1.74875
-1.71655
-1.7659
-1.77164
-1.68274
-1.54827
-0.722536
0.749322
1.0985
1.30271
1.14641
0.845416
0.475672
0.0831581
-0.572946
-1.15354
-1.04349
-1.00124
-1.0681
-1.27869
-2.27658
-3.54105
-3.78996
-3.78081
-3.7635
-3.46513
-3.0729
-2.78842
-2.33816
-1.57812
-1.11249
-0.744772
-0.731023
-0.806402
-0.874625
-1.03007
-1.15011
-1.25228
-1.27632
-1.32707
-1.18675
-1.06804
-0.98701
-0.76878
-0.285123
0.589501
1.82131
2.16467
2.19091
1.86326
1.66014
1.27308
0.870823
0.466361
-0.366483
-1.22495
-1.27378
-1.33206
-1.41756
-1.61853
-1.8284
-3.21502
-3.65683
-3.80818
-3.47305
-3.10406
-2.71939
-2.26405
-1.86042
-1.47768
-0.865239
-0.544067
-0.519964
-0.784391
-0.819873
-0.931142
-0.999782
-1.05763
-0.985796
-0.842726
-0.56796
-0.228234
0.211999
1.02641
2.03364
2.68851
3.04044
2.92826
2.80662
2.31666
1.97025
1.60464
1.20053
0.780211
-0.286252
-1.38401
-1.53402
-1.60576
-1.72043
-1.80517
-2.02684
-2.35063
-3.28065
-3.31963
-3.00918
-2.6261
-2.20954
-1.77183
-1.30815
-0.942784
-0.620015
-0.338126
-0.248474
-0.653241
-0.703375
-0.794592
-0.82136
-0.813601
-0.645761
-0.345086
0.257561
1.11928
2.01487
2.85691
3.47584
3.63006
3.57186
3.2731
3.17673
2.65671
2.10508
1.82996
1.4071
0.903301
-0.377959
-1.64379
-1.8451
-1.89738
-1.97677
-2.06296
-2.14641
-2.41886
-2.87621
-2.75824
-2.39912
-1.965
-1.45243
-0.924137
-0.536161
-0.194836
-0.218524
0.105751
0.0107623
-0.776525
-0.72414
-0.743898
-0.681305
-0.582152
-0.308357
0.339556
1.36703
2.31374
3.08491
3.62971
3.8234
3.75681
3.55248
3.26413
3.0863
2.71228
2.15576
1.73975
1.40112
0.853531
-0.412
-1.77533
-2.09552
-2.18288
-2.22037
-2.15784
-2.23171
-2.43685
-2.6173
-2.3031
-1.58984
-1.04133
-0.382723
0.192876
0.437689
0.748781
0.450928
0.281285
0.37093
-0.585122
-0.485304
-0.455431
-0.332341
-0.184517
0.169129
0.963838
1.71531
2.45145
2.90099
3.05612
3.06889
2.95174
2.80968
2.60327
2.34554
2.25852
1.79874
1.27044
1.09012
0.57741
-0.506569
-1.83813
-2.27126
-2.38677
-2.44373
-2.39209
-2.49981
-2.6434
-2.77388
-2.16481
-1.67079
-0.906618
-0.376866
0.0872027
0.317311
0.483318
0.85645
0.567511
0.540789
-1.27384
-0.990052
-0.86594
-0.668727
-0.55681
-0.240996
0.228709
0.311269
0.653659
0.914711
1.06178
1.17953
1.23144
1.25868
1.21368
1.12849
0.96303
0.893598
0.481699
0.247802
-0.00973616
-0.78552
-1.89838
-2.43828
-2.53836
-2.44285
-2.53063
-2.6796
-2.80425
-2.86691
-2.92801
-1.61941
-0.467324
0.163229
0.682391
0.919669
1.02071
0.781276
0.873902
0.695189
-2.13293
-2.26611
-2.26721
-2.22806
-2.31123
-2.2716
-2.09769
-2.53918
-2.49046
-2.13477
-1.75047
-1.35858
-1.03266
-0.773622
-0.616812
-0.502589
-0.488661
-0.589823
-0.72876
-0.942148
-0.945342
-1.35708
-2.08178
-2.64002
-2.68678
-2.54452
-2.58492
-2.7142
-2.86789
-3.0229
-3.16457
-3.0713
-1.35412
0.255237
1.26163
1.68388
1.6097
1.25655
0.818216
0.446138
-2.29033
-2.50922
-2.5846
-2.71419
-2.88753
-3.00979
-3.20287
-3.92939
-4.47443
-4.43985
-4.13447
-3.66133
-3.1577
-2.70787
-2.37983
-2.18147
-2.10644
-2.14566
-2.2121
-2.24078
-2.12499
-2.17359
-2.49666
-2.89164
-2.85633
-2.69623
-2.62436
-2.70368
-2.91665
-3.16582
-3.43118
-3.58346
-3.02213
-1.88433
-0.836966
0.0961344
0.771442
0.733728
0.607728
-0.0929436
-2.73253
-2.86415
-2.95883
-3.12497
-3.30001
-3.48147
-3.78731
-4.52053
-5.33263
-5.67327
-5.58769
-5.22381
-4.71617
-4.21163
-3.85205
-3.67869
-3.61262
-3.59383
-3.51673
-3.36198
-3.19799
-3.00989
-3.10541
-3.27028
-3.04681
-2.73993
-2.63974
-2.7276
-2.97817
-3.29209
-3.62973
-3.87116
-3.63353
-3.2109
-2.87776
-2.56474
-2.27498
-2.20463
-2.37855
-2.50836
-2.90023
-3.0862
-3.26861
-3.48072
-3.73455
-3.95892
-4.32059
-4.94619
-5.70946
-6.23458
-6.35811
-6.15213
-5.73327
-5.24721
-4.87166
-4.48156
-4.10364
-4.00361
-3.96943
-3.86165
-3.78822
-3.646
-3.68381
-3.53127
-3.22441
-2.94354
-2.73959
-2.73572
-3.00896
-3.42572
-3.8911
-4.21874
-4.1845
-4.0142
-3.99679
-4.06254
-4.1836
-4.15193
-3.97403
-3.58789
-3.11657
-3.22532
-3.53672
-3.75774
-4.05816
-4.34612
-4.73955
-5.27975
-5.91454
-6.45675
-6.70094
-6.65342
-6.34412
-5.83512
-5.26308
-4.62304
-4.15822
-4.05817
-4.04407
-3.97258
-3.94967
-3.93506
-3.82462
-3.65331
-3.57969
-3.35681
-3.16906
-3.08537
-3.19533
-3.50568
-3.97501
-4.39999
-4.62511
-4.72452
-4.92223
-5.15397
-5.51561
-5.61062
-5.4073
-4.68068
-3.34263
-3.31425
-3.77979
-3.97914
-4.3053
-4.64751
-5.03685
-5.51475
-6.03147
-6.48845
-6.74148
-6.77201
-6.58229
-6.10637
-5.41161
-4.77573
-4.16588
-3.958
-3.95607
-3.90514
-3.90423
-3.94631
-3.8038
-3.96693
-4.06729
-4.05066
-4.11985
-4.3091
-4.57152
-4.80996
-5.01813
-5.20433
-5.44279
-5.66235
-6.01458
-6.32216
-6.85591
-7.06479
-6.80027
-5.59178
-3.58872
-3.44958
-3.96061
-4.14906
-4.49265
-4.89067
-5.24623
-5.67279
-6.09787
-6.50221
-6.71336
-6.71151
-6.5572
-6.22972
-5.58765
-5.02839
-4.3044
-3.82016
-3.80101
-3.81022
-3.89842
-4.0266
-3.98331
-4.20583
-4.61524
-4.87003
-5.19758
-5.6749
-6.09787
-6.4123
-6.68289
-6.8885
-7.07454
-7.17299
-7.44152
-7.58011
-8.07614
-8.16598
-8.23
-7.13762
-3.7949
-3.54834
-4.10014
-4.31855
-4.64397
-5.01876
-5.3768
-5.76719
-6.09985
-6.42216
-6.62388
-6.64504
-6.53527
-6.30237
-5.84392
-5.264
-4.53562
-3.81611
-3.80024
-3.78539
-3.86706
-4.03453
-4.18132
-4.4143
-4.96574
-5.528
-5.85713
-6.21152
-6.44257
-6.515
-6.54549
-6.51703
-6.54859
-6.50399
-6.66927
-6.59526
-7.02324
-7.02166
-7.61756
-7.3588
-3.97915
-3.6991
-4.17389
-4.50742
-4.81739
-5.1042
-5.46342
-5.76364
-6.0708
-6.33702
-6.4886
-6.49551
-6.34899
-6.18142
-6.00932
-5.51658
-4.71828
-3.79625
-3.75251
-3.75906
-3.89927
-3.98633
-4.11848
-4.45291
-5.26449
-6.04598
-6.28353
-6.35934
-6.41465
-6.43229
-6.46857
-6.42704
-6.431
-6.25976
-6.279
-5.82965
-5.93987
-5.37736
-5.63988
-5.27004
-4.11403
-3.89573
-4.17784
-4.67903
-4.97656
-5.23018
-5.53783
-5.80305
-6.05516
-6.24361
-6.37532
-6.42153
-6.37262
-6.21413
-6.01746
-5.74846
-5.11127
-3.88563
-3.69561
-3.68353
-3.83211
-3.90732
-3.99096
-4.29945
-5.54137
-6.3735
-6.38596
-6.41921
-6.43955
-6.38572
-6.39755
-6.32796
-6.36029
-6.14765
-6.13933
-5.46807
-5.47797
-4.57413
-4.81141
-4.64811
-4.24766
-4.09221
-4.21872
-4.77896
-5.04756
-5.30212
-5.5029
-5.80355
-5.9785
-6.14342
-6.25747
-6.31223
-6.29854
-6.2532
-6.15196
-5.7637
-5.21249
-4.04069
-3.55922
-3.61754
-3.74635
-3.86526
-3.86806
-4.05517
-5.67438
-6.37405
-6.39084
-6.41274
-6.3775
-6.37148
-6.31968
-6.22808
-6.2954
-5.97452
-6.01148
-5.15832
-5.18605
-4.01285
-4.20882
-3.87526
-4.36476
-4.30106
-4.25565
-4.81943
-5.09993
-5.33812
-5.57536
-5.81624
-5.96779
-6.0932
-6.185
-6.23315
-6.2484
-6.22338
-6.08204
-5.97761
-5.58573
-4.25597
-3.40181
-3.50917
-3.65171
-3.81331
-3.77425
-3.78285
-5.51837
-6.30141
-6.38278
-6.36119
-6.35583
-6.28335
-6.20078
-6.09457
-6.11116
-5.90829
-5.89192
-4.94243
-5.05106
-3.69779
-3.95632
-3.37398
-4.46847
-4.45537
-4.34308
-4.72859
-5.08136
-5.27822
-5.52767
-5.73358
-5.91831
-6.04981
-6.11422
-6.1671
-6.19828
-6.10437
-6.09923
-6.04629
-5.88781
-4.56817
-3.15265
-3.3912
-3.51789
-3.74464
-3.75176
-3.60541
-5.2353
-6.38432
-6.29425
-6.42751
-6.30612
-6.25895
-6.16134
-5.92614
-5.99421
-5.63371
-5.96259
-4.81915
-5.09139
-3.52346
-3.98952
-3.07099
-4.52717
-4.57228
-4.56975
-4.69535
-5.12385
-5.38395
-5.57675
-5.75957
-5.92305
-6.04191
-6.16226
-6.26477
-6.21304
-6.17968
-6.1078
-6.04229
-5.93511
-4.78502
-2.93054
-3.28322
-3.40033
-3.65671
-3.76338
-3.53185
-4.85153
-6.58752
-6.22552
-6.43143
-6.23956
-6.22807
-6.11663
-5.89514
-5.83143
-5.512
-5.80158
-4.81394
-5.30037
-3.43782
-4.10641
-2.79473
-4.59402
-4.59685
-4.60417
-4.58479
-5.00371
-5.19479
-5.422
-5.58725
-5.75452
-5.8977
-6.02444
-6.07837
-6.18031
-6.11696
-6.05235
-5.96821
-5.80153
-4.82964
-2.67115
-3.07029
-3.20041
-3.50543
-3.732
-3.55919
-4.53185
-6.72507
-6.23694
-6.34143
-6.20192
-6.11716
-6.08043
-5.78177
-5.89732
-5.27486
-5.83318
-4.44024
-5.5319
-3.17817
-4.11903
-2.33137
-4.77418
-4.88585
-4.89714
-4.86206
-5.1851
-5.37155
-5.52932
-5.66442
-5.83023
-5.92734
-6.04181
-6.15332
-6.20479
-6.22278
-6.09879
-5.95574
-5.73711
-4.83112
-2.42007
-2.80691
-2.97142
-3.32995
-3.64287
-3.63986
-4.44763
-6.80804
-6.26973
-6.27121
-6.18368
-5.90696
-6.0798
-5.65759
-5.85414
-5.10408
-5.83279
-4.27235
-5.54404
-2.97705
-4.05296
-1.65195
-4.49974
-4.37422
-4.5314
-4.64089
-4.86947
-5.05094
-5.23303
-5.33195
-5.46909
-5.64937
-5.82811
-5.96992
-6.08451
-6.11182
-6.13158
-5.92196
-5.65353
-4.6638
-2.01297
-2.384
-2.54771
-2.98776
-3.3944
-3.62506
-4.51758
-6.83501
-6.36739
-6.22241
-6.01016
-5.74324
-5.78191
-5.69732
-5.88353
-4.97924
-5.73924
-3.71048
-5.30198
-1.78612
-3.17008
-0.0304419
-4.83821
-5.0039
-4.77753
-5.10459
-5.19468
-5.43722
-5.44409
-5.46537
-5.63122
-5.77771
-5.94731
-6.10735
-6.20887
-6.28471
-6.38842
-6.2718
-5.87986
-4.54257
-1.64979
-1.88565
-2.179
-2.61176
-3.13848
-3.64059
-4.81024
-6.99554
-6.59649
-6.23118
-5.96552
-5.57309
-5.61593
-5.24611
-6.03158
-4.741
-6.17821
-3.57308
-5.14571
-0.810917
-2.10393
1.69202
-5.65403
-4.98267
-5.18398
-4.64141
-5.03556
-4.93136
-5.00143
-5.08595
-5.25327
-5.42527
-5.685
-5.95036
-6.19098
-6.40685
-6.62755
-6.62811
-6.15598
-4.31196
-1.09869
-0.950909
-1.38713
-2.06354
-2.80988
-3.62265
-5.20209
-7.18786
-6.83945
-6.23046
-5.83877
-5.35061
-5.45729
-4.9923
-5.73871
-4.46552
-5.75399
-2.36287
-3.80062
2.75682
2.31503
9.19451
-5.03101
-5.81998
-5.40046
-5.57556
-4.94156
-5.35365
-5.15881
-5.15527
-5.32583
-5.52401
-5.82664
-6.20276
-6.59157
-6.91484
-7.16838
-7.15521
-6.41462
-4.07936
-0.861216
-0.383627
-0.873316
-1.62268
-2.61119
-3.63919
-5.48496
-7.3508
-7.12467
-6.29469
-5.75899
-5.12948
-5.33466
-4.89756
-6.0265
-4.80532
-6.51534
-2.88192
-3.45001
5.52669
9.83804
19.6431
-7.76735
-4.90241
-5.62077
-5.16539
-5.12219
-4.89202
-4.98135
-4.97389
-5.12975
-5.32611
-5.66238
-6.12233
-6.74784
-7.25339
-7.43557
-7.40507
-6.43819
-3.73472
-0.537799
0.236129
-0.242404
-1.12229
-2.41308
-3.63657
-5.66272
-7.48014
-7.32274
-6.36919
-5.7197
-4.96044
-5.21387
-4.74359
-5.9967
-4.91669
-6.62454
-2.54921
-1.89628
11.1991
22.2056
37.9842
-0.0972234
-0.170553
-0.280022
-0.43671
-0.575384
-0.609275
-0.690882
-0.749938
-0.804003
-0.829277
-0.934416
-0.896665
-0.847441
-0.815338
-0.729158
-0.659285
-0.556125
-0.478524
-0.632272
-0.527699
-0.397259
-0.0256003
-2.10707
-2.38395
-2.59996
-2.75488
-2.65709
-2.55176
-2.41132
-2.38039
-2.15897
-2.19531
-2.28402
-2.27503
-2.28557
-2.26362
-2.26965
-2.26431
-2.28088
-2.28264
-0.206667
-0.255366
-0.335511
-0.448972
-0.572604
-0.579747
-0.626278
-0.700928
-0.597377
-0.621975
-0.433416
-0.541441
-0.53511
-0.613138
-0.738311
-0.79789
-0.755726
-0.614078
-0.5032
-0.299705
-0.201203
-0.184776
-2.01319
-2.62066
-2.83293
-2.90988
-2.79412
-2.68056
-2.60671
-2.58761
-2.48463
-2.32598
-2.25907
-2.24305
-2.2876
-2.27645
-2.28051
-2.28178
-2.28477
-2.27503
-0.297117
-0.318475
-0.40702
-0.474452
-0.567777
-0.559713
-0.571313
-0.543685
-0.63331
-0.814345
-0.94684
-1.0818
-1.14822
-1.2717
-1.25679
-1.15019
-1.00627
-0.854185
-0.70174
-0.484905
-0.400317
-0.498498
-2.40469
-3.27634
-3.507
-3.55379
-3.43661
-3.3092
-3.25533
-3.25942
-3.24156
-3.11724
-2.89059
-2.72852
-2.62324
-2.58212
-2.52796
-2.497
-2.4589
-2.41476
-0.376766
-0.39077
-0.463901
-0.511839
-0.5964
-0.806142
-0.870885
-1.06308
-1.25364
-1.47016
-1.51797
-1.5617
-1.59033
-1.6613
-1.57479
-1.41114
-1.22874
-1.03701
-0.834874
-0.606971
-0.498909
-0.608548
-2.50959
-3.49124
-3.7418
-3.78489
-3.68998
-3.57167
-3.56285
-3.60322
-3.64843
-3.64662
-3.53789
-3.24668
-2.99548
-2.78646
-2.6772
-2.54857
-2.42327
-2.38548
-0.44288
-0.449906
-0.581002
-0.645103
-0.827333
-1.12494
-1.50021
-1.75125
-1.89551
-1.99711
-1.98936
-1.97914
-2.04608
-2.10276
-1.99833
-1.8373
-1.66081
-1.47961
-1.28396
-0.962891
-0.686527
-0.591011
-2.29419
-3.41589
-3.69927
-3.76976
-3.80942
-3.78018
-3.84273
-3.88019
-3.93163
-3.97396
-3.94459
-3.77906
-3.46293
-3.09242
-2.68419
-2.30872
-2.12405
-2.12233
-0.555987
-0.579468
-0.69563
-0.818903
-0.96332
-1.60471
-1.90788
-2.1602
-2.2703
-2.34636
-2.34744
-2.34625
-2.43859
-2.46189
-2.40762
-2.1925
-1.99893
-1.829
-1.60277
-1.22775
-0.828271
-0.426019
-1.67466
-2.91989
-3.58037
-3.72985
-3.71571
-3.76077
-3.90862
-3.98221
-4.09176
-4.09412
-4.01611
-3.83535
-3.48381
-2.96718
-2.39508
-1.89582
-1.69869
-1.75748
-0.562656
-0.640979
-0.759045
-1.01959
-1.38818
-1.85013
-2.15067
-2.38133
-2.52875
-2.65527
-2.71517
-2.77523
-2.94451
-2.94989
-2.85567
-2.74506
-2.64613
-2.62388
-2.55982
-2.08986
-1.20164
-0.54877
-1.05735
-1.84002
-2.88185
-3.42179
-3.55151
-3.67347
-3.79741
-3.98469
-4.03306
-4.04912
-3.97122
-3.79815
-3.47258
-2.93151
-2.22057
-1.67378
-1.45459
-1.53958
-0.611293
-0.613103
-0.836646
-1.43883
-1.72186
-1.9922
-2.25962
-2.51543
-2.73075
-2.90372
-3.05071
-3.23885
-3.39421
-3.45375
-3.46462
-3.40112
-3.28975
-3.255
-2.84738
-1.97772
-1.08571
-0.620646
-0.73362
-1.0647
-1.76171
-2.7816
-3.28707
-3.58824
-3.76269
-3.87878
-4.14686
-4.06586
-4.00777
-3.8039
-3.41891
-2.89545
-2.16079
-1.56726
-1.30876
-1.37623
-0.539051
-0.626808
-1.07908
-1.52075
-1.7961
-2.08343
-2.46469
-2.63449
-2.87112
-3.12673
-3.26444
-3.5515
-3.74366
-3.87141
-3.92396
-3.8127
-3.51347
-3.05324
-2.06271
-1.28538
-0.906858
-0.779569
-0.759008
-0.632203
-0.789041
-1.85573
-2.89611
-3.46659
-3.75617
-3.88105
-3.9026
-3.95138
-3.78079
-3.51709
-3.27112
-2.79371
-2.14443
-1.47719
-1.19836
-1.24277
-0.600955
-0.787006
-1.1834
-1.57055
-1.77067
-2.12698
-2.40322
-2.73657
-2.97307
-3.04846
-3.37574
-3.68019
-3.91227
-4.07453
-4.08005
-3.68769
-2.86411
-1.66698
-0.84531
-0.694856
-0.794686
-0.935792
-0.920629
-0.527842
-0.224636
-0.801858
-2.27922
-3.30534
-3.83943
-3.95546
-4.13704
-4.1388
-4.12148
-3.98435
-3.36544
-2.74705
-2.08003
-1.48683
-1.09827
-1.14558
-0.68678
-0.873243
-1.18117
-1.51547
-1.78286
-2.01882
-2.33728
-2.60858
-2.68443
-2.99617
-3.29409
-3.54339
-3.79514
-3.90419
-3.5964
-2.53944
-1.09712
-0.122375
-0.00640482
-0.276773
-0.667195
-1.01058
-1.06771
-0.628877
-0.221169
-0.263734
-1.70993
-3.20676
-3.77608
-4.3687
-4.26304
-3.98985
-3.51214
-3.27805
-3.1323
-2.64333
-1.98995
-1.36592
-0.984673
-1.00554
-0.801317
-0.941604
-1.16595
-1.414
-1.66973
-1.89519
-2.1246
-2.41267
-2.42635
-2.61907
-2.72264
-2.98682
-3.20528
-3.04741
-1.95404
-0.344568
0.67757
0.848676
0.560458
0.0698011
-0.486382
-0.999461
-1.18267
-0.832986
-0.510127
-0.467808
-1.12242
-2.86455
-4.12158
-4.25027
-4.12482
-4.25097
-4.13087
-3.82491
-3.18918
-2.4767
-1.85005
-1.2873
-0.8537
-0.887192
-0.885837
-0.970098
-1.14043
-1.32529
-1.48828
-1.6393
-1.775
-1.79426
-1.84311
-2.05053
-2.02352
-1.84237
-2.03629
-1.00886
0.664892
1.51519
1.70325
1.4714
1.00647
0.411977
-0.238139
-0.915665
-1.28137
-1.08546
-0.88964
-0.911481
-1.19892
-2.23975
-3.47099
-4.04702
-4.50066
-4.2573
-3.90803
-3.53732
-3.06182
-2.6771
-1.80558
-1.06705
-0.76338
-0.681217
-0.967067
-1.01606
-1.14132
-1.23527
-1.3117
-1.35131
-1.3612
-1.24961
-1.13285
-1.02149
-0.730127
-0.355914
0.196128
1.69854
2.33757
2.5053
2.29748
1.91909
1.37634
0.737671
0.0350471
-0.812963
-1.3919
-1.36169
-1.29698
-1.35207
-1.59049
-1.90873
-3.49917
-4.23863
-4.24183
-3.96563
-3.57785
-3.13509
-2.6842
-2.26333
-1.86566
-0.998868
-0.512882
-0.465623
-1.00009
-1.04507
-1.15789
-1.2019
-1.19119
-1.06981
-0.878165
-0.563277
-0.207354
0.147541
0.992614
2.147
2.59092
3.09237
3.14808
3.08039
2.71686
2.25078
1.67068
1.01382
0.258231
-0.776841
-1.55678
-1.6451
-1.60687
-1.72027
-1.62195
-1.89612
-2.38883
-3.4935
-3.6946
-3.3599
-2.91391
-2.43969
-1.98984
-1.65513
-1.23183
-1.00931
-0.319731
-0.187595
-0.855325
-0.911955
-1.03501
-1.04607
-0.987497
-0.70172
-0.288907
0.373026
1.20398
2.03981
2.90066
3.53084
3.60825
3.70763
3.47491
3.38086
2.98984
2.45348
1.86328
1.17961
0.346046
-0.839469
-1.78826
-1.93134
-1.84886
-1.7547
-1.85286
-2.02749
-2.28381
-2.60001
-2.81543
-2.48475
-2.01132
-1.50472
-1.01154
-0.706872
-0.427646
-0.366053
0.0998221
0.126269
-0.723367
-0.773245
-0.829604
-0.768672
-0.675079
-0.186568
0.521748
1.62892
2.57717
3.26043
3.74352
3.8923
3.77595
3.60085
3.43837
3.21254
2.94339
2.46659
1.86362
1.17502
0.310517
-0.883062
-1.93934
-2.18458
-2.15312
-2.05306
-2.00054
-2.16588
-2.35434
-2.33074
-2.02039
-1.5651
-1.02181
-0.501114
-0.0441866
0.269017
0.468479
0.394325
0.203418
0.502188
-0.467586
-0.485627
-0.455995
-0.33297
-0.196048
0.42293
1.26382
2.06002
2.77166
3.18816
3.3084
3.26441
3.0713
2.8758
2.70308
2.50095
2.36937
2.04556
1.54897
0.921407
0.102857
-0.987623
-2.03974
-2.37558
-2.36011
-2.13164
-2.20646
-2.37094
-2.53548
-2.56842
-1.97312
-1.20921
-0.480922
0.101768
0.604378
1.0225
1.2769
1.10557
0.709949
0.668446
-1.10968
-0.945334
-0.780453
-0.568686
-0.328031
0.170823
0.631308
0.790794
1.12505
1.39098
1.51012
1.56376
1.53731
1.45829
1.33264
1.22543
1.06842
1.10203
0.765411
0.30075
-0.356607
-1.24243
-2.14944
-2.52092
-2.44025
-2.24812
-2.32155
-2.49792
-2.68323
-2.80248
-2.67103
-1.55811
-0.223388
0.661231
1.32395
1.78365
2.09157
1.68468
1.35307
1.06522
-2.40448
-2.1887
-2.1079
-1.97851
-1.84554
-1.67943
-1.66403
-1.98548
-1.90698
-1.54032
-1.17169
-0.858358
-0.635542
-0.46766
-0.413713
-0.401386
-0.509685
-0.481608
-0.4656
-0.748244
-1.12934
-1.71697
-2.3626
-2.69616
-2.45634
-2.33836
-2.37474
-2.5328
-2.7445
-2.95772
-3.10694
-2.80058
-1.21814
0.445984
1.5568
2.11777
2.44377
2.01848
1.449
1.03645
-2.58066
-2.57261
-2.66936
-2.71207
-2.78158
-2.81815
-3.0968
-3.8077
-4.274
-4.13832
-3.74583
-3.26911
-2.83734
-2.47547
-2.24619
-2.10175
-2.07139
-2.10948
-2.09809
-1.99602
-2.14692
-2.37884
-2.70262
-2.93463
-2.6835
-2.45505
-2.39707
-2.51823
-2.75594
-3.03853
-3.3235
-3.48084
-2.86597
-1.50821
-0.330427
0.569814
1.15462
1.30498
1.0349
0.888932
-2.79369
-2.90191
-3.07572
-3.20566
-3.43523
-3.54481
-3.92571
-4.68965
-5.47584
-5.75204
-5.54313
-5.08742
-4.58978
-4.16237
-3.87871
-3.69104
-3.58863
-3.51916
-3.41614
-3.31217
-3.0802
-3.10092
-3.1631
-3.09559
-2.85588
-2.55735
-2.40354
-2.47822
-2.74983
-3.11299
-3.4991
-3.8034
-3.68661
-3.1805
-2.66036
-2.19377
-1.80442
-1.53469
-1.77254
-2.27379
-2.87551
-3.14837
-3.38659
-3.58003
-3.86615
-4.08821
-4.50012
-5.17075
-5.98399
-6.50306
-6.55221
-6.23338
-5.76746
-5.33272
-5.02014
-4.70786
-4.34248
-4.15887
-4.08358
-3.96173
-3.83659
-3.60959
-3.65058
-3.38779
-3.11597
-2.80854
-2.57594
-2.54502
-2.78756
-3.20541
-3.68397
-4.09593
-4.29145
-4.26815
-4.26401
-4.27745
-4.30617
-4.19172
-3.99673
-3.82769
-3.07525
-3.38819
-3.66917
-3.9003
-4.21093
-4.5022
-4.90751
-5.48398
-6.17879
-6.77015
-6.99411
-6.83754
-6.42443
-5.92451
-5.42154
-4.81686
-4.27601
-4.10078
-4.09614
-4.06316
-3.99205
-3.90751
-3.85025
-3.62314
-3.52903
-3.31257
-3.14895
-3.10038
-3.23289
-3.53864
-3.96944
-4.40181
-4.77495
-5.09131
-5.50386
-5.86179
-6.25729
-6.2073
-5.80392
-4.99565
-3.35266
-3.58518
-3.92795
-4.18458
-4.50629
-4.85674
-5.17216
-5.68943
-6.25194
-6.75977
-7.04102
-7.0208
-6.69894
-6.12019
-5.41336
-4.7257
-4.11487
-3.92082
-3.92979
-3.92061
-3.91445
-3.91302
-3.80911
-3.95768
-4.00795
-4.01254
-4.11493
-4.3509
-4.64071
-4.92135
-5.16673
-5.41358
-5.74611
-6.10513
-6.6575
-7.12436
-7.76763
-7.88291
-7.5021
-6.26947
-3.53047
-3.61654
-4.10967
-4.41609
-4.7392
-5.04469
-5.3705
-5.8239
-6.26823
-6.67304
-6.90773
-6.92138
-6.69479
-6.20181
-5.47633
-4.77518
-4.07039
-3.75531
-3.73557
-3.74621
-3.79044
-3.87115
-3.87653
-4.18214
-4.67525
-4.89954
-5.09227
-5.60679
-6.03046
-6.34397
-6.59758
-6.80581
-7.0497
-7.25309
-7.71473
-8.03298
-8.70975
-8.79857
-8.78531
-7.8658
-3.74738
-3.61749
-4.17684
-4.53661
-4.90383
-5.21794
-5.54504
-5.90365
-6.2423
-6.54868
-6.73392
-6.75171
-6.60203
-6.27169
-5.6959
-5.00591
-4.20757
-3.67239
-3.57959
-3.57432
-3.64567
-3.77698
-3.91049
-4.31122
-4.96234
-5.6198
-6.0898
-6.13155
-6.41453
-6.58345
-6.64375
-6.64327
-6.69107
-6.66341
-6.91647
-6.94591
-7.55141
-7.51978
-7.98175
-7.68783
-3.96928
-3.73189
-4.20695
-4.60381
-4.96801
-5.31621
-5.63688
-5.92891
-6.19781
-6.43286
-6.57567
-6.59265
-6.48683
-6.29937
-5.96276
-5.33149
-4.49314
-3.68334
-3.52187
-3.49017
-3.58413
-3.69528
-3.81364
-4.34129
-5.26838
-6.08897
-6.45302
-6.48306
-6.48224
-6.46975
-6.53541
-6.47183
-6.45083
-6.23033
-6.29628
-5.88239
-6.12654
-5.56446
-5.94798
-5.50164
-4.14611
-3.89816
-4.23042
-4.70226
-5.0384
-5.3326
-5.68798
-5.94521
-6.17191
-6.35366
-6.48013
-6.52378
-6.48711
-6.37405
-6.16393
-5.69955
-4.87472
-3.7878
-3.44795
-3.47733
-3.5053
-3.56961
-3.70599
-4.29381
-5.5371
-6.38157
-6.49218
-6.51476
-6.43083
-6.4719
-6.41226
-6.31276
-6.28935
-5.96926
-5.95995
-5.28448
-5.4274
-4.45602
-4.72796
-4.35637
-4.28649
-4.06043
-4.25363
-4.78352
-5.09908
-5.33552
-5.57975
-5.89264
-6.11689
-6.28825
-6.41748
-6.48774
-6.50256
-6.47068
-6.35196
-5.98955
-5.22764
-3.94144
-3.50684
-3.40885
-3.47139
-3.51729
-3.59775
-4.12972
-5.62023
-6.48008
-6.47357
-6.44199
-6.37127
-6.33688
-6.35869
-6.28051
-6.26393
-5.81305
-5.84421
-4.97965
-5.19989
-3.97017
-4.23517
-3.65435
-4.40432
-4.23554
-4.30871
-4.83122
-5.16341
-5.39055
-5.6051
-5.87023
-6.05421
-6.24548
-6.38744
-6.47544
-6.52239
-6.53002
-6.44822
-6.24269
-5.62377
-4.16573
-3.31048
-3.26185
-3.43722
-3.46936
-3.49106
-3.89073
-5.47645
-6.51928
-6.54038
-6.38805
-6.31969
-6.21191
-6.2979
-5.99515
-6.25725
-5.80173
-5.82653
-4.88278
-5.2282
-3.86742
-4.24546
-3.38568
-4.4893
-4.39737
-4.35518
-4.74538
-5.12144
-5.34695
-5.57174
-5.78575
-6.00888
-6.11767
-6.27673
-6.39277
-6.46815
-6.49793
-6.45105
-6.3544
-5.93408
-4.40574
-3.06145
-3.1108
-3.31567
-3.40471
-3.42131
-3.68961
-5.26899
-6.61205
-6.58207
-6.41519
-6.26757
-6.21959
-6.14031
-6.03383
-5.89704
-5.66268
-6.00452
-4.85937
-5.47236
-3.90039
-4.50444
-3.31574
-4.52343
-4.54514
-4.50041
-4.72029
-5.1518
-5.43111
-5.64265
-5.82894
-6.02623
-6.17324
-6.25474
-6.31013
-6.3621
-6.47097
-6.36961
-6.19935
-5.92271
-4.5047
-2.82915
-3.06439
-3.19324
-3.32576
-3.39097
-3.57792
-5.05776
-6.76239
-6.62592
-6.39109
-6.2412
-6.14261
-6.1413
-5.83979
-6.00558
-5.36881
-5.7631
-5.11066
-5.7845
-4.02393
-4.89219
-3.30862
-4.5968
-4.60727
-4.62594
-4.5152
-4.95491
-5.2647
-5.49477
-5.66418
-5.83395
-6.04199
-6.1661
-6.25896
-6.30271
-6.20065
-6.25115
-6.13502
-5.83579
-4.6059
-2.58667
-2.79794
-2.96129
-3.18352
-3.34959
-3.57026
-4.93838
-6.88994
-6.64078
-6.35178
-6.14127
-5.96737
-6.08123
-5.75444
-5.857
-5.35392
-5.93661
-4.47721
-6.24021
-3.79929
-5.08382
-3.13735
-4.83166
-4.81188
-4.87369
-4.86868
-5.01283
-5.4443
-5.62801
-5.75186
-5.89949
-6.0523
-6.20752
-6.31841
-6.32894
-6.38656
-6.3607
-6.14433
-5.76197
-4.62862
-2.39188
-2.45727
-2.69275
-3.0197
-3.31941
-3.67482
-4.99707
-7.05334
-6.71469
-6.32117
-6.02857
-5.80044
-5.92271
-5.65651
-5.89309
-5.05269
-6.0132
-4.35365
-6.08047
-3.81487
-5.11888
-2.54064
-4.40619
-4.4541
-4.60675
-4.65023
-4.76782
-5.07529
-5.28648
-5.38823
-5.54421
-5.72698
-5.8892
-6.00926
-6.14822
-6.18218
-6.27107
-6.02633
-5.69889
-4.45772
-1.922
-1.8428
-2.16368
-2.64054
-3.16353
-3.72492
-5.06199
-7.06683
-6.77946
-6.29057
-5.94091
-5.59035
-5.66734
-5.47176
-5.89256
-4.9143
-6.01617
-3.8298
-5.74917
-2.68962
-4.31357
-0.996256
-4.81654
-5.04083
-4.83519
-5.1779
-5.24243
-5.46745
-5.53798
-5.58164
-5.72601
-5.8806
-6.02472
-6.22235
-6.34504
-6.45387
-6.52584
-6.32238
-6.10687
-4.58075
-1.58432
-1.46299
-1.72612
-2.36906
-3.09746
-3.87011
-5.36519
-7.29019
-7.00871
-6.34501
-5.90848
-5.45315
-5.5791
-5.24195
-6.01351
-4.87572
-6.32731
-3.75046
-5.57367
-1.50438
-3.13151
1.26254
-5.63507
-5.00791
-5.24498
-4.7476
-5.01301
-4.9378
-5.06527
-5.0939
-5.29827
-5.464
-5.7653
-6.04179
-6.31389
-6.47383
-6.61585
-6.6114
-6.14008
-4.38403
-1.48057
-1.17986
-1.48576
-2.12875
-2.92795
-3.87162
-5.5498
-7.37084
-7.12678
-6.3062
-5.77848
-5.22837
-5.37139
-4.94694
-5.84661
-4.73148
-6.29527
-3.12264
-4.24181
2.02034
2.63578
11.5242
-4.72436
-5.81435
-5.56055
-5.77668
-5.36499
-5.3141
-5.29597
-5.25271
-5.39808
-5.54273
-5.84901
-6.25391
-6.62829
-6.91879
-7.24588
-7.18053
-6.42823
-4.21363
-1.23065
-0.672123
-1.16428
-1.79595
-2.85421
-4.02962
-5.92003
-7.58789
-7.32169
-6.36895
-5.75709
-5.05324
-5.29143
-4.84918
-6.06417
-4.93202
-6.91372
-3.35857
-4.19441
4.97234
11.6537
25.1994
-7.64666
-4.81627
-5.54815
-5.15695
-5.19631
-4.9624
-4.99953
-4.98504
-5.15378
-5.36002
-5.70878
-6.15356
-6.7527
-7.32355
-7.493
-7.42581
-6.39851
-3.80987
-0.787573
-0.0159738
-0.522419
-1.31295
-2.62599
-3.95107
-6.00362
-7.6767
-7.4909
-6.43491
-5.73265
-4.8978
-5.17753
-4.681
-6.04427
-4.94066
-6.92205
-2.80595
-2.05066
12.0734
25.8192
44.4269
-0.204741
-0.224205
-0.274792
-0.412884
-0.539435
-0.587587
-0.678028
-0.745901
-0.751033
-0.848749
-0.921321
-0.930794
-0.861087
-0.785387
-0.644696
-0.691527
-0.699157
-0.596636
-0.483187
-0.323933
-0.340883
-0.306437
-2.13812
-2.60563
-2.71623
-2.54559
-2.2924
-2.17995
-2.11873
-2.06837
-2.01784
-1.97236
-2.01327
-2.15275
-2.26733
-2.26526
-2.28118
-2.21304
-2.23083
-2.23468
-0.254031
-0.272521
-0.335127
-0.434662
-0.553072
-0.579874
-0.69125