/*--------------------------------*- C++ -*----------------------------------*\
| =========                 |                                                 |
| \\      /  F ield         | OpenFOAM: The Open Source CFD Toolbox           |
|  \\    /   O peration     | Version:  v1806                                 |
|   \\  /    A nd           | Web:      www.OpenFOAM.com                      |
|    \\/     M anipulation  |                                                 |
\*---------------------------------------------------------------------------*/
FoamFile
{
    version     2.0;
    format      ascii;
    class       volScalarField;
    location    "0.125";
    object      p;
}
// * * * * * * * * * * * * * * * * * * * * * * * * * * * * * * * * * * * * * //

dimensions      [0 2 -2 0 0 0 0];


internalField   nonuniform List<scalar> 
64000
(
7.45009e-05
-0.0967124
-0.16817
-0.173463
-0.142257
-0.0780286
0.00455694
0.100458
0.208746
0.324686
0.437701
0.548743
0.638437
0.734232
0.843964
0.839141
0.899748
0.763387
0.763196
0.421742
0.287969
-0.486785
-0.461741
-0.821203
-0.873581
-1.07657
-1.18196
-1.35379
-1.46198
-1.72621
-1.9885
-2.32025
-2.64027
-2.95404
-3.25395
-3.49098
-3.68031
-3.82344
-3.92805
-3.96921
-0.21339
-0.287514
-0.288342
-0.271179
-0.204258
-0.113046
-0.0100362
0.094395
0.20689
0.342638
0.40773
0.562906
0.710896
0.806836
0.935651
0.94308
0.988681
0.897331
0.918399
0.658797
0.396373
-0.379485
-0.432804
-0.728578
-0.798035
-1.0092
-1.14169
-1.36645
-1.5142
-1.8131
-1.85634
-2.25706
-2.58507
-2.87296
-3.1949
-3.43027
-3.64298
-3.80132
-3.92329
-3.96264
-0.466166
-0.478306
-0.434728
-0.393276
-0.289075
-0.180579
-0.0719769
0.0440195
0.135435
0.323881
0.480745
0.602059
0.757322
0.80253
0.962192
0.97203
1.0538
0.955851
0.955287
0.644505
0.342552
-0.559555
-0.679236
-1.01836
-1.12385
-1.36514
-1.51816
-1.74744
-1.90855
-2.10371
-2.26481
-2.42421
-2.69266
-2.962
-3.2489
-3.44396
-3.6463
-3.80115
-3.91918
-3.97702
-0.717916
-0.728823
-0.686456
-0.532742
-0.404631
-0.271861
-0.132618
-0.0439654
0.135918
0.299964
0.455179
0.521975
0.755319
0.841059
0.986109
1.01145
1.07325
0.959672
0.912034
0.593013
0.279709
-0.729128
-0.903102
-1.26398
-1.39311
-1.6292
-1.77353
-1.98018
-2.1085
-2.27837
-2.41058
-2.57076
-2.78598
-2.97653
-3.26445
-3.44122
-3.63243
-3.82128
-3.92777
-4.00212
-0.965538
-0.971866
-0.827003
-0.717263
-0.56694
-0.420542
-0.238633
-0.18621
0.0376125
0.210664
0.381188
0.489452
0.632644
0.7045
0.914266
0.933745
1.00398
0.890032
0.838302
0.529022
0.218928
-0.859993
-1.04677
-1.42736
-1.56174
-1.79084
-1.92098
-2.09608
-2.21469
-2.35406
-2.46493
-2.6287
-2.79567
-2.94557
-3.28857
-3.51864
-3.70768
-3.88792
-3.92206
-4.02659
-1.22104
-1.17821
-1.12416
-0.960494
-0.794961
-0.643897
-0.376662
-0.322509
-0.138688
-0.00497029
0.149024
0.331
0.526974
0.680512
0.855811
0.920705
0.991351
0.876112
0.795101
0.583691
0.230735
-0.824052
-0.991516
-1.34048
-1.49128
-1.71599
-1.86481
-2.05047
-2.17142
-2.33068
-2.42868
-2.5573
-2.74079
-2.86646
-3.36613
-3.55724
-3.68711
-3.86476
-3.94431
-4.00193
-1.47734
-1.46337
-1.44037
-1.35321
-1.17043
-0.950792
-0.753564
-0.80066
-0.625869
-0.391194
-0.126528
0.124928
0.387586
0.602429
0.807078
0.91773
1.00927
0.908355
0.805955
0.621113
0.41642
-0.673712
-0.791499
-1.11752
-1.28886
-1.52383
-1.71156
-1.92566
-2.0915
-2.24824
-2.392
-2.49335
-2.67245
-2.77591
-3.21149
-3.51316
-3.61436
-3.80553
-3.89616
-3.95509
-1.78859
-1.77921
-1.74092
-1.6781
-1.50541
-1.38212
-1.31353
-1.26036
-0.959878
-0.694594
-0.384197
-0.0645877
0.260133
0.516585
0.783854
0.955946
1.09131
1.09005
1.04928
0.807949
0.79906
-0.234494
-0.485573
-0.760352
-0.997727
-1.24675
-1.48455
-1.74234
-1.95579
-2.14558
-2.28833
-2.43435
-2.6076
-2.73281
-3.06638
-3.47744
-3.57514
-3.72573
-3.85811
-3.91524
-2.0952
-2.0803
-2.0243
-1.99149
-1.85102
-1.8673
-1.72318
-1.54382
-1.39879
-0.98323
-0.623231
-0.244109
0.134959
0.468099
0.804698
1.06152
1.26907
1.35406
1.36107
1.19168
1.14215
0.534276
-0.0730206
-0.291312
-0.610371
-0.868783
-1.16551
-1.45745
-1.71531
-1.93704
-2.18144
-2.34457
-2.50888
-2.66373
-2.84087
-3.37666
-3.45472
-3.63535
-3.76961
-3.8447
-2.47371
-2.39152
-2.36121
-2.32589
-2.27504
-2.34246
-2.10765
-1.8503
-1.51499
-1.38723
-0.85547
-0.364766
0.0752299
0.497836
0.914042
1.27165
1.56568
1.76597
1.82763
1.81649
1.60458
1.30275
0.410983
0.245306
-0.165158
-0.458574
-0.794242
-1.16513
-1.46149
-1.79066
-2.03083
-2.28801
-2.45523
-2.62206
-2.82819
-3.21593
-3.45917
-3.56125
-3.70099
-3.78285
-2.8399
-2.76146
-2.74204
-2.72917
-2.77242
-2.75141
-2.50961
-2.18768
-1.86585
-1.42448
-1.08056
-0.549764
0.047532
0.593094
1.09394
1.55724
1.93705
2.22342
2.3275
2.38341
2.17067
1.96087
0.997821
0.849127
0.378561
0.0775442
-0.368946
-0.743215
-1.1638
-1.5195
-1.85458
-2.10383
-2.29485
-2.46269
-2.59405
-3.00637
-3.2967
-3.47161
-3.63974
-3.73318
-3.24075
-3.15837
-3.15157
-3.19705
-3.26301
-3.14883
-2.87464
-2.51085
-2.1199
-1.65677
-1.11802
-0.511363
-0.0640386
0.672615
1.36689
1.92317
2.40861
2.78493
2.92746
3.00592
2.88762
2.62426
1.69403
1.51015
0.984196
0.652634
0.164343
-0.343016
-0.788847
-1.23908
-1.65049
-2.08493
-2.35737
-2.56085
-2.73793
-2.94435
-3.25105
-3.38684
-3.51727
-3.63673
-3.6754
-3.58987
-3.62038
-3.72875
-3.72437
-3.59112
-3.22677
-2.89078
-2.38884
-1.84727
-1.22019
-0.5803
0.162825
0.745541
1.62827
2.37401
2.94027
3.41177
3.61416
3.70819
3.66861
3.30159
2.51252
2.26612
1.73668
1.30723
0.715808
0.214414
-0.257351
-0.963865
-1.40153
-1.65347
-1.967
-2.24086
-2.43978
-2.71273
-3.17055
-3.37312
-3.53944
-3.6516
-4.11425
-4.05591
-4.11405
-4.18542
-4.15713
-3.99807
-3.62227
-3.17575
-2.67801
-2.07948
-1.37586
-0.586987
0.26546
1.01155
1.91448
2.85168
3.55369
4.1129
4.39702
4.50599
4.5056
3.99921
3.40176
3.09408
2.55639
2.12323
1.37626
0.643182
-0.0559787
-0.388831
-0.8535
-1.36407
-1.79797
-2.12398
-2.42
-2.61102
-2.96467
-3.15012
-3.3616
-3.48814
-4.5835
-4.5563
-4.60116
-4.64291
-4.58059
-4.43338
-4.03327
-3.57997
-2.98323
-2.30721
-1.56168
-0.661261
0.362274
1.4408
2.27248
3.34206
4.25856
4.89344
5.2618
5.41633
5.38058
4.74739
4.37306
4.0404
3.37411
2.65357
2.13521
1.63066
1.04103
0.402563
-0.285779
-0.902078
-1.47398
-1.94862
-2.2793
-2.65605
-2.88103
-3.35038
-3.3584
-3.51932
-5.09228
-5.05488
-5.07586
-5.08445
-4.99443
-4.83391
-4.44385
-3.95363
-3.33153
-2.61818
-1.79524
-0.825603
0.306856
1.73132
2.72885
3.8652
4.89001
5.71782
6.22645
6.5094
6.27774
6.23611
5.84908
5.31659
4.5908
4.03132
3.50817
2.84624
2.04273
1.21611
0.38765
-0.432472
-1.1612
-1.76784
-2.2294
-2.60361
-2.83382
-3.03276
-3.27625
-3.34658
-5.54976
-5.53463
-5.54297
-5.53025
-5.42058
-5.25386
-4.85274
-4.34105
-3.67417
-2.86367
-1.94751
-0.867595
0.438722
2.08675
3.50299
4.65881
5.81417
6.63223
7.06965
7.56207
7.83048
7.86659
7.56066
7.07325
6.40384
5.73757
4.79455
4.08154
3.12873
2.15451
1.11425
0.109272
-0.808821
-1.58429
-2.20254
-2.66054
-2.95516
-3.15594
-3.3505
-3.50595
-5.87729
-5.87431
-5.87318
-5.8077
-5.68484
-5.54599
-5.14077
-4.61636
-3.93772
-3.16045
-2.38328
-1.39098
0.228655
2.32072
3.97465
5.24707
6.4121
7.40746
8.47677
9.35231
9.65659
9.84382
9.55377
9.05524
8.31243
7.37764
6.57471
5.32453
4.24445
3.24764
2.02072
0.773477
-0.362463
-1.28986
-2.01357
-2.75695
-2.97543
-3.02519
-3.08205
-3.25292
-6.31113
-6.24424
-6.17471
-6.14403
-6.01126
-5.88443
-5.44587
-4.91099
-4.21718
-3.39962
-2.53321
-1.28815
0.963794
2.88576
4.63971
6.17666
7.49038
8.99898
10.2479
11.0942
11.7341
11.957
11.6431
11.1093
10.4613
9.42963
8.23027
7.25981
5.8713
4.21857
2.6182
1.11227
-0.190004
-1.27787
-2.06254
-2.35448
-2.69886
-3.16294
-3.09639
-3.15655
-5.50667
-5.33021
-5.28369
-5.17667
-5.0201
-4.9268
-4.69627
-4.40782
-3.74996
-2.8338
-1.77635
-0.478566
1.63965
3.44582
5.12471
6.8077
8.61054
10.1441
11.6137
12.7144
13.5124
13.9403
13.9765
13.6118
12.7652
11.5535
10.244
8.76547
7.55896
6.04553
4.33286
2.62788
1.03657
-0.17232
-1.08917
-1.81296
-2.19637
-2.54218
-2.79325
-2.97062
-6.15835
-6.01596
-5.86302
-5.70333
-5.51939
-5.32216
-5.17884
-4.90865
-4.17721
-3.03263
-1.65811
-0.163971
1.5699
3.71998
5.72344
7.5256
9.37871
11.1737
13.1314
14.3413
15.137
15.7334
15.9665
15.7744
14.9922
13.6493
11.8784
10.2398
8.67523
7.21963
5.31845
3.37525
1.59727
0.176544
-0.881744
-1.57192
-2.01895
-2.23371
-2.53173
-2.52111
-6.50137
-6.41805
-6.29209
-6.14061
-6.00183
-5.84471
-5.75526
-5.37736
-4.60784
-3.33142
-1.79998
-0.0645088
1.85729
3.95563
6.05299
7.92871
10.1003
12.3449
14.7435
16.1134
16.9236
17.4398
17.7622
17.6845
16.8292
15.2634
13.2754
11.0453
8.87045
7.37649
5.56738
3.85782
2.23889
0.80622
-0.41833
-1.27686
-1.86891
-2.19291
-2.43885
-2.67059
-6.88332
-6.78903
-6.65967
-6.56609
-6.4548
-6.37077
-6.35125
-5.93817
-5.12816
-3.79005
-2.09587
-0.165606
1.91725
4.01282
6.53265
8.71169
11.0397
13.5731
15.9725
17.6935
18.6935
19.245
19.3782
19.1818
18.2946
16.6875
14.532
12.1895
9.66012
7.5027
5.71028
4.02331
2.4033
1.11769
0.210795
-0.41945
-0.97879
-1.29611
-1.43569
-1.53834
-7.05042
-6.96352
-6.87789
-6.81717
-6.77835
-6.75657
-6.82155
-6.43974
-5.62014
-4.252
-2.4805
-0.427639
1.78839
3.93641
6.63113
9.5466
12.0512
14.515
16.7367
18.7705
20.1176
20.8501
20.9839
20.5016
19.4321
17.8115
15.5888
13.0272
10.4042
7.83907
6.14544
4.55073
2.9229
1.55489
0.441893
-0.394239
-1.08073
-1.50774
-1.7504
-2.00566
-7.04008
-6.96761
-6.95955
-6.97098
-7.01493
-7.06875
-7.20865
-6.91455
-6.12308
-4.77911
-2.98911
-0.891849
1.39759
3.6478
6.39648
9.63002
12.6761
15.0254
17.3583
19.3331
21.1063
22.0211
22.249
21.728
20.4504
18.6493
16.3806
13.6764
10.8575
8.23586
6.23829
5.08458
3.44088
2.08528
0.904205
0.0179225
-0.751544
-1.22971
-1.47062
-1.65334
-6.77729
-6.74876
-6.79768
-6.86831
-6.99958
-7.07046
-7.27304
-7.13921
-6.43256
-5.19967
-3.51447
-1.48626
0.752718
3.10527
5.65174
8.86711
12.2054
15.1368
17.5811
19.6118
21.5345
22.7106
23.0684
22.5903
21.3043
19.424
17.0726
14.2153
11.2138
8.83411
6.58976
5.2618
3.70224
2.40649
1.20126
0.287414
-0.55764
-1.10489
-1.55883
-1.88862
-6.4446
-6.45607
-6.51136
-6.64433
-6.83058
-6.96456
-7.16987
-7.17097
-6.58038
-5.51217
-4.0099
-2.16491
-0.0915345
2.26017
4.92474
7.84751
11.2565
14.2781
16.7532
19.2352
21.6162
22.9703
23.4117
22.9781
21.7635
19.8959
17.5192
14.6546
12.0137
9.60179
7.24357
5.59177
4.42314
3.2028
1.9755
1.02922
0.140816
-0.456827
-0.909149
-1.21436
-5.8795
-5.91415
-5.94081
-6.14145
-6.38221
-6.57045
-6.74282
-6.88311
-6.46279
-5.58294
-4.29791
-2.6773
-0.767775
1.49798
4.13754
7.02563
10.2502
13.2689
16.1277
18.2425
21.0517
22.8383
23.5736
23.4073
22.0913
20.2253
17.9679
15.2328
12.4629
9.82319
7.11345
5.3878
3.67293
2.24331
0.912353
0.0480865
-0.75565
-1.2157
-1.59541
-1.66711
-5.24025
-5.31057
-5.30227
-5.48004
-5.77555
-5.97027
-6.15911
-6.20628
-5.96529
-5.37804
-4.39192
-2.89744
-1.08511
1.05094
3.59306
6.40927
9.4593
12.5353
15.7451
17.6352
20.1578
22.2883
22.8404
22.869
22.3828
20.8256
18.7184
16.185
13.3841
10.6343
8.08802
6.5707
4.59358
3.16716
1.77819
0.830265
-0.158363
-0.749114
-1.27895
-1.49987
-4.39921
-4.4426
-4.48307
-4.52776
-4.86044
-5.06146
-5.19104
-5.04416
-4.81133
-4.33333
-3.64676
-2.61246
-0.850739
1.28441
3.76047
6.69733
10.1297
13.2625
15.9922
17.3487
19.6302
21.5463
22.3378
22.273
21.6302
20.426
18.6474
16.2922
13.5834
10.9043
8.61505
6.87896
4.93641
3.61951
2.31867
1.47235
0.544807
0.126536
-0.261431
-0.24749
-3.56059
-3.58874
-3.64282
-3.62268
-3.81692
-4.04394
-4.04119
-3.83931
-3.50374
-3.05874
-2.40125
-1.39226
-0.139904
2.04363
4.57986
7.65489
10.9178
13.2822
15.7071
17.0112
19.3903
21.0903
21.9526
21.8258
21.1932
19.8076
18.2241
16.0358
13.2504
10.6106
9.05625
7.297
5.46291
4.19124
2.83139
2.12047
1.24424
1.0084
0.698889
0.769739
-2.52973
-2.50941
-2.53877
-2.45093
-2.50984
-2.71236
-2.60839
-2.30239
-1.94951
-1.42737
-0.797274
0.147977
1.47695
3.13715
5.69647
8.40761
10.9986
13.1632
15.4377
16.7508
19.0309
20.7672
21.4914
21.4279
20.777
19.3473
17.967
16.0559
12.3958
10.6841
9.08557
7.59191
5.71244
4.61469
3.30668
2.66502
1.83739
1.84089
1.61177
1.91092
-1.63228
-1.62321
-1.57308
-1.56788
-1.32127
-1.4114
-1.20076
-0.794583
-0.372368
0.196889
0.880587
1.79778
3.03211
4.71568
6.8141
8.97507
11.1514
13.193
15.2406
16.7194
18.554
20.2848
20.8837
20.8151
20.2055
18.885
17.5108
15.7107
11.3885
10.4672
9.04292
7.43393
6.02181
4.82922
3.55413
3.11899
2.27961
2.51023
2.39297
2.99208
-0.580111
-0.525488
-0.45745
-0.343356
-0.181498
0.0444258
0.325506
0.856031
1.31762
1.93873
2.66231
3.53811
4.62255
6.1692
7.8035
9.56218
11.4779
13.3401
15.2088
16.5058
17.8563
19.5369
20.2196
20.1051
19.3576
18.294
17.1109
15.4671
10.7277
9.97083
8.66308
7.46178
5.86571
5.39905
3.6134
3.52241
2.65902
3.25492
3.20737
4.22137
0.205717
0.23727
0.368973
0.555135
0.740165
1.12126
1.60557
2.23002
2.76835
3.44555
4.32539
5.25666
6.18786
7.16892
8.49431
10.0332
11.9101
13.5557
15.1599
16.4064
17.2822
18.7679
19.394
19.3312
18.6934
17.6694
16.7295
15.1867
10.2799
9.21033
7.91194
7.33749
5.73053
5.12123
4.03311
3.63542
2.78424
3.6581
3.64833
5.32324
1.0398
1.19145
1.30689
1.65701
1.8787
2.30247
2.90153
3.62964
4.30436
4.95726
5.40933
6.13518
7.0731
8.26186
9.50762
10.9763
12.5435
13.9894
15.3048
16.4151
16.9165
17.9651
18.7649
18.3725
18.153
17.1082
16.6586
14.9201
9.94541
8.76788
7.10838
6.75063
5.8565
5.20431
4.01401
4.20887
3.01052
4.39636
4.14144
6.96358
1.68415
1.6617
1.94325
2.16696
2.57749
3.04089
3.81287
4.57309
4.98248
5.65002
6.36291
7.23985
8.19329
9.27316
10.4267
11.7576
12.9446
14.366
15.4533
16.3754
16.5387
17.0259
17.8784
17.8058
17.8988
17.1336
16.4419
14.472
9.7486
8.31297
6.74273
6.06659
5.25739
5.02595
4.06959
4.25003
3.21923
4.52952
4.68426
8.73394
2.11608
2.58128
2.58812
3.14448
3.38993
4.0056
4.56952
5.20113
5.89144
6.69322
7.41149
8.26867
9.1305
10.1299
11.1713
12.359
13.6091
14.7819
15.6526
16.393
16.4801
16.8395
17.605
17.6258
17.6429
17.1376
16.2318
13.9025
9.59931
7.83961
6.37077
5.79046
4.7106
5.01194
3.9578
4.83094
3.88846
6.32718
5.96724
13.4285
2.67856
2.48973
2.81123
3.02749
3.72589
4.27761
5.0414
5.80763
6.35803
7.18574
8.05358
8.93298
9.77765
10.6961
11.6148
12.6825
13.8991
15.0682
15.7331
16.2914
16.3013
16.5999
17.224
17.5407
17.4882
17.2174
16.1278
13.5323
9.52311
7.68416
5.93557
5.46565
4.43199
4.75509
3.73465
4.7992
3.76511
7.14711
8.49651
18.3718
0.333217
3.19336
3.04946
3.6894
4.08396
4.81698
5.42804
6.25624
6.89327
7.70866
8.38317
9.27419
10.1335
11.0327
11.8646
12.842
14.0892
15.1631
15.7342
16.2776
16.3752
16.6671
17.1202
17.7377
17.6068
17.3245
15.9078
13.1648
9.30142
7.22243
5.6338
5.43146
4.52343
4.93577
4.09296
5.67781
5.60849
11.2808
16.2553
31.3715
-0.0825503
-0.172081
-0.203394
-0.190019
-0.14125
-0.0705477
0.0161112
0.103096
0.20897
0.325192
0.420114
0.538529
0.659647
0.724999
0.82875
0.837413
0.887172
0.748923
0.680085
0.479954
0.18456
-0.576794
-0.653045
-0.948125
-1.02422
-1.2351
-1.35276
-1.55935
-1.68903
-1.9757
-2.02413
-2.41469
-2.72705
-3.00869
-3.3124
-3.53087
-3.76756
-3.88967
-3.97058
-4.01803
-0.282837
-0.31194
-0.299555
-0.260929
-0.191109
-0.108625
-0.0123686
0.0900578
0.197887
0.337541
0.46918
0.544019
0.739348
0.824517
0.939393
0.944663
1.01447
0.901344
0.89901
0.57308
0.214791
-0.513337
-0.662894
-0.938377
-1.02915
-1.24892
-1.3793
-1.59235
-1.75306
-1.99067
-2.18782
-2.38193
-2.69423
-2.92158
-3.26953
-3.49172
-3.70595
-3.85351
-3.96067
-4.01895
-0.480622
-0.474626
-0.426005
-0.37664
-0.274012
-0.172801
-0.0579177
0.0287678
0.127914
0.34576
0.486134
0.607224
0.759128
0.845178
0.960363
0.969794
1.0534
0.942443
0.919848
0.52383
0.106879
-0.72508
-0.965202
-1.2876
-1.39225
-1.62626
-1.77081
-1.97488
-2.12455
-2.30414
-2.43785
-2.60873
-2.85994
-3.02613
-3.32864
-3.49683
-3.7095
-3.86266
-3.97292
-4.04661
-0.717797
-0.693653
-0.655024
-0.51513
-0.391766
-0.248548
-0.194853
-0.021953
0.133634
0.309121
0.472461
0.595749
0.752071
0.834214
0.958595
0.996853
1.06312
0.929212
0.870935
0.45123
-0.0322001
-0.93114
-1.22274
-1.54482
-1.6672
-1.88816
-2.01786
-2.19167
-2.29313
-2.43822
-2.54825
-2.67742
-2.84771
-3.02038
-3.32753
-3.57008
-3.72731
-3.87239
-3.98836
-4.0501
-0.944639
-0.935261
-0.792297
-0.698479
-0.552633
-0.410647
-0.270189
-0.149467
0.0308441
0.207836
0.377392
0.493842
0.634082
0.741996
0.8841
0.935257
0.990109
0.849277
0.780693
0.41754
-0.072093
-1.0119
-1.29277
-1.62733
-1.75289
-1.9501
-2.09478
-2.28659
-2.38039
-2.49001
-2.57325
-2.69225
-2.86861
-3.00977
-3.38885
-3.59951
-3.78449
-3.92232
-4.00316
-4.06448
-1.24692
-1.16869
-1.08701
-0.931322
-0.7323
-0.643092
-0.439786
-0.325871
-0.168341
-0.0245243
0.139955
0.32639
0.518872
0.671918
0.829369
0.916664
1.01912
0.880882
0.813137
0.500291
-0.0325819
-0.942893
-1.24945
-1.55736
-1.69315
-1.88317
-2.01358
-2.14722
-2.22642
-2.39768
-2.47742
-2.64913
-2.75602
-2.93958
-3.43166
-3.61959
-3.78348
-3.91781
-4.00159
-4.05156
-1.47945
-1.46297
-1.39671
-1.2913
-1.04611
-0.969695
-0.811106
-0.80861
-0.640696
-0.396407
-0.128071
0.12531
0.386888
0.59564
0.848505
0.95718
1.02712
0.93267
0.866509
0.588089
0.185786
-0.736524
-0.991963
-1.2841
-1.44503
-1.67
-1.86112
-2.03946
-2.16023
-2.31271
-2.40707
-2.50348
-2.66321
-2.81545
-3.3096
-3.57694
-3.71383
-3.86543
-3.95238
-4.01157
-1.79319
-1.76961
-1.72053
-1.65863
-1.46021
-1.45745
-1.37673
-1.2496
-0.985029
-0.697461
-0.381955
-0.0452278
0.284223
0.571653
0.842655
1.00432
1.13954
1.1308
1.1036
0.903976
0.629774
-0.262844
-0.601874
-0.900538
-1.12304
-1.38984
-1.61576
-1.83805
-2.01764
-2.1455
-2.31626
-2.42815
-2.57083
-2.72063
-3.12791
-3.54015
-3.66718
-3.8176
-3.91168
-3.97175
-2.10836
-2.0934
-2.03881
-2.0155
-1.85662
-1.92509
-1.81162
-1.6067
-1.34188
-0.98256
-0.607886
-0.213338
0.174399
0.550519
0.901172
1.15327
1.35603
1.43697
1.45307
1.32819
1.10282
0.442733
-0.103883
-0.417248
-0.71744
-1.03053
-1.30435
-1.56442
-1.78715
-2.01771
-2.25916
-2.50094
-2.63776
-2.77127
-2.85106
-3.43073
-3.55496
-3.71604
-3.83307
-3.90004
-2.49621
-2.49271
-2.39599
-2.35791
-2.29636
-2.46349
-2.20201
-1.91845
-1.60216
-1.24074
-0.815025
-0.334655
0.126572
0.58003
1.03385
1.39467
1.68405
1.86378
1.93292
1.90023
1.67037
1.20407
0.433899
0.126858
-0.262888
-0.626245
-0.911256
-1.23826
-1.52602
-1.99311
-2.21273
-2.37248
-2.56536
-2.66588
-2.98398
-3.2257
-3.51246
-3.6509
-3.76252
-3.83921
-2.88719
-2.84405
-2.81483
-2.76686
-2.79995
-2.8188
-2.55784
-2.30609
-2.16489
-1.43176
-0.9686
-0.431799
0.123609
0.689717
1.22273
1.70701
2.08298
2.3383
2.44246
2.47163
2.25475
1.89239
1.04671
0.749896
0.279088
-0.093952
-0.472771
-0.80639
-1.43505
-1.7012
-2.04652
-2.3025
-2.64606
-2.81998
-2.75788
-3.18677
-3.34238
-3.56589
-3.71784
-3.79715
-3.29985
-3.25737
-3.24605
-3.26675
-3.32361
-3.18444
-3.01445
-2.61202
-2.25458
-1.87979
-1.27893
-0.424382
0.168398
0.842343
1.51041
2.09207
2.57161
2.90742
3.05153
3.12054
2.91943
2.56984
1.7273
1.401
0.839928
0.461207
0.0615573
-0.676655
-1.03305
-1.45862
-2.06098
-2.24467
-2.22582
-2.35258
-2.71274
-3.07627
-3.35607
-3.44445
-3.58582
-3.68677
-3.75352
-3.71642
-3.75251
-3.84711
-3.80141
-3.64495
-3.20581
-3.11679
-2.52835
-1.99047
-1.36968
-0.858331
0.246885
1.0854
1.8437
2.5622
3.13069
3.54781
3.74884
3.84719
3.67545
3.29163
2.56
2.18203
1.64573
1.22756
0.416309
-0.0442947
-0.535076
-1.24449
-1.2761
-1.70234
-2.01421
-2.23879
-2.32978
-2.71558
-3.31517
-3.47651
-3.63936
-3.72928
-4.21914
-4.22739
-4.31332
-4.35876
-4.28214
-4.11707
-3.67528
-3.23099
-2.83925
-2.28724
-1.55006
-0.819878
0.0772764
1.31478
2.25682
3.06935
3.75121
4.25793
4.52944
4.64635
4.48284
4.02892
3.4324
3.04031
2.51413
1.87152
1.19674
0.579893
-0.110462
-0.283284
-0.901959
-1.39188
-1.79645
-2.15614
-2.40311
-2.60835
-2.95094
-3.39726
-3.3864
-3.56389
-4.73655
-4.74445
-4.80331
-4.85216
-4.76601
-4.59473
-4.14353
-3.65644
-3.04017
-2.3278
-1.71855
-0.902342
0.0162864
1.54849
2.70075
3.61451
4.42341
5.02865
5.38702
5.53709
5.35117
4.91338
4.47989
4.09219
3.53147
2.75182
2.10179
1.58218
1.1456
0.373525
-0.30886
-0.956907
-1.52398
-1.98301
-2.36002
-2.58941
-2.8651
-3.23756
-3.49854
-3.5416
-5.24272
-5.24104
-5.27072
-5.28168
-5.17978
-5.00981
-4.63433
-4.14409
-3.49919
-2.66042
-1.75357
-0.770132
-0.0343373
1.68181
3.04924
4.13078
5.06017
5.83578
6.30902
6.51428
6.36266
6.24459
5.87769
5.37451
4.58988
4.10784
3.61785
2.96266
2.06587
1.19558
0.31546
-0.520329
-1.24191
-1.83698
-2.2823
-2.58142
-2.78811
-3.0459
-3.21029
-3.52277
-5.73403
-5.7413
-5.7652
-5.77495
-5.6343
-5.48502
-5.08208
-4.59622
-3.8954
-3.00826
-1.93618
-0.870453
0.188208
2.15176
3.58581
4.81365
5.89915
6.72798
7.27267
7.64793
7.85188
7.9278
7.64312
7.16643
6.61104
5.95412
5.13421
4.20161
3.19215
2.13419
1.04272
0.015194
-0.909034
-1.66906
-2.26762
-2.68576
-2.98745
-3.15338
-3.59254
-3.56358
-6.10308
-6.11458
-6.12647
-6.10665
-5.88836
-5.83366
-5.40505
-4.84839
-4.11263
-3.26326
-2.33925
-1.31676
-0.0293668
2.30454
4.25306
5.45928
6.60216
7.6225
8.50263
9.16621
9.68979
10.0168
9.62877
9.15911
8.47944
7.64613
6.6901
5.60259
4.43173
3.20132
1.90011
0.63592
-0.493478
-1.41335
-2.1175
-2.64741
-2.99562
-3.07358
-3.03772
-3.28221
-6.47058
-6.35452
-6.34439
-6.26032
-6.15235
-6.06307
-5.6076
-5.04239
-4.30976
-3.45497
-2.47089
-1.13844
0.478723
2.62165
4.77946
6.54465
7.93265
9.04656
10.0818
10.866
11.9465
12.0311
11.757
11.2851
10.5704
9.63781
8.50796
7.28357
5.88211
4.35714
2.77417
1.26499
-0.0850043
-1.17335
-1.98868
-2.47552
-2.91679
-3.18674
-3.19322
-3.35133
-5.60104
-5.62124
-5.65512
-5.5237
-5.41599
-5.21209
-5.06659
-4.72583
-4.03463
-3.06905
-1.92349
-0.4711
1.22961
2.96955
5.30132
7.2142
8.99652
10.5506
11.7917
13.0816
13.8076
14.0426
13.9939
13.6205
12.8769
11.8181
10.482
9.02148
7.4979
5.84455
4.05906
2.32121
0.761065
-0.450843
-1.35294
-1.99397
-2.53407
-2.83841
-3.01372
-3.17008
-6.27058
-6.11398
-6.04589
-5.88247
-5.70315
-5.55965
-5.42429
-5.11639
-4.40077
-3.2513
-1.83101
-0.242856
1.53911
3.54411
5.67945
7.77814
9.91125
11.8307
13.4468
14.9517
15.7424
16.1562
16.1534
15.8397
15.0627
13.7618
12.1715
10.4676
8.73192
6.96722
5.00959
3.06994
1.29384
-0.118071
-1.16027
-1.80641
-2.27915
-2.54718
-2.62268
-2.86621
-6.72877
-6.59031
-6.46511
-6.32101
-6.05062
-6.04256
-5.98494
-5.61605
-4.87173
-3.59513
-2.00286
-0.203857
1.7591
3.91186
6.29329
8.47095
10.6716
13.1385
15.424
16.847
17.5816
17.9755
18.3126
18.2559
17.0857
15.3202
13.4997
11.3447
9.23893
7.32063
5.39004
3.62028
1.96668
0.546683
-0.66072
-1.47837
-2.03937
-2.4077
-2.54712
-2.81173
-7.11778
-6.96657
-6.87534
-6.79191
-6.68448
-6.67048
-6.67516
-6.27234
-5.48712
-4.16812
-2.44837
-0.452001
1.74029
4.11808
6.77099
9.14049
11.6714
14.3616
16.9756
18.6036
19.3962
19.8444
19.9675
19.977
18.986
16.9809
14.5173
12.3562
9.9495
7.73157
5.67151
3.86586
2.20587
0.870734
-0.115128
-0.727505
-1.25724
-1.53821
-1.63663
-1.7934
-7.18472
-7.12835
-7.09062
-7.06002
-7.07905
-7.0895
-7.21797
-6.84981
-6.07283
-4.75279
-2.99385
-0.888718
1.46911
4.04124
6.81914
9.71524
12.5801
15.3721
17.954
19.8528
20.8165
21.5794
21.6708
21.2537
20.3166
18.4163
15.7427
12.9191
10.5851
8.3219
6.23681
4.4185
2.73333
1.34154
0.240777
-0.585612
-1.26768
-1.69908
-1.84233
-2.15652
-7.24058
-7.16782
-7.17478
-7.21322
-7.30341
-7.35223
-7.60457
-7.3687
-6.64871
-5.38509
-3.6445
-1.517
0.908133
3.64162
6.48305
9.72311
12.9241
15.8407
18.4919
20.7363
22.0435
22.9076
23.1161
22.5668
21.2334
19.2861
16.7908
13.6161
10.8709
8.65211
6.58906
4.86217
3.17107
1.82465
0.662368
-0.211617
-0.993712
-1.47355
-1.69871
-1.99621
-6.99682
-6.92147
-6.99496
-7.09487
-7.2353
-7.29233
-7.59606
-7.60903
-7.03012
-5.89999
-4.28188
-2.2404
0.137514
2.81685
5.64526
9.0565
12.5485
15.7109
18.4851
20.8169
22.702
23.6889
24.0685
23.5353
22.1153
20.0641
17.4583
14.4192
11.3811
8.77982
6.93576
5.19536
3.53199
2.205
1.00497
0.0667022
-0.798433
-1.4388
-1.7789
-2.09559
-6.60442
-6.56702
-6.65545
-6.83718
-7.05719
-7.21
-7.49231
-7.67954
-7.24824
-6.29726
-4.86936
-3.02127
-0.851686
1.66454
4.51532
7.86991
11.5711
14.937
17.8904
20.3481
22.6032
24.0851
24.6297
24.0748
22.6964
20.6287
18.0467
15.0766
12.0013
9.45846
7.18673
5.68554
4.12688
2.81538
1.60184
0.684385
-0.21
-0.826727
-1.24528
-1.36842
-6.02395
-6.00818
-6.07062
-6.28266
-6.57549
-6.82558
-7.08086
-7.35879
-7.07523
-6.32491
-5.15299
-3.59075
-1.67688
0.675068
3.49431
6.66432
10.307
13.8201
17.0875
19.4919
21.9346
24.068
24.8954
24.616
23.0892
20.9748
18.4758
15.5782
12.3948
9.83453
7.04955
5.58935
3.53829
2.02577
0.670774
-0.187757
-1.03885
-1.54967
-1.7322
-1.92354
-5.35107
-5.37743
-5.41845
-5.60162
-5.94255
-6.21168
-6.43751
-6.68408
-6.50292
-5.96991
-5.09483
-3.81022
-2.09972
0.0853067
2.7725
5.95707
9.27998
12.7555
16.2409
18.7092
21.296
23.5998
24.2608
24.1864
23.1806
21.3248
18.9793
16.4226
13.4882
10.413
7.95811
6.45189
4.27175
2.83199
1.39314
0.494613
-0.5644
-1.09329
-1.3808
-1.57873
-4.46845
-4.49542
-4.54732
-4.63091
-5.00158
-5.27735
-5.50318
-5.52546
-5.39605
-5.01219
-4.38518
-3.35755
-1.83648
0.213494
2.80179
5.98351
9.745
13.1147
16.2565
18.2604
20.6329
22.865
23.5827
23.3038
22.4509
20.8587
18.8574
16.5307
13.8048
10.9471
8.52433
6.73717
4.65348
3.2787
1.95784
1.13205
0.161376
-0.144553
-0.48246
-0.520822
-3.60485
-3.62187
-3.66936
-3.69612
-3.93149
-4.21718
-4.34978
-4.21784
-3.99405
-3.68474
-3.13778
-2.24893
-0.933894
1.00699
3.56335
6.7943
10.4421
13.4306
16.0181
17.8133
20.0824
22.2906
23.0401
22.8538
21.8169
20.1468
18.5518
16.5072
13.4612
10.6895
8.55559
7.48302
5.12192
3.92826
2.52534
1.85082
0.898105
0.784116
0.435424
0.578901
-2.53309
-2.53241
-2.56272
-2.52913
-2.60511
-2.82048
-2.81111
-2.56068
-2.2072
-1.89936
-1.40514
-0.56998
0.655733
2.40548
4.81142
7.74454
10.7482
13.311
15.7157
17.4841
19.7671
21.6628
22.4209
22.3037
21.3212
19.7344
18.3571
16.2628
12.6776
10.5441
8.54786
7.57508
5.6879
4.36456
3.10201
2.41374
1.48314
1.60124
1.20876
1.59763
-1.62274
-1.61837
-1.57502
-1.54796
-1.42999
-1.4633
-1.32281
-0.967153
-0.549288
-0.0430942
0.44491
1.27024
2.42952
4.06122
6.14581
8.50657
11.0168
13.3315
15.5474
17.2989
18.9739
20.7083
21.5223
21.538
20.6738
19.3404
17.9691
15.7862
11.8529
10.2311
8.44509
7.27129
5.99177
4.76542
3.39102
2.92295
1.86619
2.14534
1.71992
2.46053
-0.549725
-0.487909
-0.456162
-0.295381
-0.176218
0.059745
0.297143
0.769933
1.22836
1.79864
2.42227
3.16541
4.22113
5.66423
7.42827
9.3205
11.4824
13.5393
15.5496
16.8895
18.3655
19.8739
20.6595
20.6942
19.9902
18.8464
17.6094
15.4411
11.2309
9.75469
8.17141
7.24049
5.67431
5.27476
3.60652
3.43183
2.13609
2.74157
1.95618
3.32919
0.246391
0.281851
0.418181
0.569382
0.823203
1.16448
1.60541
2.23117
2.71718
3.35004
4.00625
4.86962
5.75678
6.9613
8.46933
10.1211
12.0156
13.8097
15.4326
16.7078
17.7578
18.9955
19.6923
19.5754
19.157
18.2333
17.1721
15.0749
10.6962
9.10227
7.54182
6.8433
5.48781
4.97044
3.61133
3.73316
2.26751
2.85184
2.10772
4.03176
1.1347
1.31653
1.41645
1.7292
1.86877
2.41471
2.88551
3.64648
4.16761
4.82262
5.36614
6.13465
7.05982
8.18741
9.54938
11.081
12.6595
14.138
15.559
16.6446
17.3244
18.2328
18.9051
18.6891
18.5057
17.7536
16.8307
14.7078
10.272
8.59035
6.93936
6.41556
5.30324
5.02515
3.69111
3.92368
2.50322
3.58841
2.18148
5.43841
1.78862
1.76971
2.00662
2.23472
2.6382
3.07004
3.75314
4.52573
5.07646
5.76933
6.46299
7.31945
8.2879
9.35149
10.4383
11.9969
13.3198
14.5879
15.6886
16.5496
16.843
17.4053
18.0564
18.0286
18.0298
17.4816
16.4654
14.2436
9.8971
8.11765
6.42633
5.90714
4.84444
4.81581
3.54887
3.99796
2.63034
3.90184
2.60677
7.53902
2.27846
2.70047
2.68334
3.21061
3.47023
4.06341
4.63112
5.44368
6.03987
6.84004
7.54989
8.40676
9.18154
10.1552
11.213
12.4779
13.6663
15.0046
15.7626
16.4343
16.543
17.0239
17.703
17.7487
17.7312
17.3291
16.2244
13.7356
9.60946
7.6353
6.07266
5.52071
4.4278
4.7358
3.66462
4.54365
3.49169
5.63982
5.44328
13.1875
2.99167
2.61294
2.88162
3.09013
3.67428
4.32813
5.0618
5.92307
6.60016
7.4307
8.19596
9.05502
9.86555
10.7621
11.6949
12.8272
13.9816
14.9653
15.8016
16.3887
16.4185
16.7861
17.2682
17.5999
17.5356
17.3189
16.054
13.4234
9.51387
7.48592
5.71576
5.34833
4.24967
4.58959
3.57462
4.6399
3.815
7.18899
9.29553
20.7283
0.561737
3.40169
3.2835
3.87544
4.22578
4.91042
5.53997
6.40726
7.0698
7.8917
8.6215
9.48012
10.2917
11.1745
12.0159
13.0783
14.2002
15.057
15.803
16.3737
16.437
16.7847
17.3782
17.7815
17.6534
17.4094
15.8784
13.0697
9.21035
7.02263
5.39451
5.23334
4.34949
4.80448
4.00882
5.58253
5.87323
11.8034
19.2236
37.2444
-0.21439
-0.213722
-0.205976
-0.172358
-0.124521
-0.0478438
0.0294351
0.122722
0.243641
0.30827
0.458744
0.566306
0.662739
0.734142
0.808474
0.820945
0.905393
0.729048
0.729527
0.454506
0.170517
-0.706779
-0.802257
-1.09514
-1.16718
-1.3328
-1.40672
-1.5712
-1.7166
-1.95792
-2.10411
-2.41264
-2.77807
-3.08205
-3.40074
-3.61946
-3.83371
-3.99212
-4.09227
-4.11139
-0.31263
-0.303231
-0.280282
-0.2342
-0.162391
-0.0843204
0.0131678
0.0962434
0.237078
0.323033
0.499697
0.616913
0.763897
0.844195
0.944604
0.972127
1.0395
0.906063
0.897203
0.513573
0.135926
-0.672213
-0.913694
-1.19781
-1.27107
-1.42663
-1.50784
-1.69038
-1.84821
-2.08884
-2.28868
-2.57878
-2.84136
-3.0286
-3.38295
-3.57676
-3.79228
-3.93905
-4.05799
-4.1311
-0.443344
-0.421876
-0.376645
-0.305277
-0.248421
-0.129419
-0.0695843
0.0844641
0.207527
0.367205
0.520913
0.640542
0.772052
0.85344
0.946932
0.982096
1.05386
0.916702
0.874425
0.393506
-0.0542835
-0.969188
-1.27704
-1.61686
-1.70868
-1.88693
-1.95991
-2.12075
-2.2732
-2.36623
-2.56835
-2.75742
-2.97588
-3.21878
-3.50256
-3.60099
-3.82169
-3.95195
-4.06817
-4.11702
-0.642744
-0.604803
-0.566081
-0.460319
-0.357964
-0.233873
-0.119397
0.0172267
0.171025
0.335072
0.494216
0.621088
0.746362
0.823143
0.94676
0.997345
1.02733
0.870127
0.771676
0.254367
-0.278497
-1.19888
-1.56646
-1.90265
-2.00482
-2.1714
-2.24387
-2.46465
-2.52751
-2.66669
-2.68649
-2.82172
-3.00399
-3.21523
-3.50217
-3.67987
-3.88846
-3.9621
-4.08468
-4.13182
-0.862782
-0.824597
-0.690477
-0.648777
-0.50725
-0.3705
-0.234162
-0.104077
0.0645008
0.229402
0.383218
0.480519
0.604938
0.717271
0.874326
0.90419
0.929356
0.761701
0.661834
0.109517
-0.371388
-1.29531
-1.60752
-1.98344
-2.11596
-2.3087
-2.37186
-2.50873
-2.56976
-2.64278
-2.72396
-2.84524
-2.94969
-3.19411
-3.55079
-3.71396
-3.90197
-4.01786
-4.10395
-4.1549
-1.15336
-1.04166