/*--------------------------------*- C++ -*----------------------------------*\
| =========                 |                                                 |
| \\      /  F ield         | OpenFOAM: The Open Source CFD Toolbox           |
|  \\    /   O peration     | Version:  v1806                                 |
|   \\  /    A nd           | Web:      www.OpenFOAM.com                      |
|    \\/     M anipulation  |                                                 |
\*---------------------------------------------------------------------------*/
FoamFile
{
    version     2.0;
    format      ascii;
    class       vectorField;
    location    "0.144";
    object      currentcloudofpoints;
}
// * * * * * * * * * * * * * * * * * * * * * * * * * * * * * * * * * * * * * //


2409
(
(1.65077 1.82885 1.45688)
(0.924712 1.42569 1.48112)
(0.824478 1.6023 1.60632)
(1.37665 1.83229 0.748508)
(1.21957 1.80883 1.29663)
(1.34405 1.03947 0.429429)
(1.43148 0.930265 1.36204)
(0.778668 1.80192 0.63847)
(0.857227 1.77082 0.655948)
(0.618172 1.21518 1.16761)
(1.04709 1.59732 1.5782)
(1.37637 0.894819 1.409)
(0.814736 1.17834 0.932583)
(1.3027 1.12734 0.806744)
(1.26161 0.801213 1.11907)
(1.0258 1.2628 1.87521)
(1.48775 1.19801 1.25342)
(1.43422 1.51786 0.929703)
(1.40734 1.05164 1.01902)
(1.58746 1.32062 1.27932)
(0.486013 1.13018 1.33538)
(0.815831 1.57898 1.16882)
(1.6869 1.37512 1.1606)
(1.16676 1.22892 0.867858)
(0.720905 1.48425 1.52466)
(0.948232 1.07484 1.68648)
(0.619286 0.761928 1.35963)
(0.952778 1.45745 1.15561)
(1.63496 1.69866 1.38313)
(1.38699 1.5455 0.950431)
(0.935398 1.40359 1.28252)
(1.51151 1.36702 1.13432)
(1.38815 0.961557 0.666077)
(0.544833 1.78967 0.695994)
(1.4449 0.839469 0.712674)
(0.899416 1.05887 0.868041)
(1.28183 1.47369 1.06812)
(1.22498 1.24454 0.895685)
(1.26759 1.43628 0.192979)
(0.718534 1.2367 1.10441)
(0.539451 1.72572 0.565129)
(0.51057 1.12963 1.05046)
(0.906983 1.01918 0.485208)
(1.4301 1.48127 0.714571)
(0.813829 1.47667 0.89676)
(0.983092 1.37183 0.282023)
(1.31232 1.38854 0.495082)
(1.75999 1.34418 0.89405)
(1.18119 1.03822 1.50309)
(1.41851 1.74197 1.4372)
(0.562153 1.33187 0.949164)
(1.31189 1.18175 1.10098)
(1.70107 1.54195 1.41767)
(1.4824 1.40245 1.3035)
(1.74151 1.24474 1.17693)
(1.38271 1.3327 1.44317)
(1.34625 1.53388 1.68891)
(1.62101 1.69169 0.45846)
(1.35508 1.92779 1.04328)
(1.27787 1.49133 0.576808)
(1.61411 1.68037 1.41729)
(1.14915 0.931954 0.561138)
(1.08551 0.993328 0.918182)
(0.765303 1.8131 1.05246)
(1.36493 1.19022 1.01016)
(1.3309 0.961317 1.34774)
(1.63288 1.68477 1.2212)
(1.87097 1.00413 1.27741)
(0.67501 1.24039 0.946429)
(1.58653 1.58535 1.34518)
(0.397609 1.14633 1.33701)
(1.50145 1.49861 1.22864)
(0.829738 1.28909 1.04391)
(1.16383 1.77608 0.967813)
(1.10797 1.29427 0.819723)
(1.48479 0.982274 1.19399)
(1.34985 1.52354 1.18204)
(1.42135 1.14204 1.29435)
(0.780589 1.53868 0.72414)
(1.69345 1.0359 1.40659)
(1.38597 1.15392 1.276)
(1.60418 0.952423 1.11412)
(1.38204 1.01078 1.53496)
(0.442902 1.00378 0.81156)
(0.744934 1.44701 1.61852)
(0.943909 1.10113 1.55149)
(1.54139 1.5642 1.63433)
(1.07402 1.06705 1.53993)
(1.07073 1.00221 1.66876)
(0.875281 1.23569 1.13274)
(0.560135 1.05454 1.26184)
(0.471408 0.928509 1.10654)
(0.658376 1.48207 1.20737)
(1.27673 1.41999 1.65046)
(0.855781 1.04933 1.71792)
(0.782448 0.777132 1.38834)
(1.14503 1.72905 1.15519)
(1.12857 1.34905 1.59015)
(0.966647 1.5363 1.77473)
(1.06048 0.771104 1.22443)
(0.945218 0.782419 1.38484)
(1.21006 0.798108 1.26665)
(1.06785 1.40645 1.67196)
(1.48068 1.47118 0.496829)
(0.875763 1.46996 0.775961)
(1.40012 0.946415 1.55745)
(0.942068 1.46114 1.74637)
(1.01882 1.3847 1.77302)
(1.1075 1.29779 1.84524)
(0.678188 0.805786 1.11873)
(1.72286 1.36707 1.17829)
(0.60345 1.72319 0.750078)
(0.951079 1.32403 1.09865)
(1.17072 0.950173 1.04581)
(0.828776 1.53777 1.1775)
(0.702429 1.03239 0.486092)
(1.01193 1.97136 0.948568)
(1.25356 1.24038 0.471028)
(1.05915 0.950016 0.332374)
(1.08882 1.22866 0.211472)
(1.18384 1.31757 1.54865)
(1.13824 1.28125 0.323784)
(1.22114 1.70512 0.495309)
(1.11326 1.77079 1.2592)
(0.975858 0.889382 0.369826)
(0.770633 1.19122 0.49439)
(1.08759 0.810014 0.506009)
(1.13434 1.13721 0.448591)
(0.765462 1.762 0.622083)
(0.616511 1.16127 0.845979)
(0.921539 1.83718 1.0694)
(0.935608 0.843249 0.770899)
(1.1047 1.73899 0.722109)
(1.41334 1.3928 0.57702)
(1.21335 1.09681 0.611201)
(0.916389 1.30963 0.674895)
(0.90863 0.902316 0.687822)
(0.556477 1.02229 1.04156)
(1.20604 0.880336 0.539577)
(1.45576 1.33716 0.407561)
(1.48041 1.33589 0.480239)
(1.44293 1.3818 0.572955)
(1.34076 0.895583 0.40927)
(1.94137 1.30767 1.2519)
(1.19279 1.6647 1.32858)
(1.59116 1.29175 1.40727)
(1.18744 1.67726 1.15151)
(0.737627 1.4234 1.14003)
(0.318232 1.11938 0.807481)
(0.773332 1.03476 0.397722)
(1.27033 1.80745 1.43102)
(1.32455 1.3933 0.865301)
(1.06647 1.78884 0.820542)
(1.39711 1.01424 1.19589)
(1.41466 1.7132 1.37727)
(1.33629 1.44599 1.60602)
(0.856862 0.823151 1.20843)
(1.62258 0.994241 1.2729)
(1.3326 1.83685 0.875403)
(1.34036 1.89671 0.979338)
(1.28286 1.67804 0.854054)
(0.755011 1.33613 0.313106)
(1.41555 1.64226 0.451201)
(0.892918 0.929871 0.706449)
(1.05542 1.37725 0.332194)
(1.26297 0.909711 1.27686)
(1.30297 1.69057 0.564082)
(1.17318 1.88832 0.92367)
(0.972683 1.36307 1.1715)
(1.43754 1.83345 0.618322)
(1.32302 1.53845 0.297805)
(1.33415 0.877521 0.427315)
(1.39191 0.947566 0.412436)
(0.35734 1.02805 0.883413)
(1.31113 1.76964 0.589703)
(1.19058 1.64418 1.07418)
(1.01551 1.60213 0.963496)
(1.64999 1.4058 1.3264)
(0.635892 1.24306 1.27188)
(0.821474 1.55756 1.59887)
(0.855328 1.9089 0.830279)
(0.962513 1.52807 1.32804)
(1.25262 1.684 0.827277)
(1.01911 1.45433 0.357699)
(1.53484 1.32374 1.2287)
(1.78193 1.27677 1.19074)
(0.700078 1.53176 1.24462)
(0.546008 1.01758 1.15249)
(0.68325 1.25547 0.947145)
(1.51187 0.884295 1.24913)
(0.473666 1.44215 0.760456)
(0.569467 1.2414 1.3002)
(1.40347 1.16245 0.957834)
(1.58947 1.05808 1.28706)
(1.36724 1.24378 1.25814)
(1.77111 1.29195 1.07899)
(1.24948 1.45502 1.55062)
(1.44674 1.02816 1.13516)
(1.06896 1.43249 0.760483)
(1.66685 1.34703 1.08755)
(1.73771 1.26313 0.933615)
(1.47594 1.04196 1.32575)
(1.0041 1.49843 0.700808)
(1.31865 1.60805 0.441047)
(1.3304 0.935653 0.393339)
(1.02473 1.42231 1.44952)
(1.38033 1.5582 1.71591)
(1.5444 1.49543 1.35804)
(1.02259 1.60929 1.52637)
(1.16146 1.13069 0.731167)
(1.26177 1.21511 0.448563)
(0.739164 1.80778 0.903544)
(1.20474 1.62506 1.14526)
(1.49233 1.27703 0.688777)
(1.1062 1.59237 0.4488)
(1.28691 1.58153 1.51449)
(0.840304 1.21442 0.380323)
(1.67424 1.47279 1.25566)
(1.51614 1.4163 1.03773)
(1.5837 1.45036 1.479)
(0.915729 1.07285 1.43342)
(0.851077 1.15639 1.27759)
(1.75014 1.12898 1.1883)
(1.27655 1.02317 1.07308)
(1.62485 1.33392 1.01637)
(1.6972 1.23386 0.933528)
(1.37655 1.2416 0.874578)
(1.4686 0.879101 1.09539)
(1.56209 1.02259 1.03498)
(0.723872 1.81678 0.663459)
(1.79048 1.25281 1.19517)
(1.51111 1.02367 1.05932)
(1.5421 0.924346 1.05836)
(1.27147 1.34132 1.3034)
(0.985509 1.46621 1.75155)
(1.67577 1.29584 1.4957)
(1.40132 1.28031 0.883918)
(1.23899 1.5711 0.690715)
(1.28361 1.47466 0.9584)
(1.41614 1.14923 0.726072)
(1.70483 1.68953 1.07599)
(1.74799 1.1808 1.2709)
(1.65255 1.34031 0.874442)
(1.16199 1.74866 1.00042)
(0.606916 0.835391 1.16785)
(0.744632 1.58666 0.686001)
(1.65294 1.49763 1.22862)
(1.25463 1.65149 0.650435)
(1.67778 1.12827 1.21141)
(1.7084 1.33854 1.02716)
(1.63686 0.994819 1.16607)
(0.940586 0.794667 1.43679)
(1.40192 1.21571 1.36197)
(0.99809 1.43484 1.71601)
(0.803366 0.704898 1.42498)
(0.904982 1.47372 1.75149)
(1.48733 1.43386 1.23197)
(0.681257 1.58398 0.596478)
(1.05754 1.2398 1.52513)
(0.820145 1.72252 0.709478)
(1.09336 1.71736 1.58176)
(1.69578 1.13996 1.06373)
(0.932165 1.38254 0.758667)
(1.39959 1.94359 0.9053)
(1.49366 1.18018 1.19713)
(1.3615 1.10664 1.42213)
(1.44995 1.36636 1.26545)
(0.696789 1.23478 1.04874)
(0.697599 1.02269 0.43184)
(0.666405 1.07402 0.327301)
(0.609688 1.68292 0.627124)
(0.87133 0.882409 0.617999)
(0.915112 0.955878 0.48544)
(1.40249 0.838763 1.06671)
(1.26371 0.94302 1.2794)
(0.927425 1.64477 1.48858)
(0.98646 1.14722 0.862708)
(1.16668 1.70548 1.11706)
(1.27964 1.0363 0.558885)
(1.41525 1.25957 0.81765)
(1.30414 1.80396 1.404)
(1.32531 1.80547 1.42659)
(1.69755 1.27021 0.821751)
(1.62525 1.10093 1.02999)
(1.7694 1.32087 1.00367)
(1.15899 1.65665 1.16661)
(1.5132 1.0205 1.11148)
(1.82369 1.17039 1.23223)
(1.64447 1.23424 1.20494)
(1.74396 1.0253 1.00412)
(1.56003 1.08157 1.2926)
(1.50924 1.34948 1.09325)
(0.821346 1.39676 1.43859)
(1.68164 1.12773 1.22235)
(1.4297 1.09224 1.18933)
(1.68284 1.12447 1.32316)
(1.23744 1.76615 1.25811)
(1.23489 1.73571 1.28624)
(1.19456 1.77925 1.39156)
(0.774941 1.04253 0.404684)
(1.53024 1.47824 1.3126)
(1.1292 1.42102 1.03067)
(0.897021 0.966667 0.876623)
(1.66861 1.37171 0.908619)
(1.77751 1.13015 1.04322)
(1.5151 1.24777 1.42102)
(1.74918 1.11801 1.07193)
(1.5027 0.960195 1.26117)
(1.03261 1.35167 1.85089)
(1.53654 1.05656 1.03896)
(1.61735 1.31564 1.21743)
(1.07068 1.71752 0.424908)
(1.45009 0.981964 1.39795)
(0.502097 1.36844 1.2263)
(1.1882 1.48688 1.54375)
(1.02985 1.43714 1.67534)
(1.67135 1.1074 1.03495)
(1.56649 1.21519 1.18954)
(1.49569 1.00146 1.07181)
(0.809854 1.13659 0.282049)
(1.83855 1.15298 0.998118)
(1.59567 1.03671 1.27444)
(1.42618 1.0198 1.01871)
(1.54875 1.1383 1.1736)
(1.51465 1.01617 1.0489)
(1.4723 1.04577 1.15317)
(1.6005 0.926741 1.10497)
(1.76745 1.28546 0.957619)
(1.73485 1.54454 1.30234)
(0.974808 1.64599 0.834062)
(1.31032 1.78057 1.34921)
(1.24775 1.49444 1.24479)
(1.27355 1.70175 1.36214)
(0.997462 1.50214 1.21184)
(0.842849 1.19383 1.023)
(1.20978 1.74601 1.03864)
(1.35506 1.40235 1.14271)
(1.36426 1.52158 0.436712)
(1.28225 1.43881 1.35767)
(1.40122 1.21954 0.563491)
(1.4014 1.0012 1.18831)
(0.725668 1.63056 1.36372)
(0.66488 1.02266 0.39033)
(1.68609 1.39327 1.13623)
(1.63355 1.35062 1.18672)
(1.12584 1.64811 0.871427)
(1.23337 1.48015 1.06747)
(0.695939 1.11297 0.957194)
(0.890992 0.748863 1.43662)
(1.15121 1.888 0.84546)
(0.747087 1.48161 1.03618)
(0.962192 1.46775 1.73634)
(0.853827 1.34452 1.11705)
(1.39393 1.67394 1.33127)
(1.7406 1.01827 1.13711)
(1.1974 1.73319 1.18969)
(1.86598 1.08382 1.03822)
(1.39078 1.52826 1.48619)
(1.18052 1.14674 0.871048)
(1.80792 1.2059 1.19395)
(1.01881 1.35824 1.78603)
(0.975677 1.49736 1.62604)
(1.28072 1.49756 1.38386)
(0.727675 1.64878 1.11855)
(1.88206 1.05687 1.00468)
(1.5939 0.891316 1.05827)
(1.57674 0.859366 1.07486)
(0.760528 1.06768 1.29079)
(1.54938 1.21756 1.22813)
(1.63977 0.983192 1.20744)
(1.75466 1.32279 0.94978)
(1.58701 1.03317 1.35496)
(0.983678 1.77518 0.91838)
(1.82756 1.47706 1.32116)
(1.21516 1.51453 1.47294)
(1.84513 1.25983 1.00282)
(1.58919 0.974467 1.18695)
(1.69099 1.33347 0.924329)
(0.747674 1.30546 0.978698)
(1.57708 0.926899 1.10231)
(1.12711 1.1307 1.69112)
(0.545535 1.59415 1.31088)
(0.634664 1.14679 1.24909)
(0.810603 1.19826 1.26393)
(0.602088 1.69725 1.43276)
(1.41413 1.63907 1.6196)
(0.458895 1.00576 1.33646)
(1.34074 1.49545 0.95669)
(0.697079 1.6351 1.02524)
(1.40691 1.40598 1.39378)
(0.819258 1.13371 1.64801)
(0.786656 1.40394 1.00826)
(0.93006 1.26502 1.76036)
(1.0043 1.1128 1.49666)
(1.38451 1.40059 1.72737)
(0.823702 1.08251 1.21638)
(0.550628 1.54385 1.12046)
(1.20549 1.17305 1.51843)
(0.435785 1.40756 1.29878)
(0.969402 1.43081 1.5109)
(1.20526 1.21438 1.74863)
(1.35041 1.61841 1.62553)
(1.43162 1.49128 1.63374)
(0.817208 1.15116 1.6189)
(1.03539 1.13592 1.81739)
(1.32916 1.19708 1.10712)
(1.38889 0.853723 1.13636)
(0.568932 1.45352 1.20099)
(0.669459 1.46937 1.37667)
(0.933011 1.26964 1.409)
(1.06302 1.15864 1.78815)
(0.898679 1.01118 1.53078)
(1.06599 1.13642 1.45273)
(1.10086 0.916946 1.20759)
(0.973738 1.02095 0.741581)
(1.30572 1.39101 1.15503)
(1.70487 1.51852 1.30416)
(0.585015 0.901026 1.24327)
(0.507572 0.854486 1.37375)
(0.880628 1.31637 1.05917)
(1.20142 1.4589 1.01072)
(0.282572 1.41377 0.840294)
(0.553675 1.51394 1.56371)
(0.884471 1.4486 1.45269)
(0.376442 0.982331 1.189)
(0.333584 1.53123 1.04546)
(0.354017 1.43495 1.1837)
(0.974543 1.42108 1.4638)
(1.08384 1.01599 1.57091)
(1.05158 1.32468 1.27035)
(1.07929 1.04109 1.51853)
(0.832605 0.762092 1.51974)
(0.713488 1.30497 1.04596)
(1.60576 0.941986 1.22185)
(0.717638 1.34456 1.1972)
(1.33171 1.30901 1.3268)
(1.35902 1.42214 1.01251)
(0.947891 1.48089 0.787579)
(0.651266 1.7565 1.4297)
(1.2526 1.48746 1.45186)
(1.39072 1.81807 1.36701)
(0.487561 1.64127 1.44123)
(0.720747 1.63508 0.994047)
(1.1889 1.73182 1.18693)
(0.842622 1.79176 1.49949)
(0.817189 0.953405 1.16921)
(1.44732 1.20939 0.869451)
(0.476507 1.17832 1.29536)
(0.305251 1.10217 1.14622)
(0.400084 1.44771 1.29876)
(1.18344 1.51973 1.66113)
(1.12973 1.42426 1.65144)
(1.40751 0.983475 0.698176)
(0.586702 1.40791 1.11229)
(0.722143 1.47489 1.60516)
(1.6039 1.7134 1.2975)
(1.76686 1.51619 1.12799)
(1.24744 1.59604 1.36986)
(1.28103 1.63652 0.994176)
(1.10802 1.29756 0.629869)
(1.09609 1.23545 1.62083)
(0.890563 0.896241 1.60826)
(1.54779 1.48127 1.34921)
(1.34388 1.37579 1.4128)
(1.31459 1.71387 1.37119)
(1.4453 1.55657 1.66246)
(1.30954 1.46344 1.78069)
(1.12526 1.0949 1.52398)
(1.25053 1.51826 1.79488)
(0.553827 1.07209 1.15336)
(0.927988 0.920649 1.50101)
(0.908255 1.49378 1.71712)
(1.11983 1.15021 1.51937)
(0.80498 1.2936 1.45654)
(0.993912 0.990161 1.52834)
(1.09531 1.17876 1.64606)
(1.00274 0.998516 1.51637)
(0.752322 0.731659 1.22956)
(1.11837 1.19562 1.69574)
(1.38138 1.43109 0.949892)
(1.29183 1.00932 1.32528)
(1.70687 1.45863 1.19033)
(1.3495 1.35826 1.30183)
(1.54855 1.78252 1.53355)
(1.32756 1.44569 1.64103)
(0.978107 1.22321 0.901344)
(1.15306 1.63323 0.939218)
(0.840201 0.727802 1.35515)
(0.367936 1.53273 0.869886)
(1.61197 1.7105 1.38019)
(0.652178 1.11453 1.2659)
(1.07819 0.968379 1.14832)
(1.07912 1.10433 1.60756)
(1.13144 1.00252 1.15706)
(1.2392 1.18633 1.50467)
(1.39902 1.71449 1.45472)
(1.10011 1.40854 1.01089)
(0.540007 1.44486 1.29105)
(0.946459 1.62664 1.36061)
(0.718543 1.68804 1.44566)
(0.789507 1.55375 1.58662)
(1.75298 1.22882 1.35231)
(0.398585 1.33016 0.910134)
(0.491426 1.16272 1.28782)
(1.7255 1.49448 1.04697)
(1.18411 1.71577 1.1549)
(1.85595 1.30388 1.3386)
(1.19069 1.35275 1.3066)
(1.93262 1.29703 1.11698)
(0.959969 0.810159 1.23707)
(0.934113 0.714084 1.34401)
(0.671753 1.31234 1.56524)
(1.0777 1.49608 0.732219)
(1.08221 1.7167 1.50909)
(1.00955 1.09316 0.572804)
(0.872762 1.25876 0.892618)
(1.01653 1.31552 1.44926)
(1.25431 1.41944 1.32821)
(1.84179 1.38949 1.07315)
(1.85449 1.26259 1.04241)
(1.32534 1.36928 0.949112)
(0.87439 1.61116 1.5941)
(0.935862 1.70951 1.59642)
(1.05452 1.71656 1.36608)
(1.7191 1.35227 0.915118)
(1.44627 1.826 1.37595)
(1.00282 1.08844 1.76292)
(1.0123 1.08248 1.74128)
(1.26338 1.61652 0.60655)
(1.03625 1.76289 1.38132)
(1.05422 1.45011 1.81461)
(0.816529 1.10818 1.67253)
(1.02329 1.54739 1.59228)
(1.00135 1.75058 1.30069)
(0.546432 1.41527 1.25971)
(1.10939 1.07642 1.53089)
(0.842083 0.982507 1.36758)
(1.20861 1.86018 1.43295)
(1.21801 1.31902 1.80733)
(1.16491 1.8352 1.10971)
(1.32681 0.975431 1.27021)
(0.501205 1.66241 1.22184)
(0.877947 1.47836 1.54739)
(0.532074 1.52269 1.28163)
(1.6936 1.57829 1.30906)
(1.17357 1.77151 0.341375)
(0.64431 1.25633 1.616)
(0.819381 1.23503 0.973191)
(0.762171 0.838344 1.52208)
(0.64986 1.74448 0.798792)
(1.17564 1.77377 1.06857)
(1.32915 0.904657 0.500448)
(0.775405 1.62912 0.541134)
(1.07522 1.33393 1.17931)
(1.14011 1.69551 0.900122)
(1.39278 1.9016 1.05819)
(1.2407 1.10131 0.552992)
(1.03232 1.07113 0.889767)
(1.25488 1.60954 0.991521)
(1.41456 1.72723 0.981092)
(1.2934 1.61932 0.54792)
(1.29597 1.96315 0.979288)
(0.636397 1.68639 0.799948)
(0.917633 1.19911 0.409279)
(1.2505 1.66857 0.853204)
(1.03668 1.38534 0.259419)
(1.10325 0.988819 0.578486)
(1.29023 0.975914 0.621265)
(1.03166 1.65614 0.482681)
(1.01269 1.76061 0.705323)
(0.750523 1.48336 0.463558)
(0.804979 1.6378 0.577451)
(1.10623 0.977864 0.624108)
(1.44311 1.52849 0.893708)
(1.20771 1.44865 0.584928)
(0.747875 1.27168 0.309094)
(1.47426 1.14786 1.53299)
(1.16399 1.75327 0.230197)
(1.31191 1.83658 0.641211)
(0.833583 1.47478 0.211813)
(1.35099 1.50656 0.551037)
(1.33491 1.65141 0.901892)
(1.04223 1.36457 0.317483)
(1.07056 1.5885 0.338356)
(1.48388 1.20426 0.365331)
(0.626895 1.7235 0.995758)
(0.994137 1.12566 0.574939)
(0.879288 1.01554 0.986117)
(0.767268 1.24332 0.250823)
(1.1661 1.04718 0.595902)
(1.12875 1.25203 1.64653)
(1.42994 1.43357 1.09207)
(0.869277 1.05501 0.287373)
(1.05321 1.26824 0.488923)
(0.790084 1.41809 0.252511)
(1.33591 1.06508 0.441075)
(1.19729 0.848427 0.614381)
(1.478 1.62433 0.423845)
(0.897227 1.2132 0.919195)
(1.38947 1.23153 0.544168)
(1.04908 1.54959 0.191774)
(1.16503 1.59924 0.41685)
(0.779277 1.88981 0.754565)
(1.60027 1.58544 0.3963)
(1.612 1.54344 0.405305)
(1.34199 1.80511 0.653262)
(1.03023 1.47613 0.230391)
(1.15404 1.36768 0.260749)
(1.33253 0.904242 0.746606)
(1.33843 1.01639 0.58052)
(1.27127 1.47377 0.658428)
(1.54713 1.69011 1.05349)
(1.57496 1.71019 0.954524)
(1.14866 1.75244 0.859053)
(1.53294 1.81435 0.622875)
(0.74846 1.16828 0.980489)
(0.6442 1.36436 0.787682)
(1.63192 1.74128 0.554089)
(1.26233 1.6804 0.739253)
(0.908692 1.7594 0.951987)
(1.03554 1.35742 1.13082)
(1.19396 1.52827 0.984469)
(1.0047 0.751954 0.495909)
(0.927567 0.969474 0.274398)
(1.31215 1.78618 0.490184)
(1.34082 1.84346 0.590897)
(1.17754 1.46807 0.25947)
(0.542742 1.53411 0.796341)
(1.19887 1.0634 0.286467)
(0.871779 1.08618 0.731842)
(1.05934 1.53175 1.74144)
(0.812595 1.51473 0.996236)
(0.805415 1.66312 0.694938)
(1.29884 1.27211 0.211787)
(1.02 1.16244 0.173886)
(0.492265 1.72999 0.879707)
(1.5748 1.70716 0.961131)
(1.14163 1.94827 0.968148)
(0.966814 1.39379 0.874825)
(1.2426 1.65193 0.812638)
(0.746355 1.95467 0.696042)
(0.744302 1.90676 0.502538)
(1.50685 1.84555 1.00923)
(0.922816 1.84033 0.492939)
(1.24592 1.3693 0.55216)
(1.86041 1.1065 1.31109)
(0.776505 1.39595 1.26356)
(0.486893 1.76222 0.704672)
(0.84931 1.54206 0.297083)
(1.48083 1.56365 0.335623)
(1.3211 1.36771 0.362307)
(1.42872 1.21796 1.00826)
(0.774525 1.04609 0.312517)
(0.678242 1.17131 0.375437)
(0.930245 1.90321 0.837724)
(1.28206 1.48442 0.944844)
(1.23217 1.6818 0.594256)
(1.56923 1.55191 0.603507)
(1.02572 1.81055 0.838659)
(1.41293 1.70838 0.849235)
(1.31988 1.50592 0.329153)
(1.19681 1.62635 0.933652)
(0.694266 1.17001 0.319991)
(1.26272 1.64963 0.648121)
(1.40177 1.74137 0.442931)
(1.02585 1.9625 0.783941)
(1.14543 1.72882 0.907939)
(0.79157 1.18418 1.00636)
(1.14222 1.48782 0.210941)
(1.03319 1.55063 0.300793)
(0.824832 1.7194 0.43973)
(1.22303 1.49622 0.215904)
(1.31104 1.62721 0.475001)
(1.19616 0.966724 0.416727)
(0.980053 1.35145 1.14906)
(0.884525 0.844937 0.75553)
(0.551495 1.68578 0.664122)
(0.580221 1.60405 0.539382)
(0.946959 1.54901 0.543286)
(0.760239 1.46374 1.39718)
(1.21453 1.26958 0.680805)
(0.958296 1.63869 1.61067)
(1.40869 1.07135 0.851442)
(1.1843 1.08916 0.827486)
(0.72063 1.59053 1.33179)
(1.13715 1.70791 1.67448)
(0.884092 1.78154 0.980551)
(1.02861 1.27979 0.235186)
(1.82633 1.48895 0.68356)
(1.2556 1.59603 1.27513)
(0.928912 1.69013 0.310284)
(0.856394 0.834201 0.427262)
(1.20967 1.07755 0.75229)
(1.09794 0.840376 1.09845)
(0.581721 1.39937 0.934058)
(1.25858 1.45546 0.715694)
(1.54272 1.36729 1.15139)
(1.33391 1.46557 0.310379)
(1.61833 1.15296 1.3742)
(1.30814 1.37847 0.682237)
(0.627023 1.85243 0.840733)
(1.44021 1.19576 0.941312)
(1.08311 1.19292 0.991067)
(0.757445 1.6902 0.652126)
(1.18356 1.75369 0.851599)
(1.58679 1.5633 0.410674)
(1.28598 1.79172 0.554584)
(1.16737 1.71452 0.96191)
(0.889413 0.942704 0.663673)
(0.82392 1.0137 0.706623)
(1.31335 1.14413 0.680338)
(1.40644 1.27748 0.654567)
(0.952688 1.8836 0.841527)
(0.996347 1.62409 1.15519)
(1.60711 1.75918 0.625124)
(1.19146 1.46399 1.29004)
(1.62509 0.942472 0.917889)
(0.73207 1.33945 0.883796)
(1.11178 1.86718 0.993949)
(0.77871 1.07742 0.217422)
(0.704603 1.67955 1.36913)
(1.49486 0.970519 0.922288)
(1.20053 1.55665 1.44053)
(1.30165 1.63019 0.954029)
(1.36398 1.51473 0.50642)
(0.615965 1.4565 1.00205)
(0.748562 1.39687 0.996415)
(1.25345 1.1743 0.962064)
(1.67947 1.08361 0.928343)
(1.48925 0.967015 0.704944)
(0.922678 0.949847 0.519245)
(0.695553 1.87641 1.01256)
(0.930841 0.929446 0.771906)
(1.38837 1.14862 1.32973)
(0.648821 1.35109 0.933829)
(1.57838 0.930098 0.927007)
(0.855282 0.975484 0.639091)
(1.40417 1.91227 0.822564)
(1.09995 1.25574 0.991091)
(1.11415 0.962551 1.07086)
(1.21056 1.1101 0.800574)
(1.39005 1.15585 0.488481)
(1.1923 1.59034 1.44877)
(0.995176 0.835559 0.843721)
(0.817555 1.83669 0.636657)
(1.80685 1.36513 0.874367)
(1.05479 0.91018 0.873612)
(1.34741 0.922512 0.681808)
(1.34787 1.46303 0.59487)
(1.68865 1.53405 1.34983)
(1.08795 1.47849 0.634056)
(0.892988 1.07457 0.446365)
(0.648676 1.57123 0.619812)
(1.26292 1.66346 0.922243)
(1.24238 1.55091 0.972322)
(1.36608 1.65679 0.548933)
(1.40865 1.67732 0.933028)
(1.65204 1.59197 0.498742)
(1.73432 1.53257 0.62025)
(1.51353 1.73704 0.735285)
(1.70599 1.35091 0.674492)
(1.76261 1.41324 0.722621)
(1.67412 1.58785 0.745418)
(1.81209 1.42412 0.852834)
(1.79255 1.26509 0.839118)
(1.54844 0.929456 0.850381)
(1.1571 1.38492 1.2541)
(1.30016 1.83139 1.36606)
(1.09027 1.68711 0.557181)
(1.23272 1.6824 1.35351)
(1.87192 1.24143 1.01882)
(0.896103 0.881218 0.580886)
(1.29128 1.77068 0.699782)
(0.937423 0.836945 0.777282)
(0.702553 1.05687 1.09357)
(1.65665 1.31053 0.926578)
(1.08802 1.68998 0.655574)
(1.01574 1.24959 0.776395)
(1.63143 1.28457 1.01004)
(1.27195 1.02583 0.439356)
(0.985997 1.22811 1.42312)
(1.16007 1.4023 0.792718)
(1.29322 0.998549 1.23573)
(1.24519 1.50706 0.700639)
(1.18178 1.58163 1.57192)
(1.00469 1.49603 0.703619)
(0.99737 1.1835 0.393819)
(1.33339 1.208 0.313212)
(0.771115 1.11921 0.515452)
(1.31779 1.81513 0.854476)
(1.35127 1.5295 0.591991)
(1.189 1.60219 0.953085)
(1.70998 1.59026 0.567382)
(1.17723 1.88615 0.914763)
(1.31785 1.4725 0.625594)
(1.26066 1.62337 1.30859)
(1.48499 1.58063 1.2483)
(1.29628 1.7463 1.52235)
(1.11654 1.80833 0.999162)
(0.863572 1.34754 0.671586)
(0.887438 1.34843 1.07532)
(0.775962 1.56956 0.56734)
(1.23392 1.36616 1.25005)
(0.853655 0.944752 0.620324)
(1.27373 1.04433 0.73943)
(0.945223 0.997643 0.461886)
(1.17321 1.09899 0.659891)
(0.930676 1.07014 0.445481)
(1.31365 1.72212 0.619205)
(1.27453 1.55009 1.11681)
(1.80254 1.54602 0.69545)
(1.31474 1.74982 0.606674)
(1.38119 1.80183 0.624623)
(1.21456 1.88231 0.717165)
(1.12887 1.59067 1.22366)
(1.33044 1.57983 1.44678)
(1.38782 1.80984 0.635537)
(1.51765 1.78088 0.969999)
(1.46714 0.912759 0.646943)
(1.3128 0.883932 0.43426)
(1.21558 1.06694 0.806721)
(1.39084 0.96555 0.61288)
(0.790608 1.65895 0.516101)
(1.80254 1.30404 0.733625)
(1.24685 1.26619 1.09862)
(1.26191 1.70114 0.590986)
(1.46987 1.23955 1.03682)
(0.714072 1.21648 0.909479)
(0.616711 1.43353 1.3667)
(1.25858 1.6581 0.996107)
(1.27853 1.68965 0.550372)
(1.15455 1.84546 0.862299)
(1.31897 1.27868 1.1071)
(1.6689 1.42794 0.705538)
(1.56655 1.78545 0.898543)
(1.31909 1.68192 0.784434)
(0.422157 1.18673 1.24968)
(1.3103 1.70331 0.603023)
(0.823286 1.88309 1.05193)
(1.17191 1.15011 0.585492)
(1.39439 1.28983 0.528155)
(1.45943 0.959068 0.588218)
(1.15099 1.4299 1.09145)
(1.45044 1.33735 0.534725)
(1.38845 1.39218 0.606972)
(0.886479 1.8222 1.0054)
(0.434372 0.999207 0.852673)
(1.1682 1.10215 0.872319)
(0.80815 1.1198 0.918633)
(1.36732 1.66218 0.415359)
(1.16243 1.34602 1.0661)
(1.67249 1.44651 1.26253)
(1.15398 1.25982 0.911805)
(1.27228 1.66232 0.728702)
(0.812543 1.14346 0.999966)
(1.44681 1.37591 0.788544)
(1.51819 0.981867 0.934817)
(1.25547 1.90189 0.846728)
(1.50429 1.05263 0.678467)
(0.713373 1.33697 1.15807)
(0.386956 1.07384 0.967106)
(1.53184 1.5195 0.427206)
(1.06106 1.02921 0.735498)
(0.88123 0.917119 0.850563)
(0.80453 1.6446 1.39822)
(0.870314 1.44941 0.653531)
(1.57725 0.953486 0.892423)
(1.51055 0.916402 0.693015)
(1.30163 1.59801 0.625909)
(0.953573 1.896 0.639729)
(1.14435 1.55723 0.682021)
(0.876905 1.35273 0.679342)
(0.912502 1.33742 0.897262)
(0.818342 1.16137 1.01299)
(0.629935 1.21699 0.971341)
(1.45727 1.02374 0.955224)
(0.88581 1.23452 0.819355)
(0.917149 1.40844 0.689272)
(1.37167 0.896732 0.657934)
(1.00173 1.59309 1.13648)
(0.997378 1.07528 0.662348)
(0.988863 1.18069 0.977898)
(1.85554 1.44492 1.09654)
(1.43039 1.7217 1.66671)
(1.73233 1.39335 1.17361)
(1.59955 1.51177 1.43517)
(1.70595 1.45508 1.40637)
(1.52021 1.60949 1.40278)
(1.24795 1.74556 1.31945)
(1.2964 1.41912 1.34663)
(1.32662 1.33856 1.17488)
(1.50922 1.20157 1.59939)
(0.598749 1.16614 1.31739)
(0.884674 1.0893 0.559327)
(0.661731 1.08197 0.822871)
(1.09296 1.68425 0.614754)
(1.38873 1.71904 1.58898)
(1.42749 1.07802 1.10047)
(1.22081 0.995918 1.59313)
(0.696053 1.70789 1.08945)
(0.586067 1.59323 0.98502)
(0.941383 1.12838 1.70706)
(1.16038 1.50019 1.48602)
(0.307725 0.960627 1.1394)
(1.21611 1.37228 1.47565)
(1.47754 1.6015 1.49318)
(1.31425 1.03538 1.50077)
(1.10151 1.748 1.58953)
(0.774455 1.8531 1.24492)
(0.960758 1.54916 1.74484)
(1.92637 1.14668 1.2416)
(1.13886 1.63346 1.74781)
(0.503563 1.60763 1.43463)
(1.53087 1.15885 1.23285)
(1.26314 1.15586 1.08166)
(1.61534 1.5749 1.33902)
(1.61518 1.16011 1.38311)
(1.23745 1.08302 1.46357)
(1.40073 1.47342 1.45394)
(1.65577 1.65136 1.42794)
(1.18832 1.03211 1.58292)
(0.809038 0.815581 1.3804)
(1.67812 1.43033 1.30669)
(1.53313 1.2871 0.885589)
(0.802569 1.33313 1.73134)
(1.58909 1.54991 1.20588)
(1.70019 1.37277 1.25794)
(1.56623 1.49655 1.09652)
(1.34629 1.79059 0.649818)
(1.78006 1.01857 1.11677)
(0.91738 1.02063 0.625526)
(1.30552 1.28618 1.38742)
(0.855019 1.59348 1.08421)
(1.53151 1.62077 1.42643)
(1.01367 1.46373 1.10906)
(1.03759 1.72039 0.750217)
(1.86978 1.32329 1.32676)
(1.47852 1.40467 1.46615)
(1.46131 1.48939 1.39936)
(1.76837 1.49779 1.26452)
(1.2542 0.958549 1.4424)
(0.772829 1.66842 1.36563)
(1.33018 1.26327 1.23454)
(1.33471 1.36176 0.989771)
(1.28794 1.2839 1.08544)
(1.4898 1.34004 1.34422)
(1.21052 1.31797 0.779478)
(1.19511 0.995925 1.36782)
(1.61778 1.41318 1.28561)
(1.29813 1.08327 1.0632)
(0.944536 1.11321 1.46806)
(0.90038 1.45864 0.74207)
(1.61899 1.4539 0.676674)
(1.73455 1.02382 1.30325)
(1.31304 0.931553 1.02007)
(1.82538 1.16833 1.22732)
(1.44835 1.53529 1.10939)
(1.0923 1.17608 0.896959)
(1.52304 1.13376 0.965972)
(1.53325 0.961001 1.17912)
(1.20674 0.865302 1.39623)
(1.61063 0.975536 1.03692)
(1.41452 1.16796 0.948384)
(1.30546 1.83695 0.72486)
(1.65557 1.33472 1.44391)
(1.52977 1.47298 1.48579)
(1.33344 1.20374 0.920391)
(1.57607 0.996784 1)
(1.44912 1.01489 1.11604)
(1.1488 1.12318 1.01017)
(1.51358 1.08948 1.09943)
(1.02282 1.40715 0.464787)
(1.46736 0.910603 1.06036)
(1.23267 0.980675 0.974038)
(1.78436 1.16727 1.00837)
(1.46298 1.36869 0.668606)
(1.35461 1.23154 0.923412)
(1.60033 1.22346 1.22943)
(0.752957 1.57726 1.10067)
(1.12406 1.71003 1.04132)
(1.50172 1.38274 0.534084)
(1.48788 0.87084 0.633084)
(1.37104 1.56516 0.382476)
(1.8164 1.11215 1.00935)
(1.49477 1.19753 1.26272)
(1.54093 1.32871 0.977894)
(1.02311 0.924301 1.51539)
(1.44243 1.00325 1.45776)
(1.75647 1.03604 1.10072)
(1.31386 0.871473 1.06534)
(1.43057 1.68153 1.03389)
(1.36487 1.38828 0.644572)
(1.00899 1.17989 1.04747)
(1.83438 1.07329 1.10006)
(1.81354 1.50233 1.24732)
(1.60604 1.52966 0.891579)
(1.5714 1.29921 1.65937)
(1.51284 1.24151 1.14207)
(1.3071 1.62138 1.37691)
(1.60448 1.44007 1.09325)
(1.45633 0.944585 1.39252)
(1.41766 0.881036 1.40622)
(1.53152 1.27453 1.1527)
(0.720422 1.92397 0.890809)
(1.51283 1.02098 0.986268)
(1.44161 0.89816 1.04437)
(0.987118 1.31005 1.29935)
(1.55136 1.33373 1.2317)
(1.70926 1.51081 1.07404)
(1.50313 1.5355 1.62238)
(0.648882 1.22793 0.935896)
(1.18622 1.92708 0.832474)
(1.79418 1.49347 1.08523)
(1.14553 1.10241 1.03587)
(1.13977 1.38369 1.60327)
(1.59939 0.947493 1.08792)
(1.60975 0.950745 1.12767)
(0.98793 1.46893 1.28751)
(1.52774 0.85833 1.12443)
(1.28499 1.18342 0.943691)
(1.31535 1.0786 0.981449)
(1.68322 0.935118 1.15124)
(1.59919 0.962924 1.10558)
(0.678436 1.2168 0.297914)
(1.61941 0.944352 1.15618)
(0.629581 1.10665 0.336136)
(0.707434 1.1142 1.06119)
(1.38282 0.992785 0.97311)
(1.55744 1.02994 1.24231)
(0.686992 1.15806 1.08851)
(1.3118 0.84422 0.845765)
(1.26075 1.43142 0.59635)
(1.86945 1.11624 1.20971)
(1.73115 1.22386 1.13951)
(0.931629 1.06689 1.05632)
(1.55725 1.06755 1.20315)
(1.52036 1.27723 0.407443)
(0.494066 1.08238 1.25338)
(0.874643 1.81105 1.09549)
(0.864339 1.342 1.20629)
(0.758504 1.84502 1.04362)
(0.730771 1.05215 0.380588)
(0.889536 0.936436 0.996605)
(1.03333 1.80303 0.543219)
(1.3904 1.03636 1.28748)
(1.23181 1.41445 0.14739)
(0.553727 1.40552 1.06442)
(1.56135 1.3797 0.698621)
(1.41629 1.16437 0.415903)
(1.38079 1.4277 1.06663)
(1.32112 0.810468 0.763719)
(1.42676 1.68849 0.919758)
(1.39606 1.63679 0.890036)
(1.01735 1.40152 1.40983)
(1.20578 0.917775 0.411034)
(1.69686 1.40965 0.618893)
(1.15123 1.74776 0.472538)
(0.650626 1.58785 0.4836)
(0.716648 1.81063 1.00513)
(1.31311 1.54632 0.920784)
(1.11022 0.868971 1.0348)
(0.942256 1.02984 0.610085)
(0.752197 1.10515 1.08382)
(1.61546 1.36818 0.738311)
(1.31952 1.52612 0.809335)
(0.684076 1.03821 0.324407)
(0.869311 0.908829 0.622419)
(1.71942 1.15826 1.19581)
(1.09806 0.951489 0.736779)
(0.773336 1.40988 1.01026)
(0.957236 0.833772 0.979108)
(1.58524 1.06016 0.942582)
(1.4113 1.04638 0.425025)
(1.6409 1.24718 0.955959)
(0.66662 1.19328 0.932229)
(1.02178 1.46395 1.27453)
(1.54947 1.13525 0.95697)
(1.50728 0.952812 1.05975)
(1.36926 0.974189 0.438064)
(1.31122 1.24672 0.883886)
(1.05274 0.928276 0.707409)
(1.76088 1.25156 1.23114)
(1.72659 1.30833 1.13365)
(1.49978 1.3619 0.501679)
(1.01355 0.95546 0.956223)
(1.04866 1.34789 1.5184)
(1.52404 0.942908 1.11372)
(1.5599 1.20263 1.15798)
(1.6067 1.13451 1.12068)
(1.38238 1.0515 0.354543)
(1.79843 1.17305 1.2927)
(1.10243 1.75652 0.329149)
(1.14475 1.47763 0.547426)
(1.45859 1.89914 0.81584)
(1.2393 1.5129 0.338019)
(1.60643 1.36791 0.732014)
(1.37977 1.27621 0.46191)
(0.934851 0.857498 0.952764)