/*--------------------------------*- C++ -*----------------------------------*\
| =========                 |                                                 |
| \\      /  F ield         | OpenFOAM: The Open Source CFD Toolbox           |
|  \\    /   O peration     | Version:  v1806                                 |
|   \\  /    A nd           | Web:      www.OpenFOAM.com                      |
|    \\/     M anipulation  |                                                 |
\*---------------------------------------------------------------------------*/
FoamFile
{
    version     2.0;
    format      ascii;
    class       surfaceScalarField;
    location    "0.001";
    object      phi;
}
// * * * * * * * * * * * * * * * * * * * * * * * * * * * * * * * * * * * * * //

dimensions      [0 3 -1 0 0 0 0];
oriented        oriented;


internalField   nonuniform List<scalar> 
187200
(
8.63304e-06
-7.26488e-06
-1.36718e-06
3.09069e-05
-1.52906e-05
-6.98326e-06
5.37999e-05
-1.52718e-05
-7.62126e-06
7.25237e-05
-1.21171e-05
-6.60665e-06
8.64816e-05
-8.25919e-06
-5.69869e-06
9.70682e-05
-4.71424e-06
-5.87237e-06
0.00010573
-1.68472e-06
-6.97673e-06
0.000112218
1.75595e-06
-8.24418e-06
0.000115071
6.25313e-06
-9.10665e-06
0.000112248
1.17964e-05
-8.97322e-06
0.000101461
1.82859e-05
-7.49913e-06
8.04923e-05
2.54534e-05
-4.48427e-06
4.68522e-05
3.30381e-05
6.02018e-07
-5.75753e-07
4.10514e-05
6.37647e-06
-6.19868e-05
4.9564e-05
1.1847e-05
-0.000136612
6.01036e-05
1.45214e-05
-0.000221458
7.33967e-05
1.14491e-05
-0.0003137
9.05957e-05
1.64632e-06
-0.000406361
0.000113167
-2.05054e-05
-0.000494431
0.000141545
-5.3475e-05
-0.000571275
0.000175063
-9.82182e-05
-0.000629755
0.00021289
-0.00015441
-0.000662706
0.000253529
-0.000220577
-0.000663693
0.000294701
-0.000293714
-0.000627781
0.000333291
-0.000369203
-0.000553419
0.000365708
-0.00044007
-0.000443696
0.00038827
-0.000497994
-0.000307629
0.000397614
-0.00053368
-0.000160191
0.000391064
-0.000538502
-2.19546e-05
0.000368216
-0.000506453
8.74538e-05
0.00032931
-0.000438719
0.000154033
0.000276565
-0.000343144
0.000174774
0.000218309
-0.000239049
0.000159491
0.000161638
-0.000146356
0.000125836
0.000112674
-7.90192e-05
8.90236e-05
7.58452e-05
-3.90325e-05
5.7111e-05
5.16516e-05
-1.9739e-05
3.17223e-05
3.76735e-05
-1.22848e-05
1.09429e-05
2.88195e-05
-8.04007e-06
1.43449e-05
-3.40196e-06
1.65762e-05
-2.04708e-05
-3.37034e-06
5.27467e-05
-3.4347e-05
-1.71141e-05
8.97142e-05
-3.02561e-05
-2.19831e-05
0.000118579
-1.7668e-05
-2.33142e-05
0.000137689
-2.36303e-06
-2.50062e-05
0.000148741
1.33575e-05
-2.91235e-05
0.000152738
2.98891e-05
-3.55706e-05
0.000148359
4.93568e-05
-4.32222e-05
0.00013218
7.32056e-05
-5.0773e-05
9.96875e-05
0.000102237
-5.79486e-05
4.62965e-05
0.000137019
-6.53418e-05
-3.15267e-05
0.000177504
-7.42278e-05
-0.00013602
0.000223629
-8.60974e-05
-0.000267163
0.000275059
-0.000102865
-0.000422443
0.000332163
-0.000127319
-0.000595328
0.00039553
-0.000162542
-0.000776867
0.000466043
-0.000211108
-0.00095624
0.000543892
-0.000273923
-0.00112123
0.000628146
-0.000349991
-0.00126041
0.000717869
-0.000437144
-0.00136341
0.000810277
-0.000532213
-0.0014213
0.000901799
-0.000631019
-0.00142747
0.000988244
-0.000728541
-0.00137842
0.00106401
-0.000818364
-0.00127304
0.00112353
-0.000895611
-0.00111482
0.00116049
-0.000953006
-0.000912309
0.00116944
-0.000983682
-0.000679816
0.00114596
-0.000980835
-0.00043725
0.00108798
-0.000939482
-0.000207158
0.000996594
-0.000858469
-1.49934e-05
0.000878071
-0.000740926
0.000119648
0.000741458
-0.000599535
0.000189304
0.000598922
-0.000450269
0.000204335
0.000462836
-0.000316228
0.000181854
0.000346082
-0.000210927
0.000142791
0.000254702
-0.000139794
0.00010184
0.000189685
-9.70815e-05
6.45655e-05
0.000146204
-7.12565e-05
2.91237e-05
0.000112329
-4.80681e-05
6.35023e-05
-2.00337e-05
1.91558e-05
-3.11702e-05
-8.45629e-06
6.13221e-05
-4.60773e-05
-3.0436e-05
0.000102328
-3.24877e-05
-3.8774e-05
0.000130745
-4.4474e-06
-4.1638e-05
0.000144684
2.95456e-05
-4.58475e-05
0.00014608
6.68647e-05
-5.49035e-05
0.000134993
0.000109225
-6.82492e-05
0.000108889
0.000159439
-8.39782e-05
6.29326e-05
0.00021956
-0.000100397
-7.80671e-06
0.000290317
-0.00011734
-0.000106807
0.000371028
-0.000135009
-0.000235478
0.000460526
-0.000154351
-0.000391788
0.00055704
-0.0001771
-0.000570337
0.000658933
-0.000205325
-0.000762766
0.000765227
-0.000240635
-0.000958723
0.000875205
-0.000283718
-0.00114706
0.000988407
-0.000334024
-0.0013171
0.0011038
-0.000389864
-0.00145956
0.00121935
-0.000448747
-0.0015667
0.00133258
-0.000507567
-0.00163288
0.00143977
-0.000563324
-0.00165418
0.00153641
-0.00061331
-0.00162911
0.00161783
-0.000654655
-0.00155722
0.00167875
-0.000686628
-0.0014408
0.00171249
-0.000705392
-0.00128472
0.00171399
-0.000709575
-0.00109668
0.00167904
-0.000697632
-0.000887419
0.00160539
-0.000668701
-0.000670379
0.00149392
-0.000622981
-0.000460774
0.00134907
-0.000562081
-0.000274822
0.00118146
-0.000489343
-0.00012346
0.000999264
-0.000409168
-1.59517e-05
0.000820613
-0.0003292
4.73476e-05
0.000655934
-0.000256398
7.45775e-05
0.000514847
-0.000195995
7.87567e-05
0.000402905
-0.000152382
7.03274e-05
0.000319935
-0.000121821
5.42583e-05
0.000259561
-9.72881e-05
2.8815e-05
0.000204281
-6.65087e-05
0.000116871
-2.45534e-05
2.06921e-05
-3.41721e-05
-1.76902e-05
6.65585e-05
-4.23221e-05
-4.96216e-05
0.00010786
-1.30568e-05
-6.07327e-05
0.000130774
3.65706e-05
-6.3932e-05
0.000134586
9.6523e-05
-7.07893e-05
0.000121941
0.000164741
-8.52311e-05
9.29716e-05
0.000243505
-0.000105311
4.46118e-05
0.000335011
-0.000127212
-2.75036e-05
0.000439641
-0.000147966
-0.000125859
0.000555188
-0.000166516
-0.000250494
0.000678894
-0.000183231
-0.000397728
0.000806862
-0.000199102
-0.000561481
0.000935984
-0.000215191
-0.000734072
0.00106371
-0.000232188
-0.000907086
0.00118841
-0.000250169
-0.00107229
0.00130902
-0.00026861
-0.00122229
0.00142495
-0.000286535
-0.0013508
0.00153506
-0.000302753
-0.00145279
0.00163714
-0.000315802
-0.00152467
0.00172894
-0.00032447
-0.00156441
0.00180778
-0.000328262
-0.00157195
0.0018704
-0.000326447
-0.00154698
0.00191159
-0.000318743
-0.00148988
0.00192749
-0.000305835
-0.00140346
0.00191524
-0.000289163
-0.00129151
0.00187251
-0.000270478
-0.00115859
0.00179736
-0.000251237
-0.00101032
0.00169019
-0.000233069
-0.000853092
0.00155421
-0.000217512
-0.000693967
0.00139512
-0.000205171
-0.000538286
0.00122147
-0.000195689
-0.000393909
0.00104328
-0.000188396
-0.000266514
0.000873936
-0.000180717
-0.000161691
0.00072159
-0.000170478
-8.27227e-05
0.000592963
-0.000157084
-2.75341e-05
0.000490649
-0.000142933
7.97356e-06
0.000412675
-0.000128247
2.51321e-05
0.000350626
-0.000108224
2.08865e-05
0.000282497
-7.39699e-05
0.000161907
-2.41498e-05
2.30737e-05
-2.4092e-05
-3.31538e-05
7.36531e-05
-1.48303e-05
-7.80713e-05
0.000115462
3.61521e-05
-9.10174e-05
0.000132635
0.000111833
-9.2436e-05
0.000126641
0.000202395
-9.98779e-05
0.000102052
0.000306157
-0.000116827
5.9872e-05
0.000424091
-0.000138405
-1.9704e-06
0.000555273
-0.000158419
-8.51547e-05
0.000696152
-0.000173326
-0.000189689
0.000842133
-0.000182411
-0.000312252
0.000988146
-0.00018669
-0.000447321
0.00112928
-0.000187348
-0.000588755
0.00126252
-0.000185107
-0.000730313
0.0013854
-0.000180127
-0.000866344
0.00149658
-0.000172142
-0.00099216
0.00159542
-0.000160588
-0.00110409
0.00168166
-0.000144786
-0.00119906
0.00175437
-0.000124341
-0.00127495
0.00181254
-9.95125e-05
-0.00133015
0.00185531
-7.11714e-05
-0.00136354
0.0018819
-4.07302e-05
-0.00137724
0.00189132
-7.213e-06
-0.00137008
0.0018835
2.09441e-05
-0.00134439
0.00185665
4.51429e-05
-0.00130387
0.00180967
6.50448e-05
-0.00124921
0.00174149
7.63619e-05
-0.00118147
0.00165236
7.72668e-05
-0.00110102
0.00154345
6.6289e-05
-0.00100688
0.00141709
4.298e-05
-0.000899734
0.00127766
1.03051e-05
-0.000777145
0.00113103
-3.21513e-05
-0.000643559
0.000984408
-7.47119e-05
-0.000503001
0.000846245
-0.000112867
-0.000364955
0.000723558
-0.000140014
-0.000240345
0.000620738
-0.000152385
-0.000137308
0.000538716
-0.000151105
-5.8973e-05
0.000474355
-0.000140015
-7.95681e-06
0.000417472
-0.000117862
1.07483e-05
0.000342594
-7.88027e-05
0.000195667
-2.30122e-05
2.71792e-05
3.99552e-06
-5.52667e-05
8.58398e-05
4.2894e-05
-0.000116385
0.000131733
0.000119658
-0.000129399
0.000146589
0.000222455
-0.000125478
0.000135226
0.000342903
-0.000129145
0.000105112
0.000478848
-0.000142578
5.8978e-05
0.000628091
-0.000157867
-3.80561e-06
0.000785651
-0.000167595
-8.3653e-05
0.00094501
-0.000169011
-0.0001782
0.00109938
-0.000162695
-0.000283655
0.00124426
-0.000150663
-0.000394873
0.00137448
-0.000133979
-0.000507257
0.00148801
-0.000113107
-0.000616785
0.00158272
-8.77967e-05
-0.00072031
0.00165779
-5.76883e-05
-0.000815218
0.0017128
-2.2468e-05
-0.000899965
0.00174874
1.76657e-05
-0.000973445
0.00176697
6.08738e-05
-0.00103542
0.00176966
0.00010485
-0.00108547
0.00175887
0.000146496
-0.0011251
0.00173657
0.000184952
-0.00115589
0.00170456
0.00021755
-0.00117861
0.00166319
0.000243028
-0.0011941
0.00161295
0.000259181
-0.00120336
0.00155474
0.000264202
-0.00120566
0.00148754
0.000256245
-0.00119866
0.00141081
0.000234556
-0.00117833
0.00132406
0.000199051
-0.00113946
0.00122739
0.00015083
-0.00107685
0.00112296
9.20984e-05
-0.000984752
0.00101276
2.61659e-05
-0.000862353
0.000902651
-4.06414e-05
-0.000713428
0.000798919
-0.000101601
-0.000548788
0.000707521
-0.000148602
-0.000384504
0.000631678
-0.000175225
-0.000237498
0.000570785
-0.000179075
-0.000119538
0.000520373
-0.000163978
-3.72599e-05
0.000469293
-0.000134099
2.54961e-06
0.000390034
-8.72496e-05
0.000222703
-2.44862e-05
3.39877e-05
5.25359e-05
-8.25281e-05
0.000105787
0.000132929
-0.000161834
0.000161153
0.000236811
-0.000172519
0.000179374
0.000362906
-0.000158672
0.000169026
0.000506289
-0.000153037
0.000140603
0.000663815
-0.000156544
9.83451e-05
0.000829713
-0.000159365
4.26501e-05
0.000995774
-0.000154428
-2.60296e-05
0.00115416
-0.00014047
-0.000105531
0.00129825
-0.000119374
-0.000191152
0.00142299
-9.31061e-05
-0.000279766
0.00152579
-6.26985e-05
-0.00036823
0.00160459
-2.81172e-05
-0.000454277
0.00165714
1.1632e-05
-0.000536255
0.001684
5.57736e-05
-0.000612736
0.00168661
0.000102665
-0.000683846
0.0016685
0.000151355
-0.000749731
0.00163407
0.000198792
-0.000810822
0.00158878
0.000241978
-0.000867868
0.00153738
0.000278529
-0.000922601
0.00148393
0.000307378
-0.000976342
0.00143117
0.00032713
-0.00103018
0.00138028
0.000336744
-0.00108447
0.00133143
0.00033582
-0.0011378
0.001284
0.000324063
-0.0011872
0.0012357
0.000301234
-0.00122773
0.00118389
0.000267447
-0.00125277
0.00112587
0.000223226
-0.00125435
0.00105987
0.000169106
-0.00122489
0.000985672
0.000107828
-0.00115745
0.000905557
3.97617e-05
-0.00104691
0.000824834
-3.27236e-05
-0.000895475
0.000749307
-0.000101818
-0.000712682
0.000684718
-0.00015999
-0.000516174
0.000634021
-0.000198851
-0.000329429
0.000594564
-0.000210524
-0.000173879
0.000558771
-0.000193947
-6.26669e-05
0.000514142
-0.000156062
-4.09626e-06
0.000432117
-0.000100653
0.000247329
-2.87222e-05
4.32533e-05
0.000120474
-0.000111191
0.000133718
0.000251903
-0.000209438
0.000204996
0.000380775
-0.000215243
0.000232761
0.000522509
-0.000187368
0.000229077
0.000677676
-0.000167703
0.000207179
0.000842672
-0.000156959
0.000172549
0.00100918
-0.000144841
0.000126206
0.00116743
-0.000125309
6.94863e-05
0.00130935
-9.84665e-05
4.48269e-06
0.00142949
-6.62372e-05
-6.65215e-05
0.0015246
-3.06097e-05
-0.000140425
0.00159106
8.6288e-06
-0.000214432
0.00162749
5.11091e-05
-0.000288002
0.00163364
9.70623e-05
-0.000360448
0.00161145
0.000144998
-0.000431238
0.00156529
0.000192118
-0.000500599
0.00150219
0.000235671
-0.000569088
0.00142985
0.000272709
-0.000637541
0.00135578
0.00030145
-0.000707348
0.00128589
0.000321297
-0.000780148
0.00122422
0.000332502
-0.00085708
0.00117266
0.000335436
-0.000938494
0.00113104
0.000330654
-0.00102345
0.00109758
0.000318809
-0.00110908
0.00106933
0.000300302
-0.00119091
0.00104223
0.000275299
-0.00126289
0.00101209
0.000243782
-0.00131766
0.000975158
0.000205486
-0.00134701
0.000929077
0.000160135
-0.00134223
0.000873681
0.000107217
-0.00129482
0.000811735
4.64148e-05
-0.00119759
0.000748879
-2.12759e-05
-0.00104912
0.000691689
-9.08515e-05
-0.000856516
0.000647479
-0.000155367
-0.000636643
0.000619412
-0.000205265
-0.000416339
0.000603359
-0.000229098
-0.000225548
0.000586911
-0.000218932
-8.64317e-05
0.000552945
-0.000177918
-9.89557e-06
0.000471429
-0.000115848
0.000271867
-3.44335e-05
5.49617e-05
0.000202361
-0.000136849
0.000168778
0.000391408
-0.000253322
0.000261374
0.000541065
-0.000252886
0.000303553
0.000688932
-0.000208601
0.000309945
0.000843517
-0.000172233
0.000296233
0.00100218
-0.000145795
0.000269279
0.00115571
-0.000119569
0.00023083
0.00129424
-8.83676e-05
0.00018208
0.00141057
-5.24755e-05
0.000125028
0.00150021
-1.36687e-05
6.32925e-05
0.00155971
2.66273e-05
-2.89193e-06
0.0015878
6.94531e-05
-7.22103e-05
0.00158285
0.000113965
-0.000143801
0.00154592
0.000159316
-0.000216924
0.00148224
0.000202333
-0.000291212
0.00139993
0.000239643
-0.000366542
0.00130892
0.000268597
-0.0004434
0.00121879
0.000287919
-0.000522876
0.00113721
0.000298053
-0.000606505
0.00106893
0.000300591
-0.000695621
0.00101586
0.000297474
-0.000790679
0.000977406
0.000290316
-0.000891007
0.000951025
0.00028034
-0.000994671
0.000933005
0.000268235
-0.00109844
0.000919038
0.000254058
-0.00119807
0.00090458
0.000237285
-0.0012883
0.00088544
0.000216883
-0.0013626
0.000858243
0.000191207
-0.00141285
0.000821047
0.000158286
-0.00142939
0.000773991
0.000116234
-0.00140132
0.000719992
6.3664e-05
-0.00131972
0.000664973
2.30958e-06
-0.00117844
0.000617634
-6.72198e-05
-0.000981952
0.000586756
-0.000135769
-0.000745665
0.000577589
-0.000194463
-0.000498281
0.00058633
-0.000230356
-0.00027593
0.000596032
-0.000231472
-0.000109984
0.000580931
-0.000193933
-1.59575e-05
0.000506383
-0.00012898
0.000295835
-3.99256e-05
6.77929e-05
0.000290354
-0.000155785
0.000207923
0.000540087
-0.00028881
0.000325542
0.000705868
-0.000282421
0.000385155
0.000850868
-0.00022155
0.000402821
0.000993906
-0.000168054
0.000396591
0.00113518
-0.000126776
0.000375144
0.00126626
-8.91061e-05
0.000341237
0.00137818
-5.00312e-05
0.000296568
0.00146451
-9.2711e-06
0.000243328
0.00152155
3.19053e-05
0.000182963
0.00154668
7.33939e-05
0.000116426
0.00153854
0.000115795
4.4624e-05
0.00149681
0.000157842
-3.20893e-05
0.00142584
0.000196793
-0.000112321
0.00133366
0.000228809
-0.000194763
0.00123139
0.000250981
-0.000278881
0.00113055
0.000262488
-0.000365118
0.00104036
0.000264658
-0.000454659
0.000966454
0.000260292
-0.000548799
0.000910538
0.000252535
-0.000648191
0.000871288
0.000243969
-0.000752495
0.000845481
0.000236229
-0.000860522
0.000829041
0.000230011
-0.000970563
0.000817805
0.000225241
-0.00108054
0.00080789
0.000221124
-0.00118792
0.000795735
0.000216226
-0.00128912
0.000778196
0.00020845
-0.0013787
0.000752642
0.00019518
-0.00144851
0.000717452
0.000173401
-0.00148746
0.000672606
0.000140336
-0.00148227
0.000620688
9.41135e-05
-0.0014198
0.000567739
3.47613e-05
-0.00129066
0.000523041
-3.45409e-05
-0.0010946
0.000498368
-0.000107679
-0.00084584
0.000502891
-0.00017406
-0.000575057
0.000535655
-0.000220109
-0.000324253
0.000577464
-0.000232235
-0.000132954
0.00059179
-0.000202158
-2.24802e-05
0.000533539
-0.000137629
0.000317903
-4.45474e-05
8.03225e-05
0.000375809
-0.000165778
0.000247366
0.000686147
-0.000313103
0.000391597
0.00086425
-0.000302614
0.000469941
0.000999518
-0.000226994
0.000498634
0.00112293
-0.000157713
0.000498101
0.00123944
-0.000103726
0.000479419
0.0013427
-5.77614e-05
0.00044677
0.00142521
-1.43746e-05
0.00040249
0.00148112
2.76756e-05
0.000348262
0.00150725
6.85256e-05
0.000284928
0.00150134
0.000108679
0.000213096
0.00146248
0.000147894
0.000133469
0.00139265
0.000183787
4.78143e-05
0.00129875
0.000212742
-4.14645e-05
0.00119174
0.000231196
-0.000132283
0.0010842
0.000238008
-0.000223827
0.000987088
0.000235005
-0.000316673
0.000907258
0.000225952
-0.000411953
0.000846713
0.000215022
-0.000510449
0.000803527
0.000205506
-0.000612126
0.000773691
0.000199274
-0.000716365
0.000752795
0.000196925
-0.000822494
0.000736995
0.000198175
-0.000930154
0.000723282
0.000202184
-0.00103919
0.000709277
0.000207647
-0.00114907
0.000692856
0.000212759
-0.00125792
0.000671877
0.000215169
-0.00136124
0.000644219
0.000211748
-0.00145094
0.000608039
0.000199105
-0.00151476
0.000562629
0.000173797
-0.00153687
0.000509643
0.00013316
-0.00149992
0.000454504
7.6289e-05
-0.0013896
0.000407335
5.38181e-06
-0.0012
0.000382554
-7.378e-05
-0.000942878
0.000393939
-0.000148174
-0.000649936
0.000447215
-0.000204502
-0.000370721
0.000524814
-0.000226565
-0.000154508
0.000579676
-0.000204099
-2.89761e-05
0.000549559
-0.000141552
0.000337328
-4.84016e-05
9.11275e-05
0.000451057
-0.000166376
0.000283394
0.000819139
-0.000325259
0.000453936
0.00100729
-0.000313585
0.000551099
0.00112887
-0.000226515
0.000590019
0.0012279
-0.000143891
0.000593403
0.00131582
-7.97575e-05
0.000574843
0.00138971
-2.84408e-05
0.00054105
0.00144261
1.63846e-05
0.000494428
0.00147019
5.75485e-05
0.000436223
0.00146917
9.62818e-05
0.000366878
0.00143742
0.000133258
0.000286934
0.0013751
0.000167323
0.000198006
0.00128639
0.000195187
0.000103233
0.00118048
0.000213045
6.33127e-06
0.00106988
0.000218764
-9.00733e-05
0.0009669
0.000213705
-0.000185335
0.000880273
0.000202077
-0.000280264
0.000813158
0.00018903
-0.00037578
0.000763676
0.000178553
-0.000472172
0.000727201
0.000172718
-0.000569183
0.0006988
0.000171903
-0.000666663
0.000674721
0.000175554
-0.000765108
0.000652651
0.000182788
-0.00086575
0.000631273
0.000192651
-0.000970158
0.000609656
0.00020403
-0.00107945
0.000586714
0.000215439
-0.00119317
0.000560906
0.000224683
-0.00130797
0.000530132
0.000228893
-0.00141638
0.000492054
0.00022439
-0.00150583
0.00044493
0.000207148
-0.00155875
0.000389062
0.000173501
-0.00155423
0.000328738
0.000121248
-0.00147207
0.000274103
5.10742e-05
-0.00129953
0.000241834
-3.18238e-05
-0.00104138
0.000251906
-0.000116112
-0.000728838
0.000318991
-0.000184321
-0.000419015
0.000432836
-0.000217845
-0.000175361
0.000539035
-0.000203013
-3.50632e-05
0.000551498
-0.000142237
0.000354109
-5.18442e-05
9.92129e-05
0.000510533
-0.000158689
0.000313185
0.000931048
-0.000325881
0.000508149
0.00112859
-0.000316259
0.000623459
0.00123543
-0.000221874
0.000671683
0.00130852
-0.000128848
0.000677733
0.00136671
-5.6941e-05
0.000657711
0.00141108
-1.35229e-06
0.000621359
0.00143696
4.201e-05
0.000570705
0.00143999
8.08481e-05
0.000507037
0.00141658
0.000116263
0.000430536
0.00136499
0.000148931
0.000342169
0.00128659
0.000176878
0.000244856
0.00118736
0.000196337
0.000143264
0.00107794
0.000204131
4.2065e-05
0.000970925
0.000200157
-5.61471e-05
0.000876966
0.000188146
-0.00015107
0.000801429
0.000173767
-0.0002437
0.00074377
0.000162018
-0.000334776
0.000699302
0.00015545
-0.000424398
0.000662503
0.000154319
-0.000512581
0.000629283
0.000157699
-0.000599957
0.000597581
0.000164517
-0.000688096
0.00056677
0.00017402
-0.000779369
0.000536803
0.000185743
-0.000876481
0.000507555
0.000199212
-0.000981757
0.000478414
0.000213577
-0.00109615
0.000448037
0.000227259
-0.00121793
0.000414243
0.000237671
-0.00134116
0.000374168
0.000241115
-0.00145421
0.000324961
0.000233021
-0.00153904
0.000265263
0.000208628
-0.00157214
0.000197629
0.000164213
-0.00152809
0.000131384
9.8665e-05
-0.0013856
8.46404e-05
1.46996e-05
-0.00114045
8.25025e-05
-7.57452e-05
-0.000816045
0.000151766
-0.000157176
-0.000474822
0.000296816
-0.000205203
-0.000198371
0.000463282
-0.000200698
-4.08497e-05
0.000535612
-0.000141635
0.00036815
-5.48906e-05
0.000104033
0.000551199
-0.000144699
0.000334951
0.00101662
-0.000316488
0.000551713
0.00122437
-0.00031254
0.000684037
0.00131741
-0.000214304
0.000741144
0.00136569
-0.000114281
0.000748699
0.00139556
-3.64109e-05
0.000727136
0.00141267
1.99748e-05
0.00068703
0.00141427
6.27883e-05
0.000631951
0.0013967
9.83747e-05
0.000562712
0.0013559
0.000129919
0.000479535
0.00129036
0.000157806
0.000384161
0.00120241
0.000179555
0.000280901
0.00109918
0.000191439
0.000175691
0.00099171
0.000191442
7.36351e-05
0.000891497
0.000181483
-2.2973e-05
0.000806635
0.000166939
-0.000114416
0.000739182
0.00015369
-0.000201811
0.000685774
0.000145391
-0.000285833
0.000640646
0.000142678
-0.000366667
0.000599015
0.000144322
-0.000444737
0.000558506
0.000148846
-0.000521275
0.000518717
0.000155402
-0.000598438
0.000480098
0.000163835
-0.000679112
0.000443113
0.000174365
-0.000766565
0.000407803
0.000187205
-0.000863946
0.000373614
0.000202182
-0.000973532
0.000339253
0.00021837
-0.00109554
0.000302525
0.000233729
-0.00122647
0.000260283
0.000244809
-0.00135708
0.00020883
0.00024674
-0.00147075
0.000145121
0.00023382
-0.00154308
6.92921e-05
0.00020066
-0.0015445
-1.11911e-05
0.000143994
-0.00144544
-7.89672e-05
6.45483e-05
-0.00122976
-0.000103129
-3.00447e-05
-0.000909473
-4.70769e-05
-0.000121444
-0.000542182
0.000115112
-0.000185587
-0.000227524
0.000344452
-0.000195828
-4.68229e-05
0.000495879
-0.000140968
0.000378104
-5.67771e-05
0.00010552
0.000572195
-0.000126516
0.000348162
0.00107329
-0.000299315
0.000582878
0.00129232
-0.000302665
0.000731386
0.00137503
-0.000206124
0.000797262
0.00140122
-0.000101407
0.000806393
0.00140556
-1.91245e-05
0.000783196
0.00139782
3.80485e-05
0.000739527
0.00137882
7.91231e-05
0.000680284
0.00134468
0.000111257
0.00060629
0.00129116
0.000138735
0.000517961
0.0012168
0.000161891
0.00041789
0.00112447
0.000178011
0.000311572
0.00102167
0.000183827
0.000205753
0.000918882
0.000178646
0.000105511
0.000825824
0.000165915
1.25912e-05
0.000747882
0.000151674
-7.38065e-05
0.000684554
0.000141026
-0.000154943
0.000631099
0.000135811
-0.000231523
0.000582166
0.00013506
-0.000303877
0.000534529
0.00013684
-0.000372707
0.000487467
0.000139869
-0.000439503
0.000441597
0.000143916
-0.000506554
0.000397687
0.000149461
-0.000576772
0.000356094
0.000157237
-0.000653499
0.000316625
0.000167906
-0.000740246
0.000278567
0.000181793
-0.000840194
0.000240613
0.000198588
-0.000955296
0.000200661
0.000216966
-0.00108474
0.000155589
0.000234136
-0.00122272
0.000101271
0.000245542
-0.00135609
3.34387e-05
0.000245053
-0.00146256
-5.01502e-05
0.000225912
-0.00151058
-0.0001456
0.000182426
-0.00146473
-0.000237354
0.000112536
-0.0012945
-0.000292408
1.90488e-05
-0.000998375
-0.000265089
-7.81081e-05
-0.000619298
-0.000107103
-0.000156863
-0.000265786
0.000175153
-0.000184212
-5.33363e-05
0.00042345
-0.000140021
0.000380445
-5.56774e-05
0.000103942
0.000574393
-0.00010614
0.000352971
0.00110074
-0.000276482
0.000601887
0.00133212
-0.000288716
0.000765222
0.00140875
-0.000197054
0.000840378
0.0014169
-9.08347e-05
0.000851653
0.00139931
-5.02652e-06
0.000827376
0.00137004
5.20492e-05
0.0007808
0.00133382
9.158e-05
0.000718282
0.00128677
0.000120431
0.000640905
0.00122447
0.000144063
0.000549448
0.00114542
0.000162841
0.000447193
0.00105244
0.000174279
0.000340421
0.000952727
0.000175718
0.00023619
0.000855503
0.00016761
0.000139238
0.000768501
0.000154275
5.07166e-05
0.000694856
0.000141547
-3.05629e-05
0.000632585
0.000133248
-0.000105987
0.000576875
0.000129648
-0.000176272
0.000523611
0.00012884
-0.000241829
0.000471157
0.00012893
-0.000303457
0.000419861
0.000129234
-0.000362649
0.000370647
0.000130142
-0.000421556
0.00032406
0.000132533
-0.000482845
0.00028004
0.000137343
-0.000549601
0.000238025
0.000145355
-0.000625236
0.000197078
0.000157125
-0.000713258
0.000155841
0.000172794
-0.000816696
0.000112328
0.000191772
-0.000936935
6.3595e-05
0.000212233
-0.00107167
5.45048e-06
0.000230557
-0.00121226
-6.70804e-05
0.000241106
-0.00134066
-0.000158263
0.000236517
-0.0014277
-0.000267728
0.000209163
-0.0014348
-0.000383903
0.000153648
-0.00132185
-0.000475862
7.05086e-05
-0.00106734
-0.000489286
-3.03149e-05
-0.000697234
-0.000358559
-0.000118649
-0.00031226
-4.6809e-05
-0.000163012
-6.02107e-05
0.00030771
-0.000136309
0.00036909
-4.88553e-05
9.99432e-05
0.000559922
-8.54721e-05
0.000350336
0.00110033
-0.00024998
0.000609518
0.00134455
-0.000271614
0.000786294
0.00141977
-0.000187794
0.00087109
0.00141472
-8.26158e-05
0.000886287
0.00137918
4.93563e-06
0.000861774
0.00133205
6.25111e-05
0.000813191
0.00128166
0.00010074
0.000748504
0.00122467
0.000126789
0.000669363
0.00115674
0.000146867
0.000576849
0.00107604
0.000161891
0.00047467
0.000984922
0.0001697
0.000369415
0.000889669
0.000168313
0.000268038
0.000797955
0.000158925
0.000174795
0.000715638
0.000146106
9.03508e-05
0.000644323
0.000134977
1.32986e-05
0.000581555
0.000128083
-5.77763e-05
0.000523296
0.000124653
-0.000123535
0.000466832
0.000122538
-0.000184372
0.000411683
0.000120312
-0.000241057
0.000358619
0.000117927
-0.00029497
0.000308372
0.000116187
-0.000348016
0.000261025
0.000116081
-0.000402511
0.000216064
0.000118472
-0.000461129
0.000172597
0.000124045
-0.000526913
0.000129497
0.000133365
-0.000603235
8.53529e-05
0.000146811
-0.00069352
3.82449e-05
0.000164368
-0.000800448
-1.46423e-05
0.000185165
-0.000924493
-7.73743e-05
0.00020687
-0.00106126
-0.000155295
0.000224984
-0.00119818
-0.000254058
0.000232711
-0.00131101
-0.000376422
0.000221524
-0.00136255
-0.00051577
0.000183408
-0.00130722
-0.00064591
0.00011472
-0.00110586
-0.000710204
1.95603e-05
-0.000763633
-0.000626501
-7.42892e-05
-0.000361885
-0.000316527
-0.000132031
-6.6852e-05
0.000138626
-0.000125949
0.000335862
-3.36245e-05
9.41696e-05
0.000531537
-6.57849e-05
0.000341427
0.00107457
-0.000221494
0.000607167
0.0013314
-0.000252591
0.000796148
0.00140964
-0.000178857
0.000890903
0.00139675
-7.67777e-05
0.000911773
0.00134759
1.07168e-05
0.000888148
0.00128607
6.95988e-05
0.000838868
0.00122402
0.000106924
0.000773298
0.00115942
0.000130824
0.000693942
0.00108814
0.000147964
0.000602213
0.00100787
0.000159903
0.00050192
0.000920152
0.000165062
0.00039949
0.000829999
0.000162099
0.000301506
0.00074349
0.000152449
0.000211721
0.000664867
0.000140557
0.000130503
0.000594925
0.000130616
5.64198e-05
0.000531446
0.000124191
-1.18205e-05
0.000471499
0.000120038
-7.47664e-05
0.000413552
0.000116225
-0.000132727
0.000357741
0.000111903
-0.000186381
0.000304782
0.000107491
-0.000236952
0.000254987
0.000103956
-0.000286098
0.000207972
0.0001022
-0.000335786
0.000162866
0.000102886
-0.000388267
0.000118568
0.000106511
-0.000446124
7.38383e-05
0.000113515
-0.000512332
2.72254e-05
0.000124336
-0.000590207
-2.31774e-05
0.000139297
-0.000683035
-8.0106e-05
0.000158291
-0.000793044
-0.000147562
0.000180198
-0.000919326
-0.000231135
0.000202122
-0.00105451
-0.00033745
0.000218574
-0.00118039
-0.000471901
0.000221359
-0.00126417
-0.000632836
0.000200847
-0.00125887
-0.000800684
0.000149476
-0.00111468
-0.000922169
6.77743e-05
-0.000810989
-0.000901069
-2.91231e-05
-0.000408186
-0.000623307
-9.60228e-05
-7.3657e-05
-8.99e-05
-0.000106003
0.000272492
-1.02864e-05
8.72581e-05
0.000492332
-4.80524e-05
0.000327664
0.00102691
-0.000192752
0.000596318
0.001295
-0.000232257
0.000795974
0.00138014
-0.000170158
0.000901534
0.00136449
-7.33013e-05
0.000929521
0.00130594
1.36619e-05
0.000908592
0.00123362
7.33809e-05
0.000859912
0.00116219
0.000110503
0.000794649
0.00109169
0.000132986
0.00071641
0.00101852
0.000147855
0.000626941
0.000939933
0.000157402
0.000529869
0.000856477
0.000160747
0.000431112
0.00077171
0.000157046
0.000336622
0.000690149
0.00014783
0.000249766
0.000614834
0.000136889
0.000170823
0.000546202
0.000127666
9.85294e-05
0.000482642
0.000121098
3.18226e-05
0.000422308
0.000115897
-2.96685e-05
0.000364493
0.000110551
-8.6145e-05
0.000309525
0.000104693
-0.000138172
0.000257819
9.89905e-05
-0.000186823
0.000209244
9.43948e-05
-0.000233545
0.000163046
9.16469e-05
-0.000280024
0.000118144
9.12015e-05
-0.000328145
7.33349e-05
9.33543e-05
-0.000380041
2.73481e-05
9.83859e-05
-0.000438203
-2.12755e-05
0.000106663
-0.000505575
-7.44386e-05
0.000118633
-0.00058548
-0.000134876
0.000134675
-0.000681094
-0.000206639
0.000154691
-0.00079404
-0.00029551
0.000177321
-0.000921436
-0.000408952
0.000198898
-0.0010512
-0.000554614
0.000212481
-0.00115647
-0.000735533
0.000207968
-0.00119235
-0.000939481
0.00017467
-0.00110211
-0.00112004
0.000107633
-0.000842559
-0.00117504
1.44171e-05
-0.000449898
-0.000955686
-6.02822e-05
-8.31673e-05
-0.000377223
-7.94077e-05
0.000171221
1.81035e-05
7.97651e-05
0.000445372
-3.28058e-05
0.000310351
0.000961317
-0.000164989
0.000578535
0.00123816
-0.000211345
0.000787288
0.00133322
-0.000161833
0.000904263
0.00131949
-7.19737e-05
0.000940892
0.00125592
1.33865e-05
0.000924565
0.00117597
7.39778e-05
0.000877946
0.00109718
0.000111634
0.000814131
0.00102199
0.000133519
0.000738088
0.000947714
0.00014685
0.000651979
0.000871371
0.00015467
0.000559072
0.000792497
0.000156888
0.000464511
0.000713201
0.00015307
0.000373513
0.000636551
0.000144596
0.000289104
0.000564658
0.000134586
0.000211665
0.000497862
0.000125779
0.000140259
0.000435228
0.00011882
7.41354e-05
0.000375796
0.000112635
1.31204e-05
0.000319357
0.000106151
-4.28644e-05
0.000266188
9.93218e-05
-9.4271e-05
0.000216333
9.28924e-05
-0.000142043
0.000169306
8.771e-05
-0.000187462
0.0001241
8.43648e-05
-0.000232007
7.95393e-05
8.31499e-05
-0.000277294
3.44217e-05
8.41997e-05
-0.000325046
-1.25427e-05
8.76432e-05
-0.000377286
-6.27353e-05
9.37002e-05
-0.000436457
-0.000118061
0.000102792
-0.000505584
-0.000181289
0.00011554
-0.000588219
-0.00025656
0.000132556
-0.000687661
-0.000349936
0.000153868
-0.00080469
-0.000469686
0.000177763
-0.000932957
-0.000625519
0.000199172
-0.00105208
-0.000824891
0.00020848
-0.00112109
-0.00106313
0.000192661
-0.00107934
-0.00130281
0.000141019
-0.000868172
-0.00144255
5.63379e-05
-0.000492155
-0.00130227
-2.94299e-05
-0.000100425
-0.0007134
-5.55528e-05
3.00396e-05
4.07564e-05
7.21207e-05
0.000393552
-2.03003e-05
0.000290628
0.00088197
-0.00013916
0.000555277
0.00116406
-0.000190549
0.000771364
0.00127093
-0.000153794
0.000900056
0.00126318
-7.23834e-05
0.000946898
0.00119877
1.03085e-05
0.000937128
0.00111413
7.16086e-05