/*--------------------------------*- C++ -*----------------------------------*\
| =========                 |                                                 |
| \\      /  F ield         | OpenFOAM: The Open Source CFD Toolbox           |
|  \\    /   O peration     | Version:  v1806                                 |
|   \\  /    A nd           | Web:      www.OpenFOAM.com                      |
|    \\/     M anipulation  |                                                 |
\*---------------------------------------------------------------------------*/
FoamFile
{
    version     2.0;
    format      ascii;
    class       volVectorField;
    location    "0.001";
    object      U;
}
// * * * * * * * * * * * * * * * * * * * * * * * * * * * * * * * * * * * * * //

dimensions      [0 1 -1 0 0 0 0];


internalField   nonuniform List<vector> 
64000
(
(0.000984284 -0.00111669 0.000187762)
(0.00714794 -0.00266088 -0.000738945)
(0.0170018 -0.00291119 -0.000851449)
(0.0254684 -0.00260101 -0.000589972)
(0.0320777 -0.00221487 -0.000358079)
(0.0371243 -0.00209853 -0.000374207)
(0.0410946 -0.00223193 -0.000666984)
(0.0441328 -0.00228852 -0.00100689)
(0.0461287 -0.00213575 -0.00123186)
(0.0464072 -0.00196313 -0.00131834)
(0.0439531 -0.00190408 -0.0011654)
(0.0378359 -0.00206092 -0.000631776)
(0.027279 -0.00258501 0.000391895)
(0.0113243 -0.00358768 0.0016683)
(-0.0104065 -0.00479971 0.00341741)
(-0.037879 -0.00602371 0.00531453)
(-0.0704671 -0.00664953 0.00694203)
(-0.105932 -0.00628417 0.00741711)
(-0.142858 -0.00495137 0.0051104)
(-0.179707 -0.00193844 0.000405682)
(-0.21344 0.0030674 -0.00661485)
(-0.24106 0.0100494 -0.0159262)
(-0.259683 0.0187165 -0.0272227)
(-0.26659 0.028488 -0.039947)
(-0.259529 0.0385143 -0.0533169)
(-0.237254 0.0477684 -0.0661148)
(-0.200206 0.0551581 -0.0767284)
(-0.150947 0.0597634 -0.0833039)
(-0.0943054 0.0609029 -0.0840853)
(-0.0364181 0.0581893 -0.0780727)
(0.0143491 0.0511548 -0.0664154)
(0.0492338 0.0431325 -0.0502885)
(0.0654325 0.0324204 -0.0331361)
(0.0656766 0.0222347 -0.0184444)
(0.0555139 0.0138751 -0.00824579)
(0.0414716 0.00799936 -0.00258264)
(0.0280727 0.00452991 -0.000246905)
(0.0170892 0.00292871 0.000265969)
(0.00780464 0.00224119 0.000290608)
(0.0016805 0.00078467 0.00026515)
(0.00209327 -0.00529178 0.000241259)
(0.0127328 -0.0097489 -0.00198483)
(0.0289814 -0.00948032 -0.00283546)
(0.0425886 -0.00694782 -0.00301986)
(0.0522467 -0.00386902 -0.00335081)
(0.0582276 -0.000887025 -0.00416795)
(0.0614153 0.00196646 -0.00549173)
(0.0617749 0.00526876 -0.0072023)
(0.0581791 0.00942001 -0.00911043)
(0.0489411 0.0145285 -0.0109828)
(0.032309 0.0205035 -0.012824)
(0.00660122 0.0275611 -0.0146563)
(-0.0294416 0.0356241 -0.0165309)
(-0.076373 0.0447156 -0.0186116)
(-0.133724 0.0553702 -0.0211576)
(-0.199693 0.0679669 -0.02471)
(-0.271197 0.0832497 -0.0300328)
(-0.344019 0.1015 -0.0380246)
(-0.413642 0.122293 -0.0494112)
(-0.47545 0.145842 -0.0641441)
(-0.524833 0.171612 -0.0817954)
(-0.557791 0.198525 -0.101542)
(-0.571225 0.225171 -0.122101)
(-0.56311 0.249899 -0.141973)
(-0.532531 0.270932 -0.159601)
(-0.479949 0.286358 -0.173084)
(-0.407918 0.294479 -0.180564)
(-0.320979 0.293901 -0.180257)
(-0.226017 0.283764 -0.171015)
(-0.131497 0.263905 -0.152886)
(-0.044707 0.234565 -0.12761)
(0.0212534 0.19855 -0.100138)
(0.0606464 0.159294 -0.0714367)
(0.0775335 0.121105 -0.0474626)
(0.0754861 0.0874908 -0.0300233)
(0.0628383 0.0613663 -0.0190495)
(0.0469575 0.0433881 -0.0129312)
(0.0318973 0.032197 -0.00944903)
(0.0175323 0.0243757 -0.0063189)
(0.00512983 0.0130605 -0.00245391)
(0.00238096 -0.0105872 -0.000326588)
(0.0148942 -0.01679 -0.0038617)
(0.0336029 -0.0139146 -0.00532229)
(0.0479424 -0.00644055 -0.0058515)
(0.0565835 0.00281916 -0.00673894)
(0.0598586 0.012825 -0.0087339)
(0.058281 0.0238748 -0.0116955)
(0.0514201 0.0368137 -0.0152704)
(0.037683 0.0524068 -0.0192814)
(0.0148405 0.0712646 -0.0232802)
(-0.0188117 0.0936028 -0.0271463)
(-0.0642887 0.119373 -0.0308644)
(-0.121635 0.148315 -0.034278)
(-0.189237 0.180033 -0.0375278)
(-0.26433 0.214312 -0.0411053)
(-0.343106 0.250964 -0.045603)
(-0.421222 0.289832 -0.0514247)
(-0.494197 0.330571 -0.0587001)
(-0.557895 0.372502 -0.0673296)
(-0.608891 0.414817 -0.076955)
(-0.64445 0.456231 -0.0870116)
(-0.662568 0.495169 -0.0968355)
(-0.662082 0.529904 -0.105759)
(-0.642585 0.558323 -0.113159)
(-0.604389 0.578013 -0.118107)
(-0.54896 0.586627 -0.119938)
(-0.478906 0.582329 -0.118078)
(-0.398095 0.563769 -0.112234)
(-0.311564 0.530649 -0.102562)
(-0.225018 0.484127 -0.0898202)
(-0.144316 0.426941 -0.0753489)
(-0.0764041 0.360931 -0.0608166)
(-0.0251272 0.295253 -0.0472056)
(0.0085318 0.233207 -0.0361203)
(0.0258112 0.179136 -0.0274462)
(0.0314445 0.135896 -0.0215172)
(0.0301681 0.104154 -0.017566)
(0.0253571 0.081919 -0.0142262)
(0.0168863 0.0633949 -0.00965423)
(0.00573053 0.0355473 -0.00329378)
(0.00250991 -0.0135437 -0.00169666)
(0.0163052 -0.0188999 -0.00688616)
(0.0362363 -0.0111173 -0.00883739)
(0.0497085 0.00383816 -0.00950391)
(0.0553533 0.0222208 -0.0111084)
(0.05385 0.0428407 -0.0143881)
(0.0459485 0.0665398 -0.0189656)
(0.0308991 0.094464 -0.0240921)
(0.00707657 0.127126 -0.0291044)
(-0.0270539 0.164638 -0.0335693)
(-0.0720777 0.206352 -0.0371818)
(-0.127159 0.251022 -0.0397363)
(-0.190319 0.297589 -0.0410929)
(-0.258676 0.345118 -0.041356)
(-0.328906 0.39297 -0.0409175)
(-0.397664 0.440755 -0.0402124)
(-0.461903 0.488187 -0.0394059)
(-0.518721 0.534868 -0.0385226)
(-0.565786 0.580073 -0.037477)
(-0.601412 0.622684 -0.0361093)
(-0.624346 0.661156 -0.0342235)
(-0.633716 0.693999 -0.0318745)
(-0.629503 0.720249 -0.0295294)
(-0.612256 0.737697 -0.0272537)
(-0.582439 0.743356 -0.0246989)
(-0.541272 0.735609 -0.021879)
(-0.490558 0.71328 -0.0189728)
(-0.432746 0.676005 -0.0162974)
(-0.370452 0.624609 -0.0142591)
(-0.306161 0.561543 -0.0133787)
(-0.242677 0.491545 -0.0141725)
(-0.182874 0.418172 -0.0160472)
(-0.128877 0.347245 -0.018153)
(-0.0828104 0.282464 -0.0197307)
(-0.0464899 0.227314 -0.0202135)
(-0.0201163 0.183083 -0.0198159)
(-0.00231759 0.149501 -0.0186236)
(0.00830095 0.12378 -0.0160228)
(0.0108612 0.0984453 -0.0107771)
(0.00491108 0.0558071 -0.00306858)
(0.00276424 -0.0123649 -0.00421991)
(0.018218 -0.0132014 -0.0117099)
(0.0397932 0.00218165 -0.0140394)
(0.0522947 0.0269436 -0.0145609)
(0.0546413 0.0568894 -0.0164998)
(0.048593 0.0912168 -0.0205386)
(0.0354076 0.130623 -0.025695)
(0.0145248 0.175482 -0.0307314)
(-0.0148319 0.225278 -0.0346544)
(-0.0530163 0.278598 -0.0372032)
(-0.0993852 0.333753 -0.0380452)
(-0.151927 0.38893 -0.0370734)
(-0.208272 0.442743 -0.0342608)
(-0.265816 0.494249 -0.0297549)
(-0.322151 0.542871 -0.0239079)
(-0.375259 0.588229 -0.0170589)
(-0.423534 0.630306 -0.00935242)
(-0.465415 0.668859 -0.000959508)
(-0.499862 0.703224 0.00809306)
(-0.526443 0.732709 0.0176874)
(-0.54462 0.756204 0.0275641)
(-0.553267 0.772615 0.0369577)
(-0.552606 0.780681 0.0435878)
(-0.544445 0.779059 0.0471104)
(-0.530595 0.766857 0.0490483)
(-0.510472 0.743238 0.0491908)
(-0.484934 0.707879 0.0472568)
(-0.454695 0.661293 0.0431054)
(-0.419839 0.605009 0.0367321)
(-0.379026 0.541742 0.0281514)
(-0.332181 0.475234 0.0163505)
(-0.281611 0.40924 0.00413065)
(-0.227284 0.347448 -0.00671368)
(-0.171625 0.292567 -0.01493)
(-0.118932 0.246356 -0.0197843)
(-0.0733995 0.209216 -0.0214788)
(-0.0372256 0.180112 -0.0207461)
(-0.0110774 0.155423 -0.0175956)
(0.00353542 0.126188 -0.0114324)
(0.00383421 0.0719706 -0.00268591)
(0.00317875 -0.00524336 -0.00802669)
(0.0214764 0.00361165 -0.0185401)
(0.0462126 0.0288073 -0.0209929)
(0.0588046 0.0644609 -0.0207293)
(0.0591978 0.106874 -0.0221617)
(0.0505292 0.155211 -0.0257463)
(0.0349095 0.209187 -0.0298571)
(0.0126124 0.26762 -0.0329407)
(-0.0166074 0.32866 -0.0342188)
(-0.0523503 0.389908 -0.0334469)
(-0.0932547 0.449287 -0.0306915)
(-0.137487 0.50481 -0.0259629)
(-0.183 0.555396 -0.0192949)
(-0.227933 0.600193 -0.0108476)
(-0.270915 0.638864 -0.000891312)
(-0.31086 0.67142 0.0102666)
(-0.3469 0.697847 0.0219457)
(-0.378172 0.717998 0.0334054)
(-0.404648 0.732045 0.0450668)
(-0.42649 0.740136 0.0565974)
(-0.444184 0.742488 0.0667145)
(-0.457603 0.738951 0.074765)
(-0.467199 0.728436 0.0798227)
(-0.473984 0.710919 0.0815289)
(-0.478704 0.687298 0.0804647)
(-0.480877 0.657364 0.0766695)
(-0.480058 0.621143 0.070157)
(-0.4751 0.579058 0.0610222)
(-0.463904 0.532059 0.0494341)
(-0.443443 0.481529 0.035697)
(-0.41161 0.428688 0.0209556)
(-0.36855 0.377024 0.00619183)
(-0.314353 0.329345 -0.00752662)
(-0.251406 0.287574 -0.0183317)
(-0.185062 0.252715 -0.0249453)
(-0.122377 0.224489 -0.0270014)
(-0.0692235 0.201283 -0.0252548)
(-0.0289104 0.178992 -0.0204865)
(-0.00294557 0.147542 -0.0126516)
(0.00319829 0.0841185 -0.00289255)
(0.00440744 0.0102337 -0.012588)
(0.0269963 0.0336349 -0.0268653)
(0.0565608 0.0695033 -0.0291072)
(0.071361 0.115418 -0.0271267)
(0.0721322 0.168653 -0.0269195)
(0.0635321 0.228009 -0.0287074)
(0.0486312 0.291801 -0.0304591)
(0.028265 0.357343 -0.0305893)
(0.00271578 0.421654 -0.0285889)
(-0.0273945 0.482223 -0.0246767)
(-0.061104 0.537782 -0.0190839)
(-0.096695 0.585411 -0.0117219)
(-0.132478 0.624903 -0.00263842)
(-0.167486 0.655606 0.00793936)
(-0.200897 0.677374 0.0198947)
(-0.232074 0.690257 0.0324363)
(-0.261174 0.694923 0.0446621)
(-0.28792 0.692243 0.0559138)
(-0.312502 0.683543 0.0658481)
(-0.33543 0.670134 0.0740951)
(-0.357405 0.653546 0.0801652)
(-0.378868 0.634765 0.0838021)
(-0.400245 0.614178 0.0848955)
(-0.421854 0.592136 0.0834807)
(-0.44361 0.568976 0.0798014)
(-0.464608 0.544322 0.0740073)
(-0.483311 0.517586 0.0662198)
(-0.497315 0.488163 0.0565229)
(-0.503475 0.455703 0.0449768)
(-0.498196 0.420213 0.0318493)
(-0.478145 0.38229 0.0173948)
(-0.441606 0.344485 0.0034999)
(-0.388741 0.30945 -0.0104319)
(-0.321377 0.279415 -0.0223772)
(-0.244664 0.255161 -0.0305039)
(-0.167187 0.235642 -0.033405)
(-0.0982677 0.218213 -0.0310364)
(-0.0445788 0.198345 -0.0246077)
(-0.0085086 0.165524 -0.0149685)
(0.00258074 0.0942769 -0.00350809)
(0.00568397 0.0342106 -0.0177023)
(0.0339876 0.0762326 -0.0358467)
(0.0710976 0.122509 -0.0373229)
(0.0906877 0.176269 -0.0327229)
(0.0942591 0.236524 -0.0298349)
(0.087974 0.301741 -0.0289024)
(0.0757669 0.369004 -0.0277337)
(0.0588039 0.434666 -0.0248878)
(0.0374621 0.495519 -0.0201233)
(0.0132534 0.549161 -0.0138451)
(-0.0142681 0.594016 -0.00698355)
(-0.0437637 0.628628 0.00178321)
(-0.0731812 0.652983 0.0123968)
(-0.102431 0.665511 0.0237436)
(-0.131085 0.666961 0.035256)
(-0.159057 0.65825 0.0461006)
(-0.186545 0.641446 0.0555561)
(-0.213582 0.61895 0.0630995)
(-0.240459 0.593307 0.0684967)
(-0.267707 0.566846 0.0717682)
(-0.296019 0.541546 0.0730701)
(-0.325952 0.51865 0.0726461)
(-0.357783 0.498623 0.0707852)
(-0.391377 0.481263 0.0677524)
(-0.425997 0.4658 0.063738)
(-0.46018 0.450917 0.0588012)
(-0.491803 0.435113 0.052886)
(-0.518079 0.416964 0.0458247)
(-0.535737 0.395507 0.0374219)
(-0.541149 0.370548 0.0274268)
(-0.530561 0.342865 0.0157059)
(-0.500743 0.314414 0.00283911)
(-0.450634 0.288572 -0.0106568)
(-0.381596 0.2678 -0.0233651)
(-0.297964 0.253069 -0.0331573)
(-0.208743 0.242576 -0.037855)
(-0.125646 0.231966 -0.0362016)
(-0.0591713 0.215376 -0.0289361)
(-0.0136299 0.181921 -0.0178134)
(0.0019689 0.104184 -0.00437287)
(0.00730336 0.0644406 -0.0222664)
(0.0426038 0.128678 -0.044203)
(0.0893577 0.184145 -0.0445759)
(0.115942 0.24221 -0.0367603)
(0.12414 0.304629 -0.0305647)
(0.121365 0.369998 -0.0265736)
(0.112371 0.434706 -0.0226364)
(0.0987268 0.494778 -0.0174707)
(0.0810217 0.547258 -0.0110505)
(0.0600894 0.590004 -0.00386828)
(0.0361912 0.620961 0.00452311)
(0.0107665 0.640525 0.0140142)
(-0.0160654 0.647326 0.0238691)
(-0.0441197 0.641245 0.0340093)
(-0.0724369 0.623644 0.043118)
(-0.101392 0.596935 0.0503991)
(-0.130909 0.564581 0.0553941)
(-0.161015 0.530238 0.058044)
(-0.192017 0.497147 0.058662)
(-0.22446 0.467708 0.057784)
(-0.258966 0.443354 0.0559694)
(-0.29592 0.424509 0.053691)
(-0.335271 0.410694 0.0512919)
(-0.376483 0.40073 0.0489687)
(-0.418507 0.392959 0.0467445)
(-0.459836 0.385491 0.0444548)
(-0.498551 0.376506 0.0417702)
(-0.532258 0.364498 0.0382124)
(-0.557982 0.348581 0.0332261)
(-0.572023 0.328766 0.0262273)
(-0.570106 0.306171 0.0168632)
(-0.547636 0.28306 0.00532571)
(-0.501917 0.262662 -0.00820736)
(-0.433305 0.248577 -0.0217141)
(-0.345311 0.242198 -0.0330759)
(-0.247054 0.241451 -0.0397281)
(-0.151803 0.240024 -0.0396182)
(-0.0734087 0.229245 -0.0325109)
(-0.0187258 0.19703 -0.0204731)
(0.00130347 0.114097 -0.00531511)
(0.00907921 0.0986672 -0.0255579)
(0.052148 0.186969 -0.0508829)
(0.109956 0.249848 -0.050117)
(0.145042 0.308457 -0.038931)
(0.15888 0.368287 -0.0292758)
(0.159841 0.428757 -0.0223744)
(0.153561 0.486249 -0.0162513)
(0.142172 0.536928 -0.00967758)
(0.126474 0.578093 -0.00257375)
(0.107055 0.607848 0.00529264)
(0.0844427 0.624979 0.0137692)
(0.0594114 0.629036 0.0226154)
(0.0320592 0.619134 0.0312086)
(0.00256809 0.597061 0.0388357)
(-0.0285121 0.564941 0.0445183)
(-0.0607725 0.526663 0.0476678)
(-0.0938681 0.486731 0.0483054)
(-0.127766 0.449162 0.0469742)
(-0.162807 0.416841 0.0444828)
(-0.199525 0.391242 0.0416318)
(-0.238339 0.372542 0.0390308)
(-0.279297 0.359931 0.0370539)
(-0.322052 0.351953 0.0358629)
(-0.36599 0.346856 0.0354457)
(-0.410352 0.342837 0.0356255)
(-0.454241 0.338182 0.0360571)
(-0.496501 0.331382 0.0362329)
(-0.535368 0.321228 0.0354904)
(-0.568103 0.307038 0.0330411)
(-0.590741 0.28888 0.0280976)
(-0.598125 0.26795 0.0200943)
(-0.584575 0.246781 0.0089793)
(-0.545477 0.228795 -0.00453312)
(-0.479068 0.218656 -0.0189682)
(-0.388398 0.219005 -0.031889)
(-0.282575 0.228333 -0.0402515)
(-0.176544 0.238749 -0.0416255)
(-0.0870985 0.237616 -0.0351403)
(-0.0238043 0.209788 -0.0226281)
(0.00050744 0.123526 -0.00625234)
(0.01075 0.133598 -0.0271408)
(0.0616656 0.246458 -0.0552416)
(0.131046 0.315064 -0.0536013)
(0.175365 0.371028 -0.0393192)
(0.195168 0.424414 -0.0264212)
(0.199503 0.476245 -0.0170377)
(0.195024 0.523526 -0.00944382)
(0.184621 0.562894 -0.00228819)
(0.169359 0.591732 0.00504805)
(0.14979 0.608469 0.0126319)
(0.126451 0.6122 0.0203848)
(0.0996954 0.602391 0.0279636)
(0.0696734 0.579393 0.0346175)
(0.0367971 0.545534 0.0394252)
(0.00188202 0.504646 0.0416729)
(-0.0340828 0.461495 0.0412956)
(-0.0704727 0.420867 0.038883)
(-0.107295 0.38612 0.0354391)
(-0.144936 0.358902 0.0319466)
(-0.183809 0.339196 0.0291139)
(-0.224039 0.325838 0.0273124)
(-0.265425 0.317135 0.0266456)
(-0.307654 0.31134 0.027046)
(-0.350514 0.306915 0.0283457)
(-0.393951 0.30256 0.0302894)
(-0.437916 0.297142 0.0325104)
(-0.482038 0.289623 0.0344979)
(-0.525133 0.279075 0.0355388)
(-0.564683 0.264807 0.0347623)
(-0.596499 0.246693 0.0312416)
(-0.61465 0.225637 0.0241776)
(-0.612106 0.204054 0.0133112)
(-0.582162 0.186088 -0.000703204)
(-0.520841 0.177135 -0.0161959)
(-0.429597 0.18176 -0.0306978)
(-0.317176 0.200536 -0.0407284)
(-0.200461 0.225042 -0.0433244)
(-0.0999775 0.238014 -0.0372989)
(-0.0285784 0.218777 -0.0243714)
(-0.000349924 0.132036 -0.00724662)
(0.0120546 0.165976 -0.0269343)
(0.0701763 0.302695 -0.0570671)
(0.150786 0.375847 -0.0550329)
(0.204406 0.426997 -0.0382418)
(0.23008 0.471362 -0.022564)
(0.237234 0.512268 -0.011205)
(0.233712 0.547794 -0.00274325)
(0.22321 0.57538 0.00436041)
(0.207148 0.592246 0.0112325)
(0.186258 0.597118 0.0180195)
(0.160908 0.589225 0.0246716)
(0.131256 0.568406 0.0306942)
(0.0976286 0.535964 0.0352099)
(0.0609144 0.495173 0.0373624)
(0.0224423 0.450831 0.0368341)
(-0.0162989 0.408023 0.0341738)
(-0.0546154 0.370843 0.0303357)
(-0.0927072 0.341375 0.0265132)
(-0.130922 0.319629 0.0235267)
(-0.169483 0.30419 0.0217507)
(-0.20832 0.293103 0.0212123)
(-0.24728 0.284599 0.0217646)
(-0.286413 0.277373 0.0232204)
(-0.326108 0.270559 0.0254072)
(-0.367005 0.263528 0.0281457)
(-0.409755 0.255681 0.0311787)
(-0.45461 0.24631 0.034074)
(-0.500919 0.234576 0.0361814)
(-0.54657 0.219624 0.0365921)
(-0.587461 0.200934 0.0342339)
(-0.617254 0.178912 0.0280842)
(-0.627782 0.155606 0.0175559)
(-0.610414 0.135358 0.00302298)
(-0.558471 0.124599 -0.0137686)
(-0.470196 0.130459 -0.0298234)
(-0.353141 0.156555 -0.0416702)
(-0.225516 0.196322 -0.0454877)
(-0.112708 0.228136 -0.0397115)
(-0.0329127 0.222784 -0.0260604)
(-0.00113015 0.139474 -0.00839987)
(0.0128311 0.193151 -0.0251777)
(0.076935 0.352011 -0.0565064)
(0.16768 0.429114 -0.0546696)
(0.23017 0.474476 -0.0361153)
(0.261455 0.508572 -0.0182595)
(0.270889 0.537675 -0.00543159)
(0.267752 0.561531 0.00349802)
(0.256537 0.577388 0.0100135)
(0.238876 0.583424 0.0160023)
(0.216041 0.578229 0.0217402)
(0.188136 0.561095 0.0271486)
(0.155266 0.532366 0.031551)
(0.118111 0.494149 0.0340685)
(0.0781613 0.450481 0.0340876)
(0.03735 0.406482 0.0317564)
(-0.0026892 0.366885 0.0280314)
(-0.0413746 0.334465 0.0241033)
(-0.0789928 0.309788 0.020976)
(-0.115896 0.291433 0.0191169)
(-0.152172 0.277222 0.0185148)
(-0.187763 0.265231 0.0189284)
(-0.22277 0.254247 0.0201087)
(-0.257661 0.243698 0.0219012)
(-0.293281 0.233363 0.0242455)
(-0.330722 0.223088 0.02711)
(-0.371088 0.212573 0.0303897)
(-0.415145 0.201259 0.0337901)
(-0.462863 0.188273 0.0367315)
(-0.512827 0.172525 0.0383096)
(-0.561514 0.153037 0.0372396)
(-0.602727 0.129559 0.032228)
(-0.627635 0.103509 0.0223003)
(-0.625841 0.0790601 0.00739703)
(-0.588013 0.063899 -0.0109214)
(-0.509014 0.0666369 -0.0287708)
(-0.39154 0.0962684 -0.0426707)
(-0.254069 0.150459 -0.0483361)
(-0.127011 0.205489 -0.0428311)
(-0.0370922 0.220569 -0.0280616)
(-0.00169471 0.145829 -0.00973367)
(0.0130205 0.213379 -0.022262)
(0.0814655 0.391742 -0.0539014)
(0.180747 0.472843 -0.0529368)
(0.251408 0.512409 -0.0333907)
(0.288069 0.536141 -0.0140099)
(0.299789 0.553524 -0.000193489)
(0.296461 0.566065 0.00850726)
(0.283835 0.571417 0.014535)
(0.264546 0.56825 0.019589)
(0.239684 0.555041 0.0242114)
(0.209278 0.531159 0.02831)
(0.173554 0.497398 0.0312033)
(0.133635 0.45646 0.0320757)
(0.0916153 0.41274 0.0306299)
(0.0498494 0.371133 0.0274079)
(0.00992417 0.335437 0.0235833)
(-0.0277872 0.307076 0.0203072)
(-0.0636671 0.285207 0.0182274)
(-0.098071 0.267618 0.0174215)
(-0.131077 0.252146 0.0175904)
(-0.162766 0.237455 0.0183892)
(-0.193479 0.223077 0.0196133)
(-0.223936 0.209031 0.0212285)
(-0.255193 0.195459 0.0233134)
(-0.288533 0.182389 0.025976)
(-0.325301 0.169615 0.0292546)
(-0.366674 0.156618 0.0330068)
(-0.413296 0.1425 0.0367824)
(-0.464667 0.125994 0.0396623)
(-0.518323 0.105709 0.0403151)
(-0.568983 0.0806521 0.0371135)
(-0.608005 0.0513535 0.0285734)
(-0.62366 0.0213302 0.0140359)
(-0.604042 -0.00173884 -0.00564498)
(-0.540333 -0.00562921 -0.0264601)
(-0.430391 0.0214723 -0.0430104)
(-0.287297 0.0860882 -0.051036)
(-0.145064 0.167018 -0.0465994)
(-0.041776 0.210262 -0.030605)
(-0.00188487 0.15084 -0.0111103)
(0.0126288 0.225829 -0.0186255)
(0.0836451 0.420275 -0.0497407)
(0.189515 0.505786 -0.0500035)
(0.267414 0.540513 -0.0306523)
(0.309267 0.554672 -0.0102596)
(0.323315 0.561011 0.00438316)
(0.319851 0.562972 0.012765)
(0.305781 0.559443 0.0181296)
(0.284886 0.54885 0.0222171)
(0.258222 0.529649 0.0257338)
(0.225778 0.50129 0.0286065)
(0.187975 0.464871 0.0301992)
(0.14636 0.423399 0.029875)
(0.103498 0.381212 0.0275858)
(0.061952 0.342579 0.0241535)
(0.0231318 0.310195 0.0207673)
(-0.0128273 0.284298 0.0183519)
(-0.0464069 0.263159 0.0171777)
(-0.0779931 0.244476 0.0170171)
(-0.107724 0.226613 0.0174418)
(-0.135798 0.20897 0.0181442)
(-0.162683 0.191638 0.0190365)
(-0.189169 0.174916 0.0202056)
(-0.216325 0.159007 0.0218291)
(-0.245427 0.143909 0.0241013)
(-0.277879 0.129385 0.0271639)
(-0.315088 0.114919 0.0310162)
(-0.358205 0.0996415 0.0353797)
(-0.40763 0.0822682 0.0395231)
(-0.462218 0.0611413 0.0421658)
(-0.518191 0.0346144 0.0414974)
(-0.568081 0.00213794 0.0354911)
(-0.600688 -0.0341054 0.0225912)
(-0.601764 -0.0670543 0.00299353)
(-0.558157 -0.0824998 -0.0205672)
(-0.463447 -0.0638322 -0.0410821)
(-0.32306 0.00376671 -0.0527007)
(-0.168186 0.109334 -0.0502959)
(-0.0476729 0.188933 -0.0336398)
(-0.00146598 0.153609 -0.0121927)
(0.0117444 0.230453 -0.0147079)
(0.0835897 0.437002 -0.0446495)
(0.19403 0.527409 -0.0464042)
(0.278119 0.558925 -0.0279627)
(0.324959 0.565017 -0.00714726)
(0.34162 0.561724 0.00822116)
(0.338401 0.554208 0.0162226)
(0.32311 0.543087 0.0209184)
(0.300862 0.526651 0.0240838)
(0.272827 0.503225 0.0265751)
(0.239025 0.472269 0.0283691)
(0.200067 0.434974 0.0289352)
(0.157829 0.394332 0.0278165)
(0.115137 0.354313 0.0251999)
(0.0745654 0.318395 0.0219397)
(0.0373227 0.288237 0.0191645)
(0.00330345 0.263279 0.017479)
(-0.0280589 0.241523 0.0168646)
(-0.0571754 0.221046 0.0169167)
(-0.0842384 0.200889 0.017215)
(-0.109496 0.18102 0.01756)
(-0.133434 0.161791 0.0179805)
(-0.156804 0.1435 0.01864)
(-0.180585 0.126222 0.0197518)
(-0.205934 0.109819 0.0215315)
(-0.234165 0.093967 0.0241685)
(-0.266706 0.0781379 0.0277686)
(-0.30495 0.0615204 0.032241)
(-0.349928 0.0428893 0.0371331)
(-0.401696 0.020525 0.0414188)
(-0.458194 -0.00752776 0.0434122)
(-0.514002 -0.042868 0.04083)
(-0.559224 -0.0849406 0.0314351)
(-0.579379 -0.127973 0.0140479)
(-0.558278 -0.158368 -0.00999401)
(-0.484034 -0.153939 -0.0348717)
(-0.355547 -0.0931349 -0.0512291)
(-0.195011 0.0302332 -0.0527281)
(-0.0551346 0.152653 -0.0368519)
(-0.000243043 0.152363 -0.0125101)
(0.010528 0.22787 -0.0108786)
(0.0816207 0.442163 -0.0391281)
(0.194687 0.537787 -0.0424824)
(0.283918 0.567958 -0.0255023)
(0.335664 0.567937 -0.00486868)
(0.35519 0.556905 0.0108247)
(0.3526 0.54107 0.0187353)
(0.336631 0.523503 0.0229638)
(0.313461 0.502531 0.025354)
(0.284595 0.476318 0.0269316)
(0.250182 0.444199 0.0278342)
(0.210963 0.40725 0.0276531)
(0.168992 0.368195 0.026083)
(0.127166 0.330425 0.0234282)
(0.0879266 0.296642 0.0205436)
(0.0522751 0.267736 0.0183106)
(0.0199606 0.242767 0.0171032)
(-0.00964257 0.219927 0.0167089)
(-0.0369493 0.197858 0.0166777)
(-0.0621539 0.176163 0.016672)
(-0.085495 0.155106 0.01661)
(-0.107422 0.135047 0.0166002)
(-0.128607 0.116124 0.016829)
(-0.1499 0.0982245 0.0174942)
(-0.172298 0.0810577 0.0187859)
(-0.196952 0.0642094 0.0208904)
(-0.225164 0.0471308 0.023967)
(-0.258349 0.0290468 0.0280753)
(-0.297858 0.00881082 0.0330288)
(-0.344468 -0.0152283 0.0381757)
(-0.397665 -0.0451988 0.042121)
(-0.454227 -0.0832974 0.0427797)
(-0.50647 -0.130289 0.0375734)
(-0.541266 -0.182723 0.024307)
(-0.541235 -0.228729 0.0026379)
(-0.489773 -0.244224 -0.0237314)
(-0.379004 -0.198818 -0.0449773)
(-0.221603 -0.0698381 -0.0519459)
(-0.0637511 0.0966749 -0.0392525)
(0.00169848 0.14404 -0.0116091)
(0.00914254 0.219096 -0.00737138)
(0.0781363 0.436587 -0.0335552)
(0.192005 0.537463 -0.0384933)
(0.28536 0.568136 -0.023443)
(0.342019 0.564047 -0.00353653)
(0.364623 0.546624 0.0119727)
(0.363095 0.524275 0.0202223)
(0.347168 0.501458 0.0242965)
(0.323611 0.477012 0.0261194)
(0.29447 0.44909 0.026963)
(0.260134 0.416818 0.0271685)
(0.22142 0.380993 0.0264804)
(0.18038 0.343886 0.0247142)
(0.139814 0.308249 0.0221892)
(0.10197 0.276082 0.0196845)
(0.0676807 0.24783 0.0178575)
(0.0366323 0.222529 0.0168903)
(0.00821204 0.198778 0.0164897)
(-0.0179602 0.17575 0.0162414)
(-0.0420428 0.153405 0.0159169)
(-0.0642308 0.132063 0.0155234)
(-0.0849178 0.111945 0.0152058)
(-0.104691 0.0929881 0.015136)
(-0.124278 0.0749125 0.0154704)
(-0.144523 0.0573144 0.0163536)
(-0.166394 0.0397184 0.0179398)
(-0.19101 0.0215535 0.0203933)
(-0.21966 0.00206278 0.0238555)
(-0.253722 -0.0198477 0.0283312)
(-0.294451 -0.045782 0.0334872)
(-0.342372 -0.077997 0.0384181)
(-0.396081 -0.119021 0.0414169)
(-0.450457 -0.170714 0.0400153)
(-0.494739 -0.231748 0.0315493)
(-0.512048 -0.292971 0.0144057)
(-0.482554 -0.331255 -0.0099453)
(-0.391783 -0.308088 -0.0344132)
(-0.244169 -0.186825 -0.0465541)
(-0.0732107 0.016804 -0.0390333)
(0.00379027 0.124562 -0.00891043)
(0.00772718 0.205337 -0.0043433)
(0.0735627 0.421508 -0.0282494)
(0.186572 0.527281 -0.0346164)
(0.282994 0.560122 -0.0218121)
(0.344351 0.553997 -0.00300652)
(0.370567 0.53184 0.012281)
(0.370861 0.504519 0.0208873)
(0.355576 0.477518 0.0249953)
(0.33213 0.450409 0.026467)
(0.303214 0.421506 0.0267754)
(0.269527 0.38973 0.0264721)
(0.23191 0.355485 0.0254659)
(0.192269 0.320483 0.023663)
(0.153165 0.286844 0.0213625)
(0.116628 0.256016 0.0191816)
(0.0833895 0.228232 0.0176128)
(0.053161 0.202722 0.0167197)
(0.0254043 0.17854 0.0162034)
(-0.000183338 0.155258 0.0157246)
(-0.023702 0.132988 0.0151466)
(-0.0452969 0.111965 0.0145318)
(-0.0653027 0.0922234 0.0140276)
(-0.0842333 0.07353 0.0137758)
(-0.102719 0.0554878 0.0138869)
(-0.121478 0.037632 0.0144583)
(-0.141314 0.0194645 0.0156009)
(-0.163152 0.000401531 0.0174566)
(-0.188084 -0.0203107 0.0201842)
(-0.217398 -0.0437592 0.0238966)
(-0.2525 -0.0715617 0.0285248)
(-0.294552 -0.105996 0.0335803)
(-0.343588 -0.149936 0.0378682)
(-0.396837 -0.206145 0.0393262)
(-0.446316 -0.275183 0.0352791)
(-0.476856 -0.350883 0.023351)
(-0.467256 -0.412739 0.0031447)
(-0.396982 -0.418881 -0.0212037)
(-0.262195 -0.316029 -0.0377133)
(-0.0845977 -0.0880189 -0.0354645)
(0.00476533 0.0907357 -0.00379652)
(0.00638618 0.18784 -0.00187692)
(0.0682973 0.398427 -0.0234408)
(0.178977 0.508291 -0.030988)
(0.277416 0.544668 -0.0205851)
(0.3432 0.538494 -0.00316075)
(0.373557 0.513461 0.0118748)
(0.376503 0.482458 0.0208316)
(0.36252 0.452132 0.0251271)
(0.339678 0.422932 0.0264648)
(0.311415 0.393477 0.0264392)
(0.278816 0.36254 0.0257994)
(0.242726 0.330096 0.0246226)
(0.204803 0.297266 0.022884)
(0.167275 0.265567 0.0208266)
(0.131939 0.236038 0.0189137)
(0.099486 0.208843 0.0175004)
(0.0697242 0.183483 0.0165948)
(0.0422456 0.159413 0.0159364)
(0.0168491 0.136461 0.0152699)
(-0.00649999 0.114754 0.0145219)
(-0.0278959 0.0943861 0.013779)
(-0.047622 0.0752217 0.0131726)
(-0.0661345 0.0569061 0.0128133)
(-0.0839928 0.0389797 0.0127751)
(-0.101814 0.0209543 0.0131165)
(-0.120275 0.00234883 0.0139027)
(-0.140129 -0.0174309 0.0152415)
(-0.162254 -0.0391375 0.0172752)
(-0.187756 -0.0638676 0.0201626)
(-0.218 -0.0932538 0.0239972)
(-0.254502 -0.129669 0.0286291)
(-0.298348 -0.176292 0.0333786)
(-0.34877 -0.236698 0.0367372)
(-0.400583 -0.313204 0.0363202)
(-0.441042 -0.402687 0.0293869)
(-0.448894 -0.488246 0.0141281)
(-0.398778 -0.527816 -0.00791591)
(-0.278395 -0.452549 -0.0275992)
(-0.0998521 -0.214763 -0.0286054)
(0.00310042 0.0416634 0.0020372)
(0.00518898 0.167809 1.36101e-05)
(0.0626741 0.368996 -0.0192607)
(0.169753 0.481708 -0.0276968)
(0.269185 0.522593 -0.0197205)
(0.33906 0.518153 -0.00389522)
(0.373999 0.492001 0.0108139)
(0.38041 0.458563 0.0201043)
(0.368451 0.425655 0.024732)
(0.346741 0.394751 0.0261525)
(0.31951 0.364935 0.0259934)
(0.288322 0.334933 0.0251738)
(0.254052 0.304328 0.0239373)
(0.21807 0.273674 0.0223202)
(0.182218 0.243942 0.0205025)
(0.148044 0.215841 0.0188141)
(0.116228 0.189527 0.0175037)
(0.0867191 0.164756 0.0165607)
(0.0592737 0.141281 0.0157813)
(0.033807 0.119078 0.0149833)
(0.0103503 0.098224 0.014136)
(-0.0111416 0.0786763 0.0133277)
(-0.0309057 0.0601668 0.0126656)
(-0.0493517 0.0422689 0.0122374)
(-0.0669907 0.024503 0.0120911)
(-0.0843541 0.00639562 0.012261)
(-0.102029 -0.012561 0.0127633)
(-0.120631 -0.0328956 0.0136806)
(-0.140827 -0.05536 0.0151192)
(-0.163506 -0.0810604 0.0172384)
(-0.1899 -0.111672 0.0202232)
(-0.221666 -0.149691 0.0241811)
(-0.260639 -0.198619 0.0289029)
(-0.307722 -0.262819 0.0334866)
(-0.360317 -0.346275 0.0360103)
(-0.408365 -0.448836 0.0335915)
(-0.431374 -0.557529 0.0231762)
(-0.400796 -0.631822 0.00386737)
(-0.296086 -0.592466 -0.0177188)
(-0.120734 -0.358141 -0.021236)
(-0.00243751 -0.0223972 0.00560836)
(0.00417423 0.146359 0.00137315)
(0.0569437 0.334924 -0.0157614)
(0.15935 0.448876 -0.0247909)
(0.258771 0.49476 -0.0191579)
(0.332285 0.493548 -0.00508909)
(0.372147 0.467931 0.00919784)
(0.382804 0.433209 0.0187555)
(0.373627 0.398367 0.023834)
(0.353626 0.366024 0.0255439)
(0.327798 0.335858 0.0254491)
(0.298263 0.306693 0.024595)
(0.266006 0.277813 0.0233829)
(0.232128 0.249273 0.0219181)
(0.198072 0.221562 0.0203317)
(0.165123 0.195099 0.0188437)
(0.133941 0.170019 0.0176222)
(0.104621 0.146261 0.0166548)
(0.077095 0.123775 0.0157959)
(0.051398 0.102607 0.0149217)
(0.0276333 0.0827751 0.0140226)
(0.00580249 0.0641262 0.0131866)
(-0.0142837 0.0463093 0.0124917)
(-0.032985 0.0288599 0.0120116)
(-0.0507632 0.0112965 0.0117754)
(-0.0681421 -0.00683398 0.0117884)
(-0.0855964 -0.0260084 0.0120807)
(-0.10359 -0.0467248 0.0126651)
(-0.122662 -0.0697124 0.013618)
(-0.143487 -0.0960784 0.0150812)
(-0.167109 -0.127543 0.0172868)
(-0.195207 -0.166743 0.0205383)
(-0.230153 -0.217558 0.0250503)
(-0.274237 -0.285189 0.0305449)
(-0.327177 -0.375306 0.0356612)
(-0.381512 -0.490626 0.0374916)
(-0.417953 -0.622007 0.0318086)
(-0.405904 -0.731335 0.0154288)
(-0.317125 -0.73312 -0.00730731)
(-0.148185 -0.511518 -0.0158412)
(-0.0130535 -0.0993799 0.00482981)
(0.00334632 0.124522 0.00228043)
(0.0512716 0.297909 -0.0129265)
(0.148108 0.411231 -0.022279)
(0.246541 0.462082 -0.0188276)
(0.323166 0.465236 -0.00663948)
(0.368064 0.441603 0.00701048)
(0.383625 0.406609 0.0167908)
(0.378058 0.370451 0.0224386)
(0.36045 0.336882 0.0246294)
(0.336443 0.306281 0.0247898)
(0.308778 0.277717 0.0240409)
(0.278662 0.250315 0.022926)
(0.24701 0.22374 0.0216312)
(0.214898 0.198064 0.0202652)
(0.18333 0.173438 0.0189675)
(0.152913 0.149929 0.0178435)
(0.123862 0.127556 0.016884)
(0.0962642 0.106374 0.0159918)
(0.0702693 0.08645 0.0150879)
(0.0460532 0.0677511 0.0141761)
(0.0236764 0.0500568 0.0133257)
(0.00300328 0.0329754 0.0126136)
(-0.0162782 0.0160295 0.0120888)
(-0.0345886 -0.00125439 0.0117737)
(-0.0523866 -0.0193124 0.0116684)
(-0.0700975 -0.0385399 0.0117714)
(-0.0881065 -0.0594447 0.012086)
(-0.106803 -0.0827181 0.0126539)
(-0.126683 -0.109452 0.0135913)
(-0.14861 -0.141401 0.0151546)
(-0.17423 -0.18136 0.0178064)
(-0.206322 -0.233645 0.0221558)
(-0.248373 -0.304457 0.0285609)
(-0.302141 -0.401352 0.0362797)
(-0.362448 -0.529914 0.0424279)
(-0.410974 -0.684269 0.0415681)
(-0.415372 -0.828029 0.0280226)
(-0.341402 -0.870904 0.00327917)
(-0.180991 -0.669781 -0.0126771)