/*--------------------------------*- C++ -*----------------------------------*\
| =========                 |                                                 |
| \\      /  F ield         | OpenFOAM: The Open Source CFD Toolbox           |
|  \\    /   O peration     | Version:  v1806                                 |
|   \\  /    A nd           | Web:      www.OpenFOAM.com                      |
|    \\/     M anipulation  |                                                 |
\*---------------------------------------------------------------------------*/
FoamFile
{
    version     2.0;
    format      ascii;
    class       volVectorField;
    location    "0.0255";
    object      U_0;
}
// * * * * * * * * * * * * * * * * * * * * * * * * * * * * * * * * * * * * * //

dimensions      [0 1 -1 0 0 0 0];


internalField   nonuniform List<vector> 
64000
(
(-0.00388334 -0.00636658 -0.00117838)
(0.0125679 -0.00779025 -0.000560706)
(0.0269069 -0.00511985 0.00226694)
(0.0351227 -0.00482765 0.00282912)
(0.0287356 -0.0035102 0.00350848)
(0.0210025 -0.00214515 0.00480387)
(0.0197466 -0.00265293 0.00468156)
(0.0159017 -0.00325509 0.00448189)
(0.0129113 -0.00500565 0.00542328)
(0.0076635 -0.00572185 0.00488284)
(-0.00191059 -0.00945822 0.00562744)
(-0.0204506 -0.010992 0.00682048)
(-0.0432181 -0.0132628 0.00588773)
(-0.0720428 -0.0138792 0.00435547)
(-0.106854 -0.0110457 0.00508428)
(-0.143429 -0.00244143 0.00389058)
(-0.185128 0.00668285 0.0038183)
(-0.221325 0.00118582 0.00576576)
(-0.260639 -0.0092521 0.00473714)
(-0.273644 -0.0183454 -0.00610826)
(-0.298279 -0.0381156 -0.0414904)
(-0.182729 -0.0221358 -0.0347768)
(-0.0815864 -0.0234112 -0.0373353)
(-0.0978416 -0.00699929 -0.0370731)
(-0.0793661 -0.00195394 -0.0504905)
(-0.082248 0.00839609 -0.0586746)
(-0.0634619 0.0176987 -0.0652662)
(-0.0397597 0.0295456 -0.0605765)
(-0.00676953 0.0400562 -0.0492248)
(0.0376167 0.0542973 -0.0302929)
(0.0827303 0.0415206 -0.0313465)
(0.116215 0.0348671 -0.021237)
(0.130074 0.0233285 -0.00910465)
(0.12571 0.0100496 -0.00203239)
(0.107782 0.00196935 0.00338609)
(0.0838672 -0.00496391 0.00538241)
(0.0598596 -0.00797838 0.0075263)
(0.0380794 -0.00661946 0.00834404)
(0.0195447 -0.00499649 0.00852486)
(0.00440687 -0.00380615 0.00722506)
(-0.00262249 -0.00875193 0.000315314)
(0.0137312 -0.0188263 -0.000173674)
(0.0368506 -0.0159035 0.000675892)
(0.0509586 -0.0123704 0.000779734)
(0.0493456 -0.0063194 0.000983969)
(0.0410877 -0.00230027 -3.44862e-05)
(0.0371684 0.000549933 -0.00181862)
(0.0288517 0.00356045 -0.00170873)
(0.019579 0.00724637 -0.0064296)
(0.00254882 0.0187271 -0.00337782)
(-0.0221764 0.0271043 -0.0068283)
(-0.0589371 0.038934 0.000640013)
(-0.1061 0.0523883 -0.00245174)
(-0.160786 0.0711226 -0.00504235)
(-0.222245 0.0789239 -0.00816956)
(-0.292275 0.0853605 -0.0208008)
(-0.389611 0.0908437 -0.0411582)
(-0.485031 0.0962742 -0.0551907)
(-0.563395 0.0996218 -0.0726061)
(-0.614803 0.108036 -0.0938224)
(-0.633872 0.105735 -0.119469)
(-0.501616 0.142145 -0.12717)
(-0.390174 0.162398 -0.149493)
(-0.384443 0.203851 -0.154224)
(-0.345874 0.225573 -0.164199)
(-0.311984 0.249591 -0.170764)
(-0.253137 0.267277 -0.173204)
(-0.185745 0.282058 -0.164751)
(-0.106094 0.292451 -0.142182)
(-0.0416277 0.296744 -0.116659)
(0.0237455 0.282692 -0.0752322)
(0.0932117 0.251688 -0.0496295)
(0.125875 0.200242 -0.0389365)
(0.13913 0.153266 -0.027789)
(0.13086 0.10624 -0.0139521)
(0.107766 0.0678938 -0.00614228)
(0.0844638 0.0410192 -0.00140471)
(0.0597266 0.0258517 0.000125632)
(0.0347774 0.0161754 0.00188019)
(0.0103791 0.0063401 0.00388497)
(-3.55317e-05 -0.01876 0.00216434)
(0.0179305 -0.0287746 -0.000641935)
(0.0437669 -0.02325 -0.000888002)
(0.0598261 -0.0124997 0.000411916)
(0.0556573 -0.000764424 -0.00230457)
(0.0428765 0.0181551 -0.00264367)
(0.0345762 0.0308282 -0.00386774)
(0.0200533 0.0480657 -0.007171)
(0.00763722 0.07457 -0.000397241)
(-0.0181506 0.100111 -0.00443208)
(-0.0609081 0.125255 -0.00857591)
(-0.116242 0.152304 -0.0125578)
(-0.181193 0.176643 -0.0177427)
(-0.270521 0.196687 -0.0292548)
(-0.37455 0.216314 -0.0333647)
(-0.469317 0.229063 -0.0447748)
(-0.563184 0.241338 -0.0572573)
(-0.644686 0.26796 -0.070813)
(-0.713983 0.296434 -0.0870061)
(-0.754234 0.331505 -0.105642)
(-0.7564 0.361382 -0.122559)
(-0.60289 0.395701 -0.120286)
(-0.468358 0.434063 -0.133053)
(-0.448419 0.477021 -0.126493)
(-0.40428 0.504472 -0.125825)
(-0.366073 0.525744 -0.123792)
(-0.308528 0.535581 -0.120025)
(-0.243716 0.534237 -0.11006)
(-0.17364 0.523445 -0.0906749)
(-0.106458 0.498686 -0.067251)
(-0.0511574 0.478791 -0.0443413)
(-0.0127855 0.433568 -0.0266685)
(0.0227817 0.372965 -0.0110308)
(0.0505764 0.302926 -0.00614921)
(0.0563209 0.230474 -0.00938123)
(0.0559281 0.16825 -0.00880709)
(0.051462 0.117245 -0.00678964)
(0.0421251 0.0789715 -0.00394269)
(0.0286794 0.0514982 -0.000364656)
(0.00967435 0.0220421 0.00349285)
(0.000137366 -0.0261389 0.00149843)
(0.0207573 -0.0341353 -0.00235098)
(0.0500231 -0.0216592 -0.00212287)
(0.0637377 -0.0016564 -0.00217894)
(0.0637532 0.0203422 -0.00489557)
(0.0471369 0.0600209 -0.00685368)
(0.0274535 0.0955303 -0.00659306)
(0.0130048 0.131204 -0.00316083)
(-0.0141219 0.166128 -0.00848507)
(-0.0639727 0.19081 -0.0111218)
(-0.122028 0.216956 -0.0149436)
(-0.195002 0.242687 -0.0217891)
(-0.281842 0.274364 -0.0255118)
(-0.367258 0.294035 -0.0269633)
(-0.452983 0.328038 -0.0322923)
(-0.537675 0.361103 -0.0415983)
(-0.618303 0.395428 -0.0490429)
(-0.685834 0.431115 -0.0545572)
(-0.73776 0.465459 -0.0604701)
(-0.764377 0.506043 -0.0670641)
(-0.754377 0.53667 -0.0674281)
(-0.5845 0.561528 -0.0488292)
(-0.436724 0.588232 -0.0509509)
(-0.414606 0.609494 -0.0348557)
(-0.376984 0.618382 -0.0268269)
(-0.348414 0.618931 -0.020691)
(-0.305644 0.607348 -0.0171223)
(-0.258328 0.584709 -0.0128362)
(-0.20631 0.556219 -0.00285184)
(-0.157042 0.518763 0.00481144)
(-0.116401 0.476734 0.0102843)
(-0.0850949 0.432635 0.0117805)
(-0.0667421 0.388901 0.0088603)
(-0.0480094 0.335556 0.00334544)
(-0.0286616 0.274784 -0.00131016)
(-0.0134425 0.212293 -0.00636294)
(-5.13177e-05 0.148535 -0.00750245)
(0.0112222 0.108453 -0.00633557)
(0.0169479 0.0747418 -0.00218072)
(0.00792387 0.0301895 0.00297592)
(0.00133102 -0.0305627 0.000774165)
(0.0264522 -0.0310225 -0.00402184)
(0.0597121 -0.0116504 -0.00095353)
(0.0728076 0.0175431 -0.00325101)
(0.0763203 0.0531539 -0.00278125)
(0.0624409 0.102779 -0.014021)
(0.0312135 0.147893 -0.00615313)
(-0.00693752 0.193361 -0.00385112)
(-0.0553234 0.225478 -0.00580628)
(-0.113754 0.258069 -0.00951619)
(-0.174796 0.293098 -0.0132517)
(-0.235887 0.325442 -0.0163624)
(-0.308512 0.364582 -0.0210022)
(-0.386718 0.40408 -0.0189907)
(-0.459841 0.445715 -0.0205422)
(-0.52979 0.482866 -0.0209576)
(-0.592078 0.519214 -0.0180021)
(-0.642415 0.557138 -0.0125806)
(-0.67691 0.593967 -0.00722945)
(-0.691972 0.633303 -0.0110425)
(-0.680542 0.660558 -0.00874939)
(-0.508831 0.67503 0.0149609)
(-0.361386 0.67675 0.0161688)
(-0.344714 0.669761 0.0343349)
(-0.319554 0.64932 0.0386222)
(-0.310112 0.624056 0.0438764)
(-0.290141 0.590175 0.0464926)
(-0.262765 0.550079 0.0463104)
(-0.23294 0.507846 0.0420934)
(-0.205845 0.464028 0.0349677)
(-0.181009 0.418671 0.0257318)
(-0.160887 0.373121 0.0183302)
(-0.140366 0.332997 0.0129583)
(-0.123448 0.295086 0.00482892)
(-0.11211 0.256057 -0.00378286)
(-0.0972893 0.205302 -0.00986667)
(-0.0604133 0.153156 -0.00969093)
(-0.0169899 0.121613 -0.00831685)
(0.00398823 0.0892892 -0.00337818)
(0.00481564 0.0344106 0.00330543)
(0.00408079 -0.0339325 0.000704362)
(0.0330155 -0.0263896 -0.00427129)
(0.0684136 0.00397112 -0.00460644)
(0.0829193 0.0419982 -0.00454375)
(0.0885033 0.089551 -0.00599098)
(0.0648327 0.141315 -0.0111542)
(0.0227623 0.17776 0.00211393)
(-0.0221607 0.228223 -0.000543826)
(-0.0755467 0.272593 -0.0036848)
(-0.128923 0.321018 -0.00719239)
(-0.184587 0.368147 -0.00924425)
(-0.241538 0.411212 -0.0094636)
(-0.300463 0.44807 -0.00689231)
(-0.355804 0.485505 -0.00199497)
(-0.412029 0.522104 -0.00144012)
(-0.468057 0.559341 0.00138049)
(-0.514054 0.598591 0.00592184)
(-0.548823 0.641847 0.0118288)
(-0.572807 0.677405 0.0145145)
(-0.585389 0.708597 0.013082)
(-0.576145 0.727624 0.0197353)
(-0.418399 0.727028 0.0449542)
(-0.286693 0.674781 0.0459421)
(-0.285728 0.633689 0.0626144)
(-0.280276 0.587346 0.0696167)
(-0.2876 0.543403 0.0717798)
(-0.287057 0.498453 0.0689698)
(-0.280191 0.452948 0.0650449)
(-0.265833 0.405644 0.0611146)
(-0.252507 0.36427 0.0481084)
(-0.24263 0.324891 0.0358984)
(-0.227941 0.289815 0.0218555)
(-0.213261 0.26054 0.0101568)
(-0.19236 0.230805 0.00464017)
(-0.173705 0.206064 -0.00454022)
(-0.152469 0.182436 -0.0120526)
(-0.0969348 0.153956 -0.0119676)
(-0.0360251 0.128039 -0.00978133)
(-0.00230077 0.0953509 -0.00566025)
(0.00393453 0.0356441 0.00325271)
(0.00466622 -0.0297114 -0.00102148)
(0.0420189 -0.0087325 -0.00586474)
(0.0840746 0.0268037 -0.00978842)
(0.0993819 0.0742498 -0.00709976)
(0.102326 0.128638 -0.0103847)
(0.0634727 0.17378 -0.00496465)
(0.0192396 0.219148 0.00437001)
(-0.0173541 0.270091 -0.000277531)
(-0.0664772 0.327899 -0.00146409)
(-0.112488 0.381075 -0.00334294)
(-0.16073 0.431534 -0.00327174)
(-0.206846 0.474389 -0.00163402)
(-0.25466 0.511332 0.00178013)
(-0.299654 0.546229 0.00737294)
(-0.338749 0.574737 0.0099005)
(-0.372959 0.604228 0.0170623)
(-0.398288 0.632278 0.023584)
(-0.425396 0.665239 0.0252134)
(-0.451712 0.689294 0.0284729)
(-0.465844 0.707378 0.0262722)
(-0.471009 0.716483 0.030093)
(-0.371094 0.710645 0.0500752)
(-0.271404 0.62269 0.0485201)
(-0.261531 0.552894 0.0568529)
(-0.264763 0.496202 0.0605746)
(-0.284893 0.451331 0.0611235)
(-0.299476 0.409709 0.0582854)
(-0.308275 0.371098 0.0541799)
(-0.306673 0.33118 0.046274)
(-0.30183 0.296045 0.035205)
(-0.296841 0.263209 0.0219128)
(-0.285952 0.236394 0.0121744)
(-0.271604 0.216508 0.0014903)
(-0.251175 0.204455 -0.00322082)
(-0.223334 0.190987 -0.00815725)
(-0.191946 0.181534 -0.0177363)
(-0.130506 0.164535 -0.0185007)
(-0.0556287 0.139877 -0.0141969)
(-0.00811959 0.104183 -0.00750557)
(0.0049385 0.0390905 0.00231905)
(0.00768339 -0.0239431 -0.000264233)
(0.0462613 0.0164138 -0.0150412)
(0.0945421 0.0590379 -0.0148663)
(0.117471 0.111892 -0.0114122)
(0.110521 0.162652 -0.0123108)
(0.0700784 0.205722 -0.0033397)
(0.0309361 0.265069 0.00196585)
(0.00340267 0.31565 0.00353284)
(-0.0346879 0.370503 0.00202015)
(-0.0756389 0.423853 0.00270605)
(-0.115953 0.467568 0.00451399)
(-0.156089 0.502228 0.00959705)
(-0.190265 0.532919 0.016041)
(-0.221119 0.558644 0.0195092)
(-0.250994 0.576761 0.024135)
(-0.278494 0.589006 0.0281054)
(-0.296766 0.594889 0.0319781)
(-0.317528 0.60274 0.028629)
(-0.345659 0.608223 0.0253565)
(-0.368304 0.609497 0.0215828)
(-0.384629 0.610419 0.0246184)
(-0.337282 0.615562 0.0373285)
(-0.2858 0.545246 0.0354608)
(-0.277074 0.472928 0.0366587)
(-0.276943 0.408198 0.0371661)
(-0.29958 0.369419 0.0387894)
(-0.321579 0.336946 0.0394479)
(-0.339261 0.304949 0.0385894)
(-0.344949 0.271989 0.0335624)
(-0.346034 0.239713 0.0176459)
(-0.346698 0.208477 0.0125275)
(-0.334796 0.182832 0.00239583)
(-0.317262 0.16879 -0.00350913)
(-0.294348 0.164372 -0.00792647)
(-0.266194 0.169973 -0.0130889)
(-0.228611 0.176017 -0.0185323)
(-0.157941 0.170706 -0.0223823)
(-0.0742062 0.14909 -0.0171916)
(-0.0128692 0.112932 -0.00928624)
(0.00586343 0.0416288 0.00198448)
(0.0103065 -0.00911141 -0.00243356)
(0.0568296 0.046631 -0.0222758)
(0.112387 0.100034 -0.0231055)
(0.133535 0.149497 -0.0155537)
(0.122905 0.193585 -0.0138049)
(0.0918194 0.24335 -0.00549904)
(0.0604047 0.303277 0.0019437)
(0.0321495 0.357728 0.0063916)
(0.00584751 0.401367 0.0108952)
(-0.0266757 0.441041 0.0117166)
(-0.0653629 0.475846 0.0146289)
(-0.0939396 0.502735 0.0220423)
(-0.119984 0.522272 0.0265427)
(-0.147602 0.530665 0.0290421)
(-0.173147 0.530402 0.0306254)
(-0.19808 0.521809 0.0305763)
(-0.214458 0.50946 0.0293522)
(-0.23689 0.501132 0.0205687)
(-0.271933 0.48701 0.0145452)
(-0.298901 0.485599 0.0136329)
(-0.314358 0.498543 0.018806)
(-0.306067 0.516356 0.0254457)
(-0.306433 0.478174 0.0229779)
(-0.316162 0.419304 0.0201042)
(-0.310199 0.348226 0.0164036)
(-0.319393 0.310371 0.0186992)
(-0.344639 0.285 0.0227297)
(-0.368831 0.257586 0.0260146)
(-0.381307 0.228904 0.0214328)
(-0.388325 0.19347 0.0106196)
(-0.390855 0.166301 0.00069416)
(-0.378028 0.145649 -0.00385131)
(-0.356907 0.130748 -0.0112144)
(-0.326771 0.132345 -0.0161952)
(-0.287511 0.139755 -0.0168946)
(-0.250191 0.162189 -0.0213896)
(-0.183862 0.170402 -0.0243701)
(-0.0923812 0.159086 -0.0221472)
(-0.018372 0.122883 -0.0113815)
(0.00644272 0.0467451 0.000971722)
(0.00804772 0.0113711 -0.00905609)
(0.0593956 0.0881661 -0.0304984)
(0.122698 0.143828 -0.0290738)
(0.144842 0.187342 -0.0193232)
(0.141601 0.230431 -0.0178629)
(0.122271 0.27919 -0.0078398)
(0.0990093 0.333908 -0.00243335)
(0.0726024 0.381332 0.0106536)
(0.041889 0.419489 0.0193557)
(0.0182597 0.445783 0.0243475)
(-0.00638875 0.466761 0.0266036)
(-0.0335047 0.479073 0.0330878)
(-0.0584247 0.483698 0.0365273)
(-0.08437 0.476938 0.0357375)
(-0.112465 0.460927 0.0327877)
(-0.140953 0.435867 0.0277384)
(-0.157327 0.413039 0.0215661)
(-0.186224 0.390869 0.00677836)
(-0.219958 0.373877 0.0048446)
(-0.232878 0.39202 0.00879773)
(-0.250099 0.419589 0.0147135)
(-0.275399 0.44007 0.0180077)
(-0.320796 0.428368 0.0149245)
(-0.361922 0.389611 0.0111426)
(-0.353827 0.328137 0.00696557)
(-0.340151 0.270576 0.00702676)
(-0.35851 0.247351 0.0128496)
(-0.385714 0.221636 0.0167381)
(-0.406791 0.193179 0.0167474)
(-0.416376 0.161267 0.00770846)
(-0.416236 0.13091 0.0125947)
(-0.410066 0.10869 0.0164438)
(-0.390036 0.0922214 0.0159446)
(-0.361656 0.0907499 0.00872443)
(-0.31973 0.10483 -0.0116694)
(-0.269668 0.129662 -0.0206496)
(-0.199647 0.163285 -0.0235109)
(-0.10678 0.159097 -0.021608)
(-0.0245141 0.131141 -0.0124946)
(0.00703702 0.0497653 0.00122406)
(0.00880832 0.0268162 -0.0113544)
(0.0637551 0.127886 -0.0356921)
(0.131631 0.187189 -0.0342125)
(0.160901 0.228159 -0.0222797)
(0.16576 0.26981 -0.0172604)
(0.156371 0.311692 -0.0103307)
(0.137878 0.356415 -0.00127105)
(0.112266 0.392077 0.00728647)
(0.0877686 0.420757 0.0146143)
(0.0626584 0.441782 0.0307602)
(0.0359319 0.449283 0.0379359)
(0.0173809 0.448822 0.0462804)
(-0.00411005 0.435218 0.045438)
(-0.0347371 0.414532 0.0396529)
(-0.0686643 0.390262 0.0310802)
(-0.0994621 0.358544 0.0216974)
(-0.121082 0.336708 0.00965356)
(-0.151848 0.30367 -0.00425683)
(-0.164981 0.315179 0.00169051)
(-0.167185 0.340685 0.00635715)
(-0.19842 0.362555 0.0124029)
(-0.244905 0.378609 0.0159037)
(-0.315438 0.382462 0.0119068)
(-0.380615 0.362219 0.00769859)
(-0.396116 0.327861 0.00423381)
(-0.367249 0.253283 0.00279779)
(-0.361108 0.212602 0.00438895)
(-0.392169 0.187515 0.00894606)
(-0.415881 0.161489 0.00645782)
(-0.43458 0.128837 0.0266007)
(-0.44369 0.0934772 0.0310144)
(-0.439877 0.0627738 0.0236922)
(-0.424805 0.0490166 0.0135829)
(-0.390217 0.0463784 0.00958625)
(-0.341566 0.0616017 0.00179748)
(-0.281666 0.0891405 -0.0159392)
(-0.212255 0.134889 -0.0253082)
(-0.122068 0.156007 -0.0220813)
(-0.0281573 0.135262 -0.0144966)
(0.00513312 0.0541592 0.000735718)
(0.0070816 0.046949 -0.0133121)
(0.0641694 0.169719 -0.0406612)
(0.138964 0.233301 -0.0394619)
(0.177071 0.27096 -0.0241689)
(0.191138 0.305724 -0.014086)
(0.187799 0.338823 -0.00711263)
(0.173802 0.370807 -0.00437281)
(0.150368 0.394771 0.00888472)
(0.126976 0.413182 0.0148353)
(0.105549 0.42418 0.0256653)
(0.0831191 0.426721 0.0343549)
(0.0567559 0.418194 0.051553)
(0.029684 0.394001 0.0513899)
(0.00457837 0.361573 0.043304)
(-0.0326049 0.330357 0.0266573)
(-0.0657946 0.302018 0.0133117)
(-0.0973203 0.279318 -0.00394108)
(-0.110273 0.268885 -0.004407)
(-0.103874 0.290498 -0.00106277)
(-0.121619 0.301445 0.00523421)
(-0.159043 0.310041 0.0143624)
(-0.208528 0.320397 0.0191153)
(-0.291362 0.331453 0.0129663)
(-0.368007 0.32222 0.00944999)
(-0.410298 0.304712 0.00387782)
(-0.398819 0.257165 0.00462387)
(-0.364481 0.179445 0.00447584)
(-0.377264 0.150535 0.00487519)
(-0.409998 0.122218 0.0214469)
(-0.439399 0.087982 0.0318482)
(-0.455927 0.0550144 0.0397979)
(-0.454765 0.0284947 0.0545248)
(-0.441167 0.00445668 0.0488209)
(-0.421432 -0.00343028 0.0345012)
(-0.379964 0.00955684 0.0237722)
(-0.309472 0.0471122 0.00313377)
(-0.219217 0.0899114 -0.0220539)
(-0.12558 0.14077 -0.0231307)
(-0.0342984 0.133161 -0.0149431)
(0.00617032 0.0567175 -0.000303656)
(0.00570492 0.0615603 -0.0152254)
(0.0642602 0.207273 -0.0461672)
(0.144857 0.276746 -0.0452795)
(0.191965 0.310551 -0.0259606)
(0.214352 0.335214 -0.0113771)
(0.216569 0.356255 -0.001849)
(0.203929 0.378479 0.00244167)
(0.182661 0.392008 0.00508923)
(0.165433 0.403535 0.0112306)
(0.145883 0.406567 0.0242427)
(0.12081 0.400582 0.0310755)
(0.0940908 0.384498 0.0376696)
(0.0614842 0.359668 0.0428091)
(0.0284063 0.326419 0.0386324)
(-0.00514881 0.288511 0.021068)
(-0.0387875 0.265903 0.00273496)
(-0.0583653 0.252657 -0.00802981)
(-0.0609981 0.263289 -0.00609268)
(-0.0659474 0.265788 -0.000587233)
(-0.0887632 0.262022 0.00831077)
(-0.123089 0.26082 0.0195918)
(-0.165275 0.262826 0.0252901)
(-0.250138 0.273498 0.0164488)
(-0.337007 0.274962 0.0121106)
(-0.383929 0.263998 0.00609006)
(-0.409121 0.247699 0.00427653)
(-0.379312 0.183077 0.00566311)
(-0.359232 0.11808 0.00725526)
(-0.391301 0.0873038 0.0194795)
(-0.424049 0.0471257 0.0314688)
(-0.443649 0.0166882 0.0540799)
(-0.461303 -0.0231535 0.042078)
(-0.468588 -0.0627738 0.031615)
(-0.4457 -0.085123 0.0186576)
(-0.400324 -0.074189 0.00439715)
(-0.339774 -0.0260325 0.0107138)
(-0.243455 0.0459662 -0.00155219)
(-0.132233 0.106372 -0.0303395)
(-0.0369941 0.127061 -0.0142154)
(0.00559648 0.056742 -0.0020713)
(0.00428929 0.0744057 -0.0157718)
(0.0641193 0.239411 -0.0495005)
(0.149426 0.313662 -0.0502427)
(0.202392 0.343217 -0.0300976)
(0.231077 0.358268 -0.0107123)
(0.24031 0.367802 0.00303177)
(0.232522 0.37742 0.00850542)
(0.214293 0.386882 0.0124454)
(0.198645 0.3928 0.0145355)
(0.179254 0.38968 0.017123)
(0.156211 0.377456 0.0166382)
(0.125933 0.355089 0.0256353)
(0.0902661 0.325321 0.0238188)
(0.0521243 0.29518 0.025622)
(0.0179789 0.270151 0.00956109)
(-0.00320712 0.258287 -0.00437143)
(-0.0159874 0.258682 -0.00745179)
(-0.0250896 0.25802 -0.00305554)
(-0.0393875 0.246571 0.00407371)
(-0.061589 0.232189 0.0143442)
(-0.0896706 0.220672 0.0241041)
(-0.121185 0.210755 0.0304246)
(-0.196834 0.211005 0.0219321)
(-0.287196 0.223909 0.0144975)
(-0.339378 0.216907 0.00951239)
(-0.373702 0.209413 0.00805036)
(-0.38176 0.180782 0.0139132)
(-0.355391 0.102112 0.0185354)
(-0.363085 0.0505206 0.0272948)
(-0.397205 0.012983 0.0423101)
(-0.428632 -0.0349687 0.0334197)
(-0.465364 -0.0900058 0.0293646)
(-0.478067 -0.136033 0.0202831)
(-0.46637 -0.166746 0.00876819)
(-0.422321 -0.171196 -0.00276285)
(-0.348256 -0.128202 -0.00879213)
(-0.256409 -0.033605 -0.000821707)
(-0.146796 0.062911 -0.0151028)
(-0.0384661 0.114169 -0.0183706)
(0.0044935 0.0575233 -0.00309998)
(0.00180261 0.0756339 -0.0146855)
(0.0605052 0.258848 -0.048972)
(0.149513 0.337873 -0.0505056)
(0.209758 0.364122 -0.0300934)
(0.245129 0.370873 -0.0094856)
(0.257709 0.371404 0.00497862)
(0.256919 0.372691 0.0106983)
(0.245164 0.377619 0.0137154)
(0.230968 0.379078 0.0145628)
(0.210748 0.372169 0.0147907)
(0.182806 0.35669 0.0132693)
(0.150468 0.329822 0.011368)
(0.115162 0.306798 0.00862074)
(0.0840714 0.290492 0.0109301)
(0.0598781 0.287187 -0.0012723)
(0.0397076 0.279594 -0.00652554)
(0.0200755 0.2773 -0.00494509)
(-0.00107464 0.267758 0.000719158)
(-0.0207344 0.244175 0.00940628)
(-0.0399541 0.220456 0.0182554)
(-0.0638058 0.19699 0.0244615)
(-0.0874364 0.175198 0.0306873)
(-0.142081 0.158689 0.0276891)
(-0.228936 0.173333 0.0163095)
(-0.288531 0.169188 0.0118063)
(-0.326644 0.163514 0.0116297)
(-0.359475 0.148799 0.0046778)
(-0.354165 0.108664 0.00928851)
(-0.337799 0.0237787 0.014403)
(-0.365544 -0.0251031 0.0200265)
(-0.409223 -0.0870601 0.0228142)
(-0.444831 -0.141948 0.0191543)
(-0.46883 -0.196221 0.0114858)
(-0.469062 -0.238726 -0.000287199)
(-0.433984 -0.256122 -0.0127669)
(-0.364364 -0.225488 -0.0204479)
(-0.264665 -0.139576 -0.0221366)
(-0.148846 -0.000801411 0.000123807)
(-0.0424712 0.0822557 -0.0254622)
(0.00302346 0.0556823 -0.00562536)
(0.00158705 0.0918318 -0.0101476)
(0.0585457 0.282474 -0.0471457)
(0.147525 0.364584 -0.0498029)
(0.212438 0.386981 -0.0300334)
(0.254437 0.384842 -0.00740606)
(0.275724 0.378595 0.00499801)
(0.282539 0.37305 0.00979157)
(0.274505 0.370516 0.0106265)
(0.259989 0.365595 0.00883888)
(0.238724 0.356764 0.00695861)
(0.209674 0.348338 0.00572455)
(0.181588 0.342461 0.00522196)
(0.159457 0.339118 0.00556575)
(0.136799 0.337277 0.00697817)
(0.102727 0.330677 -0.00838727)
(0.0725855 0.311712 -0.0071128)
(0.0500537 0.29565 -0.00592393)
(0.0170745 0.275556 -0.00152185)
(-0.00935125 0.250148 0.00887334)
(-0.0265545 0.218018 0.0167398)
(-0.0472082 0.187627 0.0210949)
(-0.0664258 0.158562 0.0259432)
(-0.100076 0.130044 0.0281312)
(-0.172416 0.130785 0.0181074)
(-0.23823 0.130405 0.0125757)
(-0.274703 0.121678 0.00504876)
(-0.307053 0.110161 -0.00183644)
(-0.339934 0.0909937 -0.000195296)
(-0.343727 0.0354556 0.00436314)
(-0.344259 -0.0452795 0.0047973)
(-0.376795 -0.110621 0.010619)
(-0.413547 -0.180062 0.0099601)
(-0.443581 -0.2459 0.00521504)
(-0.455367 -0.302677 -0.00505281)
(-0.431318 -0.337497 -0.0187422)
(-0.370566 -0.325066 -0.0337664)
(-0.27081 -0.24572 -0.041298)
(-0.158368 -0.0920776 -0.0260156)
(-0.0450761 0.0431429 -0.0181951)
(0.00911545 0.0515345 -0.00996551)
(-0.00762706 0.09185 -0.020583)
(0.0429913 0.293599 -0.0513668)
(0.136955 0.383855 -0.0544733)
(0.208304 0.406824 -0.0354779)
(0.260635 0.401477 -0.0106887)
(0.289679 0.38884 -0.00173963)
(0.301794 0.372838 0.00488648)
(0.297841 0.367678 0.00452894)
(0.287064 0.37965 0.00311826)
(0.275743 0.396603 0.00269075)
(0.26268 0.411331 0.00322323)
(0.243365 0.415119 0.00230147)
(0.213754 0.405344 0.00220393)
(0.174866 0.3823 0.00380139)
(0.125977 0.353506 -0.00687844)
(0.0886902 0.329866 -0.00819431)
(0.0630399 0.296791 -0.00803928)
(0.0322283 0.268721 -0.00346465)
(0.00321551 0.244102 0.00397375)
(-0.0171538 0.210556 0.0130739)
(-0.0343576 0.17941 0.0164334)
(-0.0530576 0.149707 0.0199017)
(-0.0746379 0.118536 0.0238912)
(-0.129535 0.103037 0.0197187)
(-0.193288 0.0983097 0.0141281)
(-0.235185 0.0875546 0.00534019)
(-0.268097 0.0734883 0.000572435)
(-0.293605 0.0577028 0.00366993)
(-0.323823 0.0345969 0.000198341)
(-0.343341 -0.0261323 -0.00295766)
(-0.361136 -0.113114 -0.00493529)
(-0.390498 -0.182762 0.00113594)
(-0.414099 -0.259563 0.000264646)
(-0.429263 -0.335793 -0.00691497)
(-0.415579 -0.390995 -0.0196971)
(-0.363692 -0.400997 -0.0374408)
(-0.269673 -0.342296 -0.0553767)
(-0.156567 -0.199358 -0.0455963)
(-0.0416119 -0.00737841 -0.00977531)
(0.00893365 0.0437994 -0.0109871)
(-0.00660227 0.182625 -0.0175024)
(0.0416444 0.388143 -0.0422986)
(0.13132 0.483015 -0.0478778)
(0.205189 0.505485 -0.0310457)
(0.263831 0.496722 -0.0105842)
(0.298042 0.475893 -0.00146553)
(0.321791 0.453782 0.0061818)
(0.346741 0.467729 0.0073834)
(0.36138 0.490587 0.00312493)
(0.352403 0.501577 -0.00122514)
(0.319788 0.495508 -0.00490041)
(0.273831 0.470046 -0.00444735)
(0.226259 0.432332 -0.00259744)
(0.18069 0.387477 0.000664838)
(0.139722 0.347361 0.00115003)
(0.0995937 0.317822 -0.00390999)
(0.0695632 0.28665 -0.00672746)
(0.0452935 0.251449 -0.00374652)
(0.0152046 0.224048 0.000434294)
(-0.00660135 0.19534 0.00950818)
(-0.0221061 0.163269 0.0131132)
(-0.0404197 0.136094 0.0155499)
(-0.0585073 0.107557 0.0188311)
(-0.102048 0.084804 0.0174436)
(-0.159128 0.0731564 0.0120279)
(-0.198643 0.0587009 0.00135072)
(-0.226533 0.0499681 0.00339036)
(-0.255022 0.0373678 0.00470318)
(-0.286693 0.0140823 0.00504794)
(-0.330631 -0.0171404 0.000591389)
(-0.348892 -0.078226 -0.00224633)
(-0.35872 -0.180487 -0.0171076)
(-0.391777 -0.281704 -0.019059)
(-0.408088 -0.361513 -0.0218412)
(-0.393663 -0.432877 -0.0340673)
(-0.353629 -0.470639 -0.0577221)
(-0.2796 -0.442229 -0.077205)
(-0.165103 -0.290285 -0.066857)
(-0.0372581 -0.0863485 -0.0346446)
(0.0114234 0.0360025 -0.00982721)
(-0.019649 0.302667 -0.0282952)
(0.0188673 0.528963 -0.0466025)
(0.11216 0.633642 -0.0530304)
(0.191001 0.666446 -0.0375148)
(0.258434 0.659794 -0.022038)
(0.301448 0.636687 -0.0115854)
(0.35858 0.606682 -0.00126706)
(0.403718 0.599734 -0.00238746)
(0.394811 0.583987 -0.00510871)
(0.361486 0.55223 -0.0058124)
(0.319715 0.50932 -0.00504704)
(0.274772 0.464084 -0.00368683)
(0.22754 0.417611 -0.00197653)
(0.183399 0.372647 0.000927431)
(0.144666 0.331847 0.00280526)
(0.111859 0.294478 0.00526416)
(0.0783255 0.264872 -0.000737184)
(0.0509934 0.233783 -0.00280702)
(0.0289223 0.199853 0.000917483)
(0.00388144 0.174819 0.00582374)
(-0.012344 0.142584 0.0119073)
(-0.0280352 0.116434 0.0134614)
(-0.0450461 0.0902333 0.015947)
(-0.0816676 0.067109 0.0150552)
(-0.13407 0.0505668 0.00922047)
(-0.167626 0.0370565 0.00623798)
(-0.190387 0.0276243 0.00629004)
(-0.218246 0.0123262 0.00783962)
(-0.249606 -0.00228743 0.00979104)
(-0.285202 -0.0246693 0.00818424)
(-0.346807 -0.0544518 0.00228794)
(-0.388911 -0.131155 0.0040707)
(-0.373837 -0.247412 -0.00866479)
(-0.367367 -0.389121 -0.027341)
(-0.367218 -0.503385 -0.0459452)
(-0.341912 -0.582577 -0.0694672)
(-0.255962 -0.578142 -0.088514)
(-0.165746 -0.440092 -0.0964938)
(-0.0504833 -0.175943 -0.0582842)
(0.0217622 0.0192013 -0.0163383)
(-0.00404935 0.296914 -0.00596353)
(0.0353556 0.540714 -0.0403849)
(0.115224 0.659682 -0.0499741)
(0.19393 0.708245 -0.0415891)
(0.261174 0.707732 -0.0291096)
(0.303301 0.684453 -0.020264)
(0.353802 0.6523 -0.00965944)
(0.395441 0.607315 -0.0039261)
(0.38904 0.568187 -0.00203112)
(0.357915 0.527746 -0.000187024)
(0.317645 0.486283 0.000405086)
(0.27313 0.441614 0.00153961)
(0.22792 0.394786 0.00281379)
(0.186655 0.350391 0.00336878)
(0.149647 0.308423 0.00509355)
(0.116929 0.271764 0.00624875)
(0.0909016 0.235939 0.00948652)
(0.0611924 0.207549 0.00240777)
(0.0361331 0.178139 0.00196315)
(0.0145685 0.151098 0.00512843)
(-0.00374355 0.124381 0.0110168)
(-0.0174229 0.0965137 0.0125172)
(-0.0329653 0.0721439 0.0143584)
(-0.0660176 0.0492897 0.013937)
(-0.111013 0.0314661 0.00690706)
(-0.138745 0.0219821 0.00851022)
(-0.16116 0.00793189 0.00929993)
(-0.183845 -0.00432261 0.0128128)
(-0.206469 -0.0163701 0.0140185)
(-0.243201 -0.0329416 0.0121208)
(-0.289107 -0.0595003 0.0104138)
(-0.352154 -0.0860776 0.00363512)
(-0.419671 -0.15338 0.000239201)
(-0.423439 -0.28352 -0.00307523)
(-0.380188 -0.422977 -0.0168693)
(-0.331217 -0.550219 -0.0332198)
(-0.246605 -0.615206 -0.0646116)
(-0.130644 -0.55289 -0.0746982)
(-0.0157575 -0.283934 -0.0725014)
(0.0230734 0.00760509 -0.00770999)
(0.00289997 0.291914 0.00192048)
(0.0415139 0.512819 -0.0303627)
(0.114135 0.633552 -0.0387403)
(0.191367 0.684578 -0.0334819)
(0.256996 0.685021 -0.0188806)
(0.304235 0.659486 -0.0116993)
(0.353639 0.628132 -0.00137308)
(0.393557 0.581706 0.00151695)
(0.390664 0.540245 0.0026426)
(0.358281 0.501002 0.00400768)
(0.316887 0.459348 0.00496163)
(0.271141 0.415264 0.00610351)
(0.226658 0.368521 0.00802283)
(0.187088 0.323092 0.0094828)
(0.153825 0.280262 0.0109844)
(0.124221 0.243755 0.0112876)
(0.0963358 0.210032 0.0120395)
(0.0733697 0.17806 0.0119385)
(0.0505407 0.153584 0.0111108)
(0.0257646 0.127805 0.00553789)
(0.0063736 0.106193 0.0103225)
(-0.00877269 0.0794318 0.011726)
(-0.0215455 0.0571875 0.0131984)
(-0.0510888 0.0308382 0.010376)
(-0.0880532 0.0184458 0.00918946)
(-0.113966 0.00635014 0.00958651)
(-0.133112 -0.0049498 0.0120092)
(-0.149247 -0.0151193 0.0135986)
(-0.170544 -0.028253 0.0151849)
(-0.199548 -0.0468447 0.0157188)
(-0.242534 -0.0684236 0.0139458)
(-0.292065 -0.102805 0.012891)
(-0.344378 -0.140358 0.00686421)
(-0.383033 -0.192469 -0.00118518)
(-0.389089 -0.290408 -0.0106668)
(-0.374347 -0.415548 -0.020245)
(-0.302428 -0.517059 -0.0347247)
(-0.183859 -0.511551 -0.05752)
(-0.0237309 -0.296811 -0.0578486)
(0.0456307 0.0549842 -0.0269683)
(0.00585035 0.28226 0.00436465)
(0.0441675 0.487964 -0.0239876)
(0.111986 0.610794 -0.0320238)
(0.186443 0.666153 -0.0291138)
(0.251118 0.672719 -0.0129428)
(0.300963 0.648331 -0.0072584)
(0.347563 0.613431 0.00134575)
(0.382541 0.565078 0.00414968)
(0.383753 0.514823 0.00458222)
(0.354398 0.471684 0.00597421)
(0.31282 0.428309 0.00723815)
(0.267265 0.383775 0.00921088)
(0.22358 0.33781 0.0127392)
(0.186883 0.294141 0.0173438)
(0.157597 0.255243 0.0208535)
(0.131824 0.221185 0.0213084)
(0.107786 0.1887 0.0201044)
(0.0845919 0.157153 0.0175774)
(0.0628196 0.130007 0.0157927)
(0.0411481 0.108785 0.0150094)
(0.0191819 0.0878713 0.00947906)
(0.00292269 0.0643112 0.0116831)
(-0.0131403 0.0408542 0.0117682)
(-0.0360325 0.0179758 0.0100154)
(-0.0651414 0.00425114 0.00905118)
(-0.0885427 -0.0051422 0.0113922)
(-0.103621 -0.0138577 0.0116219)
(-0.119722 -0.0252469 0.0129173)
(-0.137902 -0.0393661 0.0146195)
(-0.163906 -0.0575668 0.0162782)
(-0.198009 -0.0817151 0.0177974)
(-0.240508 -0.112136 0.0178437)
(-0.28425 -0.155473 0.0182646)
(-0.311545 -0.212437 0.0169392)
(-0.330928 -0.294872 0.0113722)
(-0.345407 -0.40872 0.00202036)
(-0.319183 -0.502709 -0.0149616)
(-0.227654 -0.523416 -0.0386216)
(-0.0687944 -0.321067 -0.0495024)
(0.0235963 0.061175 -0.0125734)
(0.0104484 0.255464 0.00287545)
(0.0491445 0.439388 -0.018773)
(0.11068 0.567481 -0.0263707)
(0.183759 0.62706 -0.02502)
(0.246988 0.640405 -0.0129201)
(0.296403 0.619491 -0.00487943)
(0.341825 0.583275 0.00247211)
(0.371648 0.536643 0.00565046)
(0.373781 0.484072 0.00615031)
(0.348535 0.437304 0.00707475)
(0.307944 0.392008 0.00871185)
(0.262912 0.347809 0.0117631)
(0.222291 0.304514 0.0172249)
(0.191301 0.263914 0.0230797)
(0.167499 0.226982 0.023899)
(0.142896 0.191338 0.0214768)
(0.115317 0.152727 0.0183677)
(0.0948798 0.112435 0.0166475)
(0.0791454 0.0897242 0.0145988)
(0.0573272 0.0767339 0.0125415)
(0.0327263 0.0644098 0.0136542)
(0.0129653 0.0492618 0.0100252)
(-0.000176023 0.0277916 0.0141083)
(-0.0199421 0.00772683 0.00985994)
(-0.0422559 -0.00541833 0.0109647)
(-0.0605573 -0.0129904 0.0107358)
(-0.0772831 -0.0235101 0.0113759)