/*--------------------------------*- C++ -*----------------------------------*\
| =========                 |                                                 |
| \\      /  F ield         | OpenFOAM: The Open Source CFD Toolbox           |
|  \\    /   O peration     | Version:  v1806                                 |
|   \\  /    A nd           | Web:      www.OpenFOAM.com                      |
|    \\/     M anipulation  |                                                 |
\*---------------------------------------------------------------------------*/
FoamFile
{
    version     2.0;
    format      ascii;
    class       vectorField;
    location    "0.057";
    object      currentcloudofpoints;
}
// * * * * * * * * * * * * * * * * * * * * * * * * * * * * * * * * * * * * * //


2409
(
(0.807929 1.36521 1.00293)
(0.708279 0.960828 1.002)
(1.26915 1.34941 0.999488)
(0.972213 1.08696 0.785988)
(0.976133 1.08887 1.21246)
(1.10451 1.10292 1.00021)
(0.754767 1.51419 0.998807)
(0.636449 0.748217 1.00077)
(1.41198 1.51079 0.999763)
(1.01894 1.09425 0.599219)
(0.998923 1.09829 1.39051)
(1.25305 1.33481 1.08229)
(1.21015 1.29592 1.14811)
(1.14255 1.23667 1.19481)
(1.06448 1.1579 1.23379)
(1.26199 1.34401 1.04202)
(1.23314 1.31529 1.11626)
(1.17672 1.26701 1.17044)
(1.10269 1.19853 1.21435)
(1.02207 1.11918 1.23219)
(0.727286 0.966753 1.06346)
(0.779184 0.968923 1.10645)
(0.843224 0.97439 1.1267)
(0.908682 1.02119 1.15442)
(0.714369 0.96633 1.03282)
(0.752676 0.971292 1.08419)
(0.813169 0.967703 1.11588)
(0.879417 0.992253 1.13381)
(0.939001 1.05767 1.17735)
(1.25087 1.33463 0.915635)
(1.20613 1.29613 0.850326)
(1.13858 1.23735 0.80599)
(1.06161 1.1544 0.766778)
(1.26144 1.34313 0.95643)
(1.22954 1.31569 0.882051)
(1.17274 1.26779 0.828471)
(1.09985 1.19731 0.787297)
(1.01666 1.11511 0.766722)
(0.908621 1.01913 0.845011)
(0.844627 0.975752 0.873756)
(0.780395 0.973247 0.895126)
(0.731195 0.966397 0.940057)
(0.93833 1.05732 0.823048)
(0.879769 0.990467 0.865071)
(0.814268 0.971791 0.885418)
(0.755733 0.971981 0.918655)
(0.717236 0.966677 0.971334)
(0.929281 1.16325 1.15727)
(0.879412 1.25029 1.1563)
(0.839557 1.31413 1.12307)
(0.814416 1.35029 1.08639)
(0.952701 1.12465 1.17014)
(0.904299 1.20437 1.15477)
(0.85795 1.28772 1.13633)
(0.82556 1.33214 1.10471)
(0.809791 1.35931 1.04605)
(0.812871 1.35104 0.916585)
(0.835769 1.31756 0.868247)
(0.877332 1.25596 0.836548)
(0.927068 1.16394 0.846341)
(0.809271 1.35854 0.959902)
(0.822846 1.33511 0.891037)
(0.855034 1.29257 0.855045)
(0.901416 1.20819 0.84279)
(0.951305 1.12382 0.832489)
(0.676578 1.06724 1.00214)
(0.670099 1.14132 1.00242)
(0.680437 1.20945 1.00015)
(0.720401 1.29276 0.999653)
(0.693179 1.02028 1.0037)
(0.676164 1.10879 1.00129)
(0.6781 1.17462 1.00186)
(0.697063 1.24966 0.999278)
(0.760483 1.32959 1.00128)
(0.914371 1.4117 1.00767)
(1.0126 1.42521 1.00748)
(1.11596 1.4155 1.00017)
(1.20027 1.39098 0.999767)
(0.862697 1.3897 1.00462)
(0.965141 1.41943 1.00912)
(1.06311 1.41922 1.00308)
(1.1606 1.39969 0.999666)
(1.23617 1.37663 0.999541)
(0.654735 0.769368 1.14802)
(0.706161 0.800891 1.25661)
(0.744224 0.83485 1.3303)
(0.790434 0.870387 1.37127)
(0.84331 0.909904 1.37538)
(0.897436 0.968839 1.3889)
(0.959037 1.03096 1.39086)
(0.639168 0.760912 1.07928)
(0.683096 0.780108 1.20369)
(0.725281 0.821846 1.29623)
(0.767038 0.852151 1.35332)
(0.818427 0.89004 1.37289)
(0.869044 0.936408 1.37991)
(0.931585 0.999152 1.38659)
(0.981639 1.0642 1.38685)
(1.08032 1.16049 1.40364)
(1.16498 1.2131 1.38008)
(1.22688 1.26914 1.3452)
(1.28387 1.32808 1.30571)
(1.34271 1.38565 1.24764)
(1.38177 1.44975 1.1754)
(1.40538 1.49612 1.09187)
(1.03297 1.12951 1.39908)
(1.12648 1.18866 1.39172)
(1.19736 1.23892 1.36043)
(1.25362 1.29882 1.32441)
(1.31318 1.35414 1.27763)
(1.3632 1.41654 1.21137)
(1.39469 1.47348 1.13483)
(1.40947 1.50446 1.04626)
(0.658933 0.76508 0.85138)
(0.696196 0.799193 0.733685)
(0.744503 0.828745 0.666509)
(0.788 0.867413 0.629495)
(0.840858 0.910962 0.617874)
(0.896302 0.96818 0.612333)
(0.959884 1.02992 0.60487)
(0.642642 0.752593 0.92417)
(0.675547 0.78411 0.787839)
(0.722749 0.813747 0.696607)
(0.767466 0.848306 0.647428)
(0.815217 0.888317 0.624365)
(0.867951 0.937805 0.615937)
(0.929118 0.998257 0.613822)
(0.990955 1.06159 0.602817)
(1.40476 1.49609 0.908276)
(1.38223 1.45072 0.824542)
(1.34336 1.38603 0.752547)
(1.28554 1.32712 0.693707)
(1.22746 1.26774 0.653603)
(1.16469 1.21402 0.620949)
(1.08936 1.15843 0.602346)
(1.4088 1.50427 0.953456)
(1.39461 1.474 0.865428)
(1.36381 1.41753 0.788493)
(1.31448 1.35372 0.722565)
(1.25506 1.29732 0.674243)
(1.19701 1.23858 0.639325)
(1.12738 1.18868 0.612379)
(1.05408 1.12604 0.600407)
(0.754964 1.50351 1.14079)
(0.751464 1.48127 1.23694)
(0.773562 1.43468 1.31921)
(0.831282 1.35801 1.3896)
(0.882345 1.29778 1.3985)
(0.921985 1.23701 1.40217)
(0.947814 1.17099 1.38145)
(0.755641 1.51183 1.07742)
(0.754967 1.49155 1.19606)
(0.76025 1.46035 1.28032)
(0.804041 1.39576 1.36031)
(0.859751 1.32425 1.39919)
(0.902473 1.27085 1.39198)
(0.933199 1.20451 1.39623)
(0.972856 1.13529 1.38167)
(0.75413 1.50247 0.859642)
(0.750473 1.48165 0.767167)
(0.77849 1.43173 0.677294)
(0.830932 1.35716 0.612908)
(0.882989 1.29788 0.604775)
(0.917952 1.24179 0.602789)
(0.965598 1.16972 0.602349)
(0.756767 1.50783 0.920673)
(0.75228 1.49292 0.808225)
(0.762915 1.45865 0.718375)
(0.805943 1.39454 0.640727)
(0.860569 1.32317 0.603368)
(0.902117 1.27222 0.610307)
(0.932609 1.20732 0.60334)
(0.995513 1.13251 0.596495)
(0.588231 0.83522 1.00062)
(0.562313 0.912836 1.00181)
(0.540933 1.00452 1.00159)
(0.533481 1.10291 0.998072)
(0.54004 1.20144 0.999479)
(0.57462 1.29866 0.999294)
(0.648182 1.40667 0.99971)
(0.608214 0.795585 1.00045)
(0.574356 0.875691 1.00122)
(0.551185 0.956273 1.00218)
(0.53616 1.05406 0.999258)
(0.534731 1.15177 0.998744)
(0.55422 1.25033 0.999087)
(0.60745 1.351 0.999955)
(0.699832 1.46205 0.998937)
(0.854887 1.58588 0.997866)
(0.934238 1.62671 0.998605)
(1.01776 1.64338 1.00037)
(1.10365 1.63195 1.00108)
(1.18079 1.61615 1.00027)
(1.25163 1.59547 0.999563)
(1.3292 1.55997 0.99993)
(0.809603 1.55437 0.998656)
(0.897952 1.608 0.997963)
(0.977687 1.63686 0.99939)
(1.0636 1.63676 1.00092)
(1.14422 1.62094 1.00081)
(1.21638 1.6026 0.999686)
(1.28835 1.57687 0.99974)
(1.37156 1.53481 0.999838)
(0.995145 1.08726 0.695312)
(1.01423 1.08966 0.635951)
(0.982825 1.0841 0.740348)
(1.00839 1.08328 1.30602)
(0.993539 1.08253 1.26002)
(1.00808 1.08981 1.35732)
(0.690135 0.829093 0.996511)
(0.702904 0.895149 0.997914)
(0.643185 0.788058 0.99925)
(1.343 1.41064 0.999392)
(1.30364 1.37963 0.999581)
(1.38471 1.4523 0.999387)
(0.981487 1.55876 1.27231)
(1.00269 1.62069 1.18344)
(1.05465 1.32011 1.38616)
(1.1779 1.58797 1.1675)
(0.88017 1.60343 1.10172)
(1.08082 1.24462 1.40337)
(1.32115 1.53647 1.14071)
(1.24419 1.54015 1.22767)
(0.897172 1.59389 1.1971)
(1.08586 1.58624 1.22488)
(1.08365 1.62353 1.12427)
(0.873784 1.49325 1.31854)
(1.14489 1.51776 1.28395)
(1.24484 1.57862 1.13626)
(1.06125 1.49607 1.32067)
(1.28045 1.57896 1.06694)
(1.14471 1.3075 1.39892)
(1.21493 1.59868 1.0775)
(0.819671 1.55837 1.16576)
(0.986943 1.24461 1.38356)
(0.972296 1.33607 1.4019)
(1.11381 1.41113 1.36161)
(1.30349 1.46334 1.2442)
(0.985309 1.63733 1.09236)
(0.816099 1.52644 1.24585)
(1.03708 1.39966 1.37609)
(1.26932 1.40018 1.30445)
(1.21492 1.46108 1.31539)
(0.818914 1.56569 1.08664)
(1.01661 1.18744 1.39727)
(1.35125 1.54375 1.06051)
(0.975599 1.46103 1.35947)
(0.908876 1.38636 1.39371)
(1.20997 1.36857 1.35527)
(1.05003 1.63798 1.05448)
(1.15421 1.61185 1.07762)
(1.07283 1.20494 1.40638)
(1.11958 1.23201 1.40127)
(0.999603 1.1443 1.39461)
(1.03947 1.17488 1.40595)
(1.04888 1.21656 1.39911)
(1.15701 1.26092 1.39015)
(1.18912 1.28938 1.37056)
(1.11717 1.2751 1.40192)
(1.21891 1.31853 1.34615)
(1.24669 1.34714 1.32452)
(1.17698 1.33828 1.37775)
(1.27575 1.36277 1.30189)
(1.30526 1.38899 1.27097)
(1.23899 1.38497 1.33062)
(1.32427 1.42111 1.24169)
(1.33999 1.45367 1.20594)
(1.28941 1.42766 1.27413)
(1.3529 1.49214 1.15974)
(1.3627 1.51437 1.11539)
(1.31307 1.50125 1.1972)
(1.37956 1.52091 1.07635)
(1.38325 1.52703 1.03004)
(1.33536 1.53989 1.1005)
(1.34032 1.55164 1.0305)
(0.913525 1.6155 1.05022)
(0.870607 1.59564 1.05526)
(0.851262 1.58606 1.09616)
(0.839036 1.57734 1.04278)
(0.790308 1.54261 1.04955)
(1.00572 1.6382 1.04686)
(0.963661 1.63151 1.04958)
(0.936461 1.62263 1.09955)
(1.0789 1.63241 1.02878)
(1.03516 1.64043 1.028)
(1.01989 1.638 1.07341)
(1.16756 1.61192 1.03908)
(1.13082 1.61866 1.03993)
(1.10657 1.61878 1.06931)
(1.23267 1.59503 1.03883)
(1.19798 1.60413 1.03944)
(1.18511 1.60277 1.07867)
(1.30415 1.56831 1.03433)
(1.26549 1.58621 1.03313)
(1.24665 1.58731 1.07275)
(1.31443 1.55971 1.06528)
(0.939712 1.57801 1.23816)
(0.951539 1.6092 1.19229)
(0.990798 1.59195 1.22901)
(1.04535 1.60405 1.20545)
(1.03356 1.5743 1.24855)
(0.946372 1.621 1.14718)
(0.995738 1.63112 1.13926)
(1.04637 1.62423 1.15382)
(1.08662 1.60704 1.17677)
(1.0368 1.6325 1.1084)
(1.07324 1.28292 1.38664)
(1.10156 1.31552 1.39112)
(1.03756 1.24387 1.38278)
(1.02253 1.28217 1.37976)
(1.0845 1.36319 1.37645)
(1.12794 1.35839 1.38156)
(1.01168 1.32721 1.38994)
(0.979224 1.29088 1.39157)
(1.04454 1.35677 1.38218)
(1.00534 1.36623 1.38961)
(1.07429 1.40361 1.36436)
(1.16645 1.59805 1.12472)
(1.19706 1.59045 1.12484)
(1.13351 1.59935 1.15108)
(1.12192 1.61239 1.10467)
(1.19434 1.52475 1.26074)
(1.16619 1.55482 1.23053)
(1.21079 1.56347 1.19933)
(1.21163 1.58057 1.15387)
(1.2468 1.5605 1.18362)
(1.22927 1.58785 1.10686)
(1.13661 1.58117 1.20053)
(1.11725 1.54959 1.25567)
(0.85922 1.57751 1.18445)
(0.851419 1.58387 1.1349)
(0.889833 1.60079 1.1539)
(0.820618 1.56283 1.13036)
(0.789768 1.53214 1.15776)
(0.787792 1.5195 1.20557)
(0.787655 1.53733 1.11582)
(0.784786 1.50444 1.24322)
(0.79401 1.4821 1.28521)
(0.817889 1.54242 1.20917)
(0.825623 1.46393 1.32115)
(0.852462 1.42351 1.3604)
(0.84425 1.51226 1.28414)
(0.896814 1.33874 1.4006)
(0.870781 1.37265 1.39183)
(0.89225 1.43818 1.36278)
(0.927003 1.32081 1.39903)
(0.944271 1.28931 1.39587)
(0.943099 1.36138 1.39908)
(0.951181 1.24217 1.39517)
(0.965599 1.20899 1.38217)
(0.982139 1.17915 1.38364)
(1.00427 1.21561 1.3819)
(0.931612 1.5268 1.2991)
(0.980463 1.51083 1.31882)
(0.927504 1.47782 1.34234)
(1.021 1.47863 1.34062)
(1.02528 1.52678 1.2982)
(0.88782 1.5449 1.26349)
(1.07192 1.54257 1.27401)
(1.30064 1.55777 1.10537)
(0.942676 1.42356 1.37825)
(0.975942 1.39241 1.38766)
(1.00957 1.42942 1.36993)
(1.04945 1.44792 1.35245)
(1.06848 1.62956 1.09002)
(1.28223 1.55704 1.14231)
(1.28336 1.53582 1.18837)
(1.27367 1.5016 1.24359)
(1.26193 1.57659 1.10267)
(1.2293 1.49759 1.27609)
(1.17695 1.48928 1.30216)
(1.26235 1.45852 1.28321)
(0.858889 1.56031 1.2245)
(1.10199 1.50534 1.30026)
(1.08723 1.44988 1.34284)
(1.12959 1.46411 1.32822)
(1.16322 1.43745 1.34156)
(1.16267 1.39179 1.3639)
(1.21376 1.41343 1.33935)
(1.24435 1.42993 1.31429)
(0.675672 1.13974 1.37992)
(0.585617 1.22948 1.24986)
(0.598612 1.00276 1.23943)
(0.621123 0.937648 1.24457)
(0.6169 1.27066 1.3032)
(0.762793 1.18046 1.39293)
(0.636651 0.849714 1.20715)
(0.686376 1.4261 1.20464)
(0.870872 1.06929 1.39679)
(0.611158 1.19312 1.31797)
(0.6559 0.999901 1.32541)
(0.610047 1.32227 1.21494)
(0.698232 1.23276 1.38082)
(0.804839 1.01713 1.3812)
(0.797122 1.26923 1.39841)
(0.712804 1.31965 1.36071)
(0.67772 0.906065 1.28942)
(0.890646 1.1593 1.40036)
(0.582199 0.914588 1.14512)
(0.551739 1.20256 1.14964)
(0.815605 1.12456 1.3811)
(0.672381 1.37497 1.28315)
(0.848444 1.22264 1.38294)
(0.546635 1.1093 1.14023)
(0.727094 1.00991 1.36904)
(0.725992 0.931461 1.35192)
(0.611842 1.09638 1.31008)
(0.675044 1.06443 1.36843)
(0.778347 0.949993 1.37658)
(0.738339 1.09046 1.38507)
(0.578777 1.08128 1.21749)
(0.585723 1.15624 1.24773)
(0.606152 0.825401 1.11156)
(0.929566 1.1044 1.38001)
(0.552653 1.01232 1.11448)
(0.648296 1.39585 1.10514)
(0.572249 1.28024 1.09689)
(0.604659 0.888056 1.18065)
(0.601223 0.927443 1.20082)
(0.627867 0.894138 1.22393)
(0.617117 0.841995 1.16452)
(0.591735 0.871979 1.12992)
(0.649316 0.921675 1.26525)
(0.660985 0.875505 1.24946)
(0.643867 0.810991 1.17993)
(0.672794 0.823857 1.22933)
(0.626651 0.801395 1.13128)
(0.690895 0.855293 1.27254)
(0.890225 1.01736 1.39203)
(0.92204 1.04736 1.38697)
(0.82726 0.965167 1.38121)
(0.851432 0.989061 1.38978)
(0.836403 1.04104 1.38692)
(0.948208 1.06698 1.38349)
(0.966962 1.10156 1.38045)
(0.902275 1.08564 1.38869)
(0.595788 1.27466 1.2357)
(0.617459 1.29703 1.26846)
(0.603091 1.25047 1.28141)
(0.644195 1.34935 1.25764)
(0.645362 1.32021 1.29973)
(0.656918 1.25282 1.34842)
(0.663848 1.2962 1.33683)
(0.708056 1.27333 1.3734)
(0.615219 1.23067 1.31375)
(0.650968 1.21427 1.35343)
(0.689224 1.34977 1.32527)
(0.602827 1.21223 1.29047)
(0.609942 0.970098 1.24342)
(0.591872 0.959014 1.19431)
(0.569714 0.962006 1.12928)
(0.578638 1.0088 1.18234)
(0.569091 0.907864 1.07588)
(0.581243 0.869779 1.07682)
(0.595884 0.826461 1.05655)
(0.554238 0.958469 1.05999)
(0.646978 1.37343 1.21625)
(0.679862 1.40096 1.24979)
(0.627399 1.35904 1.16845)
(0.669141 1.41212 1.16235)
(0.577106 1.25642 1.18817)
(0.591035 1.30275 1.16509)
(0.606716 1.33582 1.10356)
(0.752106 1.25033 1.39217)
(0.76056 1.29144 1.3873)
(0.780593 1.22576 1.39117)
(0.736323 1.20516 1.39255)
(0.689484 1.18609 1.38101)
(0.722811 1.15962 1.39043)
(0.642131 1.16671 1.35433)
(0.813934 0.930356 1.37917)
(0.793285 0.983702 1.37627)
(0.80562 1.06996 1.37745)
(0.842304 1.09678 1.38517)
(0.769581 1.05522 1.37594)
(0.775375 1.10752 1.38116)
(0.76627 1.01391 1.37171)
(0.751735 0.98118 1.36836)
(0.731461 1.05017 1.3749)
(0.815406 1.31073 1.39604)
(0.778256 1.33777 1.3783)
(0.840625 1.2844 1.39508)
(0.863841 1.26144 1.38685)
(0.823444 1.24744 1.38703)
(0.805258 1.20248 1.38173)
(0.746491 1.37354 1.34709)
(0.725181 1.40476 1.30689)
(0.916152 1.16519 1.39345)
(0.906297 1.19833 1.40103)
(0.873376 1.19074 1.38683)
(0.886641 1.2307 1.38932)
(0.934728 1.13824 1.37748)
(0.90292 1.13261 1.39123)
(0.876714 1.11521 1.39428)
(0.855508 1.14077 1.38475)
(0.832452 1.17432 1.37715)
(0.627808 1.00336 1.28731)
(0.640294 0.971885 1.28544)
(0.609354 1.05212 1.27872)
(0.633114 1.04896 1.32151)
(0.566199 1.04708 1.1686)
(0.588649 1.0419 1.22812)
(0.600172 1.09128 1.26933)
(0.668689 0.955151 1.30607)
(0.720771 1.4539 1.22563)
(0.721397 1.46332 1.17579)
(0.702937 1.45061 1.1301)
(0.698618 1.45672 1.05642)
(0.712944 1.42658 1.26624)
(0.749053 1.13676 1.3876)
(0.711672 1.11567 1.3856)
(0.637537 1.11972 1.34963)
(0.61509 1.14462 1.31769)
(0.675575 1.10257 1.37449)
(0.638418 1.0826 1.34441)
(0.708415 1.07719 1.37835)
(0.617828 0.786495 1.0569)
(0.542775 1.00632 1.05885)
(0.535669 1.05629 1.05801)
(0.541416 1.2006 1.07361)
(0.534714 1.15143 1.07565)
(0.532797 1.10417 1.06864)
(0.548873 1.06109 1.12791)
(0.548556 1.15597 1.14799)
(0.574473 1.28804 1.04716)
(0.553017 1.24072 1.04715)
(0.558184 1.24195 1.12502)
(0.648348 1.40078 1.05421)
(0.609704 1.34513 1.05263)
(0.710747 0.875127 1.31056)
(0.759785 0.901276 1.36393)
(0.735762 0.885011 1.34236)
(0.701406 0.922369 1.32268)
(0.786316 0.91091 1.3754)
(0.752188 0.94025 1.36513)
(0.788857 1.15501 1.38214)
(0.690636 0.968688 1.33617)
(0.587118 1.19322 1.25196)
(0.603909 1.17659 1.2893)
(0.603983 1.12651 1.28309)
(0.726765 0.971642 1.35872)
(0.690661 1.00565 1.35238)
(0.664605 1.03292 1.34885)
(0.702252 1.03766 1.36863)
(0.569998 1.17947 1.20631)
(0.572343 1.21707 1.20749)
(0.564422 1.09543 1.18348)
(0.56919 1.13352 1.20193)
(0.583621 1.11929 1.23482)
(0.647946 1.05607 0.657372)
(0.653476 1.23705 0.648005)
(0.634695 1.00965 0.694754)
(0.614448 0.950365 0.759176)
(0.596103 1.27849 0.780025)
(0.79648 1.1412 0.618322)
(0.648599 1.37167 0.783369)
(0.87629 1.16017 0.606669)
(0.61705 1.08739 0.689584)
(0.594452 1.2228 0.711346)
(0.753611 0.998782 0.633422)
(0.719997 1.31883 0.638131)
(0.731834 1.17686 0.611974)
(0.627629 1.14552 0.657336)
(0.747569 1.09723 0.624305)
(0.624956 1.30597 0.709057)
(0.82838 1.22061 0.611317)
(0.664181 0.910715 0.705906)
(0.870651 1.0668 0.604768)
(0.629353 0.855898 0.800213)
(0.548898 0.979348 0.907956)
(0.559802 1.1936 0.834256)
(0.543161 1.0787 0.864577)
(0.581133 0.905072 0.878376)
(0.690526 1.38518 0.705633)
(0.587712 1.13384 0.737202)
(0.700914 0.965278 0.654018)
(0.58602 1.02431 0.780762)
(0.785019 1.26434 0.599421)
(0.586032 1.31364 0.892361)
(0.809035 1.03159 0.61657)
(0.608197 0.820696 0.901897)
(0.682971 1.43584 0.861777)
(0.691135 1.07519 0.627628)
(0.720037 1.24697 0.616105)
(0.93975 1.10221 0.604324)
(0.623236 1.11686 0.671368)
(0.639753 1.10129 0.654975)
(0.632841 1.07235 0.67134)
(0.643509 1.03327 0.674821)
(0.628096 1.04885 0.69049)
(0.667191 1.06533 0.640302)
(0.659876 1.11129 0.638273)
(0.66831 0.987927 0.671349)
(0.67616 1.01118 0.654622)
(0.695921 1.02088 0.641764)
(0.835896 1.10591 0.61912)
(0.840056 1.15067 0.620247)
(0.87062 1.11397 0.608009)
(0.810839 1.18195 0.617258)
(0.85487 1.19283 0.61804)
(0.839471 1.04726 0.610063)
(0.802902 1.08695 0.623823)
(0.771567 1.11894 0.622435)
(0.739929 1.13895 0.620792)
(0.76517 1.16009 0.61689)
(0.780504 1.19874 0.612089)
(0.778559 1.0661 0.627824)
(0.951801 1.13649 0.602121)
(0.984199 1.09927 0.599613)
(0.953927 1.06553 0.606488)
(0.638293 1.33793 0.739283)
(0.611051 1.29306 0.737875)
(0.62132 1.32331 0.777272)
(0.658732 1.34435 0.702662)
(0.670006 1.38004 0.739025)
(0.621213 1.34351 0.827354)
(0.595138 1.29604 0.830768)
(0.72235 1.43201 0.730909)
(0.702597 1.42646 0.765067)
(0.665999 1.40352 0.817843)
(0.722067 1.45948 0.802334)
(0.631053 1.37435 0.870769)
(0.899241 1.13077 0.603129)
(0.902871 1.08325 0.60756)
(0.874063 1.23297 0.615007)
(0.894448 1.20224 0.606378)
(0.912946 1.16512 0.601372)
(0.603958 1.11231 0.711337)
(0.610454 1.14339 0.690983)
(0.612385 1.02066 0.730701)
(0.605814 1.06058 0.727746)
(0.589294 1.08115 0.755508)
(0.887772 1.01511 0.61091)
(0.920917 1.04592 0.612007)
(0.850617 0.994958 0.608722)
(0.643722 1.18984 0.650372)
(0.615114 1.18477 0.679009)
(0.620929 1.2319 0.676496)
(0.594504 1.17826 0.718846)
(0.608689 1.2632 0.706707)
(0.594163 1.25134 0.739191)
(0.638041 1.27211 0.673284)
(0.581905 1.21037 0.758212)
(0.579451 1.23605 0.801138)
(0.57213 1.16344 0.776358)
(0.721396 1.08585 0.626942)
(0.749499 1.04821 0.633071)
(0.724428 1.03709 0.633914)
(0.782011 1.01592 0.62846)
(0.798044 0.957367 0.626027)
(0.773732 0.935027 0.635437)
(0.728757 0.980969 0.642107)
(0.749075 0.917318 0.648407)
(0.824949 0.972193 0.617126)
(0.689273 1.27611 0.640105)
(0.67267 1.31491 0.667384)
(0.705589 1.35231 0.666499)
(0.779929 1.33747 0.622976)
(0.753451 1.37093 0.651558)
(0.737536 1.40772 0.687128)
(0.755124 1.28957 0.613902)
(0.809578 1.30801 0.603985)
(0.720722 1.28138 0.624997)
(0.689281 1.24168 0.630269)
(0.753897 1.25532 0.606333)
(0.698875 1.20552 0.623926)
(0.682437 1.16102 0.629686)
(0.713165 1.12744 0.624541)
(0.809372 1.24248 0.606002)
(0.758271 1.22096 0.607319)
(0.728221 1.21099 0.612498)
(0.85455 1.2602 0.611631)
(0.835642 1.2818 0.604355)
(0.649475 0.961242 0.70189)
(0.636002 0.934398 0.730015)
(0.624921 0.98297 0.723495)
(0.620635 0.903939 0.780831)
(0.643213 0.887273 0.746912)
(0.678003 0.856648 0.7194)
(0.707684 0.868972 0.686671)
(0.658497 0.831576 0.763671)
(0.686519 0.937048 0.678714)
(0.727224 0.899235 0.664805)
(0.572052 1.25169 0.860043)
(0.600793 0.98724 0.770678)
(0.605738 0.881762 0.839428)
(0.598325 0.926131 0.817893)
(0.581339 0.963581 0.830784)
(0.718722 1.46974 0.858117)
(0.718109 1.47506 0.924957)
(0.567949 0.906834 0.937228)
(0.580784 0.869382 0.936705)
(0.59443 0.827738 0.950426)
(0.617318 0.783638 0.94965)
(0.594098 0.864995 0.889562)
(0.543725 0.98904 0.953764)
(0.555036 0.943103 0.953312)
(0.565643 0.940965 0.89239)
(0.538581 1.08548 0.929357)
(0.539215 1.03693 0.93119)
(0.54345 1.02886 0.886021)
(0.541798 1.14605 0.915218)
(0.546078 1.19566 0.916644)
(0.550531 1.13769 0.845963)
(0.577208 1.30652 0.945797)
(0.557602 1.25756 0.946445)
(0.611113 1.35917 0.942832)
(0.664308 1.42283 0.92485)
(0.631519 0.79425 0.87616)
(0.642477 0.811879 0.824208)
(0.619811 0.83747 0.849402)
(0.565391 1.00122 0.84143)
(0.5648 1.04969 0.818013)
(0.567876 1.10792 0.792272)
(1.03894 1.61199 0.806678)
(0.960801 1.5836 0.752014)
(1.25366 1.56888 0.836868)
(1.02103 1.40999 0.616814)
(0.842815 1.57018 0.848918)
(1.33014 1.53118 0.862139)
(1.08642 1.25492 0.592685)
(1.09736 1.361 0.617624)
(0.938586 1.61469 0.851042)
(1.03819 1.52975 0.705133)
(0.931153 1.48927 0.661846)
(1.04393 1.63233 0.91186)
(1.11274 1.47832 0.675681)
(1.03312 1.31713 0.605962)
(1.12462 1.5643 0.762563)
(0.993603 1.25086 0.610819)
(1.29921 1.49204 0.774426)
(0.972098 1.31554 0.60006)
(0.890142 1.60019 0.918782)
(1.28625 1.57681 0.931525)
(1.20057 1.6064 0.911289)
(1.20423 1.52258 0.735495)
(1.1716 1.3166 0.61139)
(0.850914 1.5422 0.744662)
(0.961167 1.63034 0.934675)
(1.18414 1.58578 0.820137)
(1.22566 1.36245 0.653899)
(1.17312 1.42002 0.650185)
(0.825396 1.5593 0.913067)
(1.35395 1.54154 0.939638)
(1.02969 1.1878 0.597254)
(1.11803 1.61206 0.854465)
(1.13256 1.62356 0.935053)
(1.26422 1.41671 0.697959)
(0.843219 1.46296 0.6667)
(0.931547 1.37181 0.605225)
(1.34184 1.55029 0.969467)
(1.38419 1.52599 0.969769)
(1.38031 1.51969 0.923823)
(0.989134 1.61492 0.825042)
(0.948987 1.60398 0.800081)
(1.00283 1.59989 0.777694)
(1.00292 1.55701 0.724668)
(1.04235 1.57415 0.75081)
(1.04255 1.61971 0.856699)
(0.996776 1.62224 0.877064)
(1.08242 1.54335 0.732836)
(1.08577 1.58799 0.782136)
(1.08091 1.60982 0.82858)
(1.08245 1.61881 0.8802)
(1.12339 1.59331 0.807463)
(0.875473 1.59285 0.953945)
(0.915171 1.61397 0.958469)
(0.793176 1.53854 0.949617)
(0.842224 1.57296 0.955125)
(0.860547 1.58099 0.914745)
(0.949307 1.62864 0.965022)
(0.991478 1.63765 0.967435)
(0.927409 1.61637 0.926212)
(1.03278 1.63771 0.955208)
(1.07646 1.63194 0.955885)
(1.00448 1.63237 0.921662)
(1.15837 1.61876 0.967189)
(1.11877 1.62721 0.967496)
(1.09076 1.62538 0.921875)
(1.19176 1.60966 0.955002)
(1.22685 1.59682 0.954012)
(1.16796 1.61242 0.922044)
(1.26895 1.58487 0.965787)
(1.30719 1.56657 0.965009)
(1.24245 1.58839 0.919205)
(1.31868 1.55729 0.934192)
(1.02025 1.14238 0.593481)
(1.00035 1.17801 0.60246)
(1.05223 1.1737 0.593211)
(0.796077 1.5296 0.80478)
(0.80202 1.53807 0.849597)
(0.836444 1.56393 0.876616)
(0.791576 1.53232 0.884232)
(0.803037 1.51281 0.752208)
(0.844582 1.56035 0.79541)
(0.916478 1.60666 0.881511)
(0.870025 1.58524 0.882074)
(0.893369 1.59497 0.848316)
(0.897819 1.5857 0.794782)
(1.29079 1.54846 0.845539)
(1.27644 1.53319 0.800673)
(1.31505 1.51188 0.817006)
(1.33913 1.46828 0.802806)
(1.35769 1.49044 0.84248)
(1.3079 1.55469 0.894839)
(1.34162 1.53652 0.901022)
(1.26965 1.57164 0.882798)
(1.3673 1.51212 0.886429)
(0.815646 1.48743 0.706729)
(0.837925 1.40806 0.63615)
(0.812241 1.44712 0.670933)
(0.846213 1.50394 0.702562)
(0.908004 1.33321 0.605133)
(0.882849 1.36425 0.609667)
(0.890388 1.41443 0.628511)
(0.944831 1.27971 0.604826)
(0.927441 1.31035 0.606789)
(0.954044 1.34379 0.602886)
(0.97632 1.2115 0.610341)
(0.952375 1.24721 0.604731)
(0.981336 1.28325 0.605274)
(1.01512 1.21929 0.611799)
(1.10158 1.41527 0.645158)
(1.06585 1.44255 0.64974)
(1.05693 1.38133 0.619938)
(1.0268 1.35935 0.606607)
(1.06564 1.3386 0.613333)
(1.00248 1.31616 0.603191)
(0.998139 1.35874 0.603618)
(0.978757 1.39304 0.610758)
(0.987367 1.5115 0.682655)
(0.981624 1.44879 0.638113)
(1.02919 1.47081 0.658424)
(1.07646 1.50017 0.691405)
(0.931886 1.42762 0.627925)
(0.90643 1.56451 0.745478)
(0.945766 1.53702 0.703419)
(0.890607 1.51789 0.697243)
(1.06293 1.28755 0.609802)
(1.10004 1.30846 0.607581)
(1.13329 1.28589 0.598133)
(1.13538 1.34083 0.612011)
(1.01546 1.2841 0.610407)
(1.04496 1.25317 0.611397)
(1.05777 1.22237 0.599686)
(1.12342 1.238 0.596605)
(1.17243 1.26454 0.617282)
(1.08007 1.20894 0.594717)
(1.13365 1.38963 0.634745)
(1.14106 1.44766 0.662273)
(1.17079 1.36718 0.628813)
(0.953798 1.61989 0.89019)
(1.11788 1.51844 0.716957)
(0.887617 1.47714 0.662643)
(1.12594 1.61502 0.893369)
(1.16211 1.53892 0.748839)
(1.1579 1.49923 0.703404)
(1.19103 1.47084 0.686685)
(1.1949 1.55278 0.776113)
(1.15549 1.57355 0.789237)
(1.15195 1.59831 0.836604)
(1.23577 1.47084 0.706326)
(1.28472 1.45082 0.734738)
(1.25242 1.50601 0.748446)
(1.3032 1.39705 0.731297)
(1.32362 1.4352 0.76668)
(1.23095 1.54424 0.782836)
(1.21995 1.41968 0.669348)
(1.24413 1.38898 0.675633)
(1.20001 1.39161 0.647868)
(1.27497 1.36988 0.699687)
(1.2558 1.34367 0.679086)
(1.22585 1.58794 0.873956)
(1.19257 1.59608 0.864747)
(1.16123 1.60474 0.88041)
(1.21886 1.57482 0.826207)
(1.19818 1.33982 0.632635)
(1.20229 1.29229 0.63607)
(1.22821 1.31495 0.657004)
(0.835661 1.08033 1.13437)
(0.719892 1.07063 1.08122)
(0.698424 1.1731 1.06621)
(0.847156 1.16817 1.1499)
(0.710357 1.25389 1.071)
(0.78934 1.15977 1.138)
(0.785856 1.05111 1.12244)
(0.743299 1.14773 1.09561)
(0.749092 1.23184 1.11084)
(0.896429 1.0991 1.14109)
(0.680612 1.10237 1.03949)
(0.809412 1.23336 1.14537)
(0.766378 1.28736 1.10761)
(0.691503 1.03766 1.04134)
(0.75483 1.31676 1.06269)
(0.778893 1.34199 1.0324)
(0.782934 1.33311 1.0735)
(0.787641 1.31837 1.09613)
(0.801454 1.30174 1.11324)
(0.75861 1.30138 1.08704)
(0.75589 1.05816 1.10135)
(0.766179 1.10087 1.10933)
(0.73694 1.10593 1.08357)
(0.717682 1.12467 1.06352)
(0.724229 1.1623 1.07611)
(0.695651 1.1386 1.04813)
(0.700565 1.08881 1.05879)
(0.705504 1.05567 1.06133)
(0.686333 1.07285 1.03902)
(0.785429 1.00552 1.11262)
(0.751027 1.01765 1.09521)
(0.724191 1.02049 1.07295)
(0.709677 1.00315 1.05268)
(0.727481 1.20167 1.08076)
(0.729721 1.24291 1.09057)
(0.70406 1.21155 1.06497)
(0.694025 1.23252 1.03408)
(0.688841 1.19206 1.03674)
(0.755384 1.2591 1.10754)
(0.737384 1.27104 1.08933)
(0.713578 1.27394 1.03724)
(0.729992 1.28464 1.06669)
(0.736582 1.30602 1.03178)
(0.874004 1.04442 1.13328)
(0.902968 1.05862 1.1447)
(0.865522 1.08838 1.13453)
(0.935863 1.09249 1.1622)
(0.871776 1.13346 1.13882)
(0.840644 1.12606 1.13877)
(0.912805 1.13249 1.14455)
(0.888297 1.16396 1.14454)
(0.790252 1.1039 1.12531)
(0.767521 1.15334 1.11546)
(0.747729 1.19056 1.09728)
(0.771072 1.20023 1.11954)
(0.678389 1.08637 1.02055)
(0.677236 1.12434 1.02084)
(0.683406 1.05445 1.0216)
(0.686503 1.15841 1.03343)
(0.841879 1.02296 1.12622)
(0.811748 1.06269 1.12766)
(0.81294 1.12178 1.13722)
(0.814995 1.00938 1.12239)
(0.817691 1.16444 1.14655)
(0.861712 1.20928 1.15401)
(0.821042 1.27573 1.12969)
(0.843352 1.24357 1.15152)
(0.829013 1.2029 1.15294)
(0.786832 1.26418 1.11684)
(0.698618 1.00339 1.0228)
(0.779331 1.23471 1.12409)
(0.79814 1.19744 1.14163)
(0.908004 1.37336 1.11022)
(1.16314 1.36193 1.10386)
(1.14054 1.39584 1.06072)
(1.0987 1.33746 1.1361)
(1.02004 1.343 1.16026)
(1.03444 1.25677 1.19041)
(1.07787 1.38373 1.12347)
(1.05127 1.4127 1.07065)
(0.964283 1.2527 1.18059)
(1.21092 1.37918 1.05484)
(0.996654 1.38443 1.12376)
(0.946086 1.33031 1.1403)
(0.956353 1.41289 1.07211)
(0.878677 1.39361 1.06246)
(0.99118 1.17709 1.19996)
(1.09831 1.40469 1.06386)
(1.10866 1.39013 1.09162)
(1.06406 1.39878 1.09752)
(1.02191 1.39936 1.09893)
(1.03674 1.38603 1.12415)
(1.12078 1.37015 1.10919)
(1.13175 1.34771 1.11809)
(1.09055 1.36148 1.13058)
(1.15091 1.37882 1.08436)
(1.05831 1.34277 1.14871)
(1.05026 1.36519 1.14211)
(1.01119 1.36506 1.14173)
(0.84659 1.37289 1.07377)
(0.844053 1.38061 1.03248)
(0.874771 1.34511 1.11245)
(0.861822 1.36411 1.09621)
(0.89252 1.38455 1.08878)
(1.18529 1.33109 1.11928)
(1.20848 1.35318 1.09307)
(1.1865 1.37066 1.08086)
(1.23228 1.36193 1.06767)
(1.24361 1.36999 1.02724)
(1.04269 1.20281 1.20924)
(1.07942 1.24352 1.18697)
(1.10849 1.28647 1.14993)
(1.14812 1.31344 1.13084)
(1.06131 1.3041 1.15725)
(1.0226 1.1643 1.21872)
(0.983758 1.1321 1.2007)
(1.01053 1.2144 1.20005)
(0.924132 1.24804 1.1615)
(0.945712 1.20447 1.17012)
(0.975473 1.21323 1.18626)
(0.960551 1.1692 1.17586)
(0.954304 1.29562 1.15671)
(0.911198 1.29187 1.14319)
(0.997251 1.25411 1.18744)
(0.988837 1.30286 1.16724)
(0.983404 1.3368 1.15009)
(1.0233 1.30438 1.16882)
(0.896559 1.40355 1.03525)
(0.894689 1.32425 1.12516)
(0.928335 1.35185 1.11922)
(0.931993 1.39281 1.09277)
(0.919051 1.40368 1.06697)
(0.975593 1.39635 1.09693)
(0.954107 1.37689 1.11153)
(0.973754 1.35818 1.13079)
(1.20645 1.38518 1.02799)
(1.1746 1.38392 1.05724)
(1.17196 1.39154 1.03078)
(0.93664 1.41383 1.04098)
(0.985406 1.42096 1.0402)
(1.08554 1.41422 1.03492)
(1.0333 1.41959 1.0388)
(1.00336 1.41197 1.07052)
(1.13082 1.40576 1.03002)
(0.968665 1.26685 0.826291)
(1.17847 1.35155 0.886906)
(0.990315 1.40194 0.908261)
(1.04487 1.25129 0.812117)
(0.991111 1.3595 0.863524)
(1.10099 1.37627 0.878828)
(0.919056 1.30835 0.848744)
(1.04859 1.33055 0.844663)
(0.902652 1.37111 0.871948)
(1.11687 1.31899 0.853961)
(1.18239 1.38733 0.938409)
(0.990856 1.17544 0.805277)
(1.08354 1.41251 0.943395)
(0.908506 1.40286 0.944555)
(0.857044 1.36378 0.894798)
(0.869816 1.34656 0.871152)
(0.860728 1.3861 0.975982)
(0.86199 1.37991 0.929875)
(0.903524 1.38862 0.902438)
(0.913048 1.34282 0.86369)
(0.878408 1.31823 0.857781)
(0.896708 1.28359 0.842625)
(0.944537 1.21226 0.832333)
(0.976779 1.21992 0.819632)
(0.959397 1.16852 0.830048)
(1.01547 1.21016 0.804284)
(1.00442 1.25781 0.819525)
(1.01988 1.34503 0.856762)
(1.00572 1.30135 0.838071)
(0.980733 1.31764 0.855359)
(1.04436 1.29514 0.832731)
(0.924416 1.25873 0.836058)
(0.94446 1.28673 0.841815)
(0.956979 1.33357 0.861588)
(0.912724 1.40722 0.977467)
(0.9499 1.36528 0.871061)
(0.949618 1.38724 0.88944)
(0.991719 1.38172 0.883722)
(0.950241 1.40323 0.925001)
(0.981197 1.13031 0.79972)
(1.02054 1.1612 0.783684)
(1.04721 1.19814 0.792669)
(1.11268 1.34813 0.869299)
(1.08276 1.32581 0.851142)
(1.07741 1.35439 0.862711)
(1.07895 1.29054 0.836304)
(1.04423 1.36932 0.872373)
(1.14909 1.33386 0.870797)
(1.14033 1.36175 0.888108)
(1.19086 1.3253 0.871407)
(1.15684 1.3072 0.855118)
(1.11932 1.27891 0.836353)
(1.08483 1.2425 0.812214)
(1.14177 1.38144 0.90977)
(1.17909 1.37055 0.912554)
(1.21437 1.36608 0.928817)
(1.21443 1.34674 0.900426)
(0.96313 1.41386 0.979761)
(1.10221 1.41519 0.971872)
(1.04865 1.41683 0.975324)
(1.0348 1.40558 0.929318)