/*--------------------------------*- C++ -*----------------------------------*\
| =========                 |                                                 |
| \\      /  F ield         | OpenFOAM: The Open Source CFD Toolbox           |
|  \\    /   O peration     | Version:  v1806                                 |
|   \\  /    A nd           | Web:      www.OpenFOAM.com                      |
|    \\/     M anipulation  |                                                 |
\*---------------------------------------------------------------------------*/
FoamFile
{
    version     2.0;
    format      ascii;
    class       surfaceScalarField;
    location    "0.054";
    object      phi;
}
// * * * * * * * * * * * * * * * * * * * * * * * * * * * * * * * * * * * * * //

dimensions      [0 3 -1 0 0 0 0];
oriented        oriented;


internalField   nonuniform List<scalar> 
187200
(
7.50998e-06
1.59113e-06
-9.10219e-06
4.30355e-05
-1.59526e-05
-1.95728e-05
6.44762e-05
-8.93282e-06
-1.25078e-05
8.41507e-05
-9.23233e-06
-1.04421e-05
0.000101422
-6.50893e-06
-1.07623e-05
0.000119155
-5.1555e-06
-1.25776e-05
0.000134381
-6.30779e-07
-1.45946e-05
0.000150132
8.35776e-07
-1.65866e-05
0.000163409
4.7291e-06
-1.80059e-05
0.000173885
6.63416e-06
-1.71102e-05
0.000184412
8.11602e-06
-1.86432e-05
0.000188931
1.401e-05
-1.85301e-05
0.000178333
2.20222e-05
-1.14243e-05
0.000146961
3.81521e-05
-6.77973e-06
0.000100805
4.3904e-05
2.25184e-06
5.80801e-05
3.01156e-05
1.26085e-05
1.38458e-06
3.1899e-05
2.47963e-05
-5.58747e-05
4.91219e-05
8.13687e-06
-0.000155612
0.000100642
-9.04049e-07
-0.000279809
0.000133043
-8.84713e-06
-0.000504795
0.000214247
1.07387e-05
-0.000680031
0.000231494
-5.62578e-05
-0.000789225
0.000275839
-0.000166644
-0.000826446
0.000307294
-0.000270074
-0.000803605
0.000338265
-0.000361106
-0.000733486
0.000368808
-0.000438927
-0.000622383
0.000391572
-0.000502675
-0.00048838
0.000408284
-0.000542287
-0.000322022
0.000396334
-0.000562692
-0.000161971
0.000382431
-0.000542481
-3.23247e-05
0.000338823
-0.000468469
4.87679e-05
0.000298313
-0.000379405
7.82699e-05
0.000233355
-0.000262857
6.89266e-05
0.000174554
-0.000165211
4.17126e-05
0.000121402
-9.41878e-05
1.93414e-05
8.07197e-05
-5.83489e-05
4.52854e-06
5.56937e-05
-4.0881e-05
-2.62348e-06
4.29094e-05
-3.57572e-05
-5.5222e-06
3.28696e-05
-2.99707e-05
2.23878e-05
-2.791e-05
7.17955e-06
9.98762e-06
-1.55759e-05
4.5073e-05
-2.69321e-05
-2.69137e-05
8.42336e-05
-2.27043e-05
-2.53891e-05
0.000115831
-1.48295e-05
-2.60001e-05
0.000136867
-2.24123e-06
-2.53035e-05
0.000153695
7.9329e-06
-2.99162e-05
0.000160854
2.81437e-05
-3.59333e-05
0.000163735
3.99099e-05
-4.19549e-05
0.000156781
6.38597e-05
-5.21766e-05
0.000138313
8.44013e-05
-5.93005e-05
9.55777e-05
0.000125962
-7.51109e-05
3.27707e-05
0.000168556
-9.17391e-05
-5.17357e-05
0.00020495
-9.84212e-05
-0.000151615
0.000246391
-0.000108359
-0.000278521
0.000301442
-0.000130633
-0.000464653
0.000379289
-0.000163042
-0.000650849
0.000455461
-0.000237368
-0.000846984
0.000540723
-0.000295467
-0.00101831
0.000638255
-0.000366286
-0.0011712
0.000731731
-0.000445796
-0.0013069
0.000853802
-0.000503863
-0.00139823
0.000931393
-0.000608564
-0.00143854
0.00103442
-0.000718276
-0.00141975
0.00108898
-0.000800476
-0.00133101
0.00113327
-0.000883749
-0.00118501
0.00116139
-0.000938577
-0.00099067
0.00116512
-0.000967893
-0.000763188
0.00114435
-0.000963545
-0.000528456
0.001083
-0.000921393
-0.00030367
0.00100579
-0.000848147
-0.000112284
0.000875667
-0.00072823
4.67209e-05
0.00073645
-0.000597142
0.000126758
0.000585618
-0.0004323
0.000151631
0.000457844
-0.000308163
0.000136379
0.000338723
-0.00020207
0.00010538
0.000250446
-0.000138726
7.2107e-05
0.000187583
-9.86166e-05
4.53849e-05
0.00014702
-7.73881e-05
1.82534e-05
0.000117265
-5.72636e-05
8.03629e-05
-3.97218e-05
1.91234e-05
2.85696e-06
-1.19926e-05
5.7453e-05
-3.278e-05
-3.24815e-05
9.75006e-05
-2.36449e-05
-3.91069e-05
0.000126593
-3.07603e-06
-4.08459e-05
0.000142866
2.89427e-05
-4.74562e-05
0.000147956
5.91344e-05
-5.62918e-05
0.00014005
0.000102449
-6.63998e-05
0.000122831
0.00014045
-8.3321e-05
9.29174e-05
0.00020316
-0.000109387
3.55082e-05
0.00027184
-0.00013003
-4.85084e-05
0.000353928
-0.000143949
-0.00014865
0.000434013
-0.000165316
-0.000304164
0.00054002
-0.000179557
-0.000486391
0.000648678
-0.000220061
-0.000691539
0.000758658
-0.000252068
-0.000879414
0.000869958
-0.000302794
-0.00104654
0.000976839
-0.000354246
-0.00119883
0.00110014
-0.000407128
-0.00133581
0.00123513
-0.000459903
-0.00145993
0.00137267
-0.000516816
-0.00156551
0.00150737
-0.00054799
-0.00162674
0.00158946
-0.000596834
-0.00163158
0.00169325
-0.000653993
-0.00159058
0.00172806
-0.000680081
-0.0014914
0.00174846
-0.000714366
-0.00134991
0.0017425
-0.000722604
-0.00117301
0.00170009
-0.000711875
-0.000972107
0.00162381
-0.000680362
-0.000762514
0.00150667
-0.000633264
-0.000543037
0.00136016
-0.000573847
-0.000362502
0.00118878
-0.000493644
-0.00020275
0.00100605
-0.000429352
-8.79148e-05
0.000809366
-0.000338582
-6.52395e-06
0.000646408
-0.000269954
3.06483e-05
0.000499894
-0.000198344
4.48932e-05
0.000388194
-0.000151993
4.48976e-05
0.000308487
-0.000120908
3.52599e-05
0.000256067
-9.94096e-05
1.61711e-05
0.000206436
-7.00822e-05
0.000136442
-3.99081e-05
1.96358e-05
7.47367e-07
-1.7526e-05
5.83463e-05
-2.55735e-05
-4.5917e-05
9.80431e-05
-5.14106e-06
-5.82004e-05
0.000122079
3.84809e-05
-6.55928e-05
0.000126102
9.76426e-05
-7.27229e-05
0.000114104
0.000157135
-8.6002e-05
9.26061e-05
0.000235058
-0.000111111
5.47517e-05
0.000314975
-0.000136671
6.93294e-07
0.00042635
-0.000169133
-7.80357e-05
0.000538778
-0.00018821
-0.000192964
0.00067205
-0.000203194
-0.00034582
0.000803999
-0.000217129
-0.000511712
0.000935135
-0.000229224
-0.000670715
0.00105272
-0.00024504
-0.000825293
0.00118026
-0.000267022
-0.000970607
0.00130696
-0.000291687
-0.00110816
0.00143066
-0.000316275
-0.00122991
0.00155183
-0.000329939
-0.0013363
0.00167917
-0.000337638
-0.00143084
0.00179989
-0.000332693
-0.00152166
0.00189837
-0.000300178
-0.00157845
0.00193842
-0.000292173
-0.00158182
0.00199704
-0.000300415
-0.00155325
0.00198163
-0.000282143
-0.00147654
0.00195361
-0.000281863
-0.00137301
0.00190437
-0.000265395
-0.00124646
0.00182048
-0.00024694
-0.00110525
0.0017095
-0.000226889
-0.000952208
0.00156179
-0.00020817
-0.000787773
0.00139863
-0.000202902
-0.000611844
0.00121567
-0.000202824
-0.000441208
0.00103371
-0.000198296
-0.000292072
0.000856442
-0.000196212
-0.00016873
0.000710429
-0.000187363
-8.48264e-05
0.00058304
-0.000167049
-2.69023e-05
0.000478479
-0.000148208
8.59064e-06
0.000405536
-0.000132541
2.17446e-05
0.000351523
-0.00010861
1.74133e-05
0.000287379
-7.66115e-05
0.000190839
-3.69831e-05
1.95935e-05
1.6932e-05
-3.57782e-05
5.94447e-05
1.13096e-05
-7.67342e-05
0.000101603
4.34677e-05
-9.07672e-05
0.000120434
0.000119017
-9.93666e-05
0.00011873
0.000204656
-0.00010531
8.97136e-05
0.000305363
-0.000119212
5.47268e-05
0.000420559
-0.000150515
1.69969e-05
0.000537352
-0.000184647
-3.33377e-05
0.000685055
-0.000208371
-0.00011605
0.000836349
-0.000214858
-0.00021684
0.000988067
-0.000215228
-0.000329036
0.00112689
-0.000210692
-0.000462018
0.00126946
-0.00020134
-0.000605414
0.00139677
-0.000200652
-0.000744994
0.001515
-0.000195161
-0.000866646
0.00161661
-0.000188003
-0.000968842
0.00170243
-0.000169575
-0.00105211
0.00177298
-0.000137884
-0.00114291
0.00185158
-8.16206e-05
-0.00122981
0.00191571
-2.89144e-05
-0.0013392
0.00195979
4.79766e-05
-0.00140221
0.00191567
8.57634e-05
-0.00142316
0.00192356
9.44306e-05
-0.00142611
0.0018773
0.000107272
-0.00139387
0.00182776
9.36079e-05
-0.00134714
0.00177011
8.75311e-05
-0.00128295
0.00168043
7.58627e-05
-0.00121259
0.00157765
6.14821e-05
-0.00111875
0.00144416
2.37889e-05
-0.00100114
0.00130172
-2.07068e-05
-0.000857586
0.00114212
-7.00049e-05
-0.000695569
0.000992691
-0.000120998
-0.000534724
0.000844712
-0.000149114
-0.00038156
0.000726131
-0.000168866
-0.00024671
0.000627429
-0.000179239
-0.000136586
0.000531871
-0.000163516
-5.59938e-05
0.000471461
-0.000146518
-5.84944e-06
0.000422623
-0.000121245
9.17255e-06
0.000353119
-8.07617e-05
0.000233575
-3.35635e-05
1.6425e-05
6.21575e-05
-6.16505e-05
5.92367e-05
8.27617e-05
-0.000114264
0.000110556
0.000132865
-0.000140717
0.000129541
0.000237176
-0.000137143
0.000126896
0.000348771
-0.00014147
8.53647e-05
0.000495788
-0.000148894
6.0942e-05
0.000632314
-0.000187332
2.09281e-05
0.000789353
-0.000211988
-2.74602e-05
0.000952993
-0.00021955
-9.29832e-05
0.00110601
-0.000204144
-0.00016754
0.00124876
-0.000186136
-0.000255759
0.00137852
-0.000163413
-0.000345229
0.00149508
-0.00013615
-0.00043156
0.00158996
-0.000106857
-0.000512588
0.00167136
-7.53354e-05
-0.000590366
0.00172788
-3.34875e-05
-0.000692524
0.00176842
3.61699e-05
-0.000796131
0.00178134
9.52499e-05
-0.000889087
0.00178325
0.000161291
-0.000972241
0.00176717
0.000231694
-0.00108367
0.0017877
0.000283518
-0.00117748
0.00170417
0.00030531
-0.00123229
0.00167628
0.000302082
-0.00127956
0.00161762
0.000306962
-0.0012992
0.00155773
0.000289669
-0.00130911
0.00150387
0.000276146
-0.00130571
0.00143089
0.000246147
-0.00129387
0.00135462
0.000211187
-0.00125858
0.00125618
0.000152694
-0.00117833
0.00115564
6.5833e-05
-0.00106806
0.00103979
-7.93153e-06
-0.000914134
0.000926952
-8.81852e-05
-0.000739474
0.00081767
-0.000147618
-0.000555757
0.000721837
-0.000179423
-0.000379087
0.000650853
-0.000200094
-0.000232204
0.000572985
-0.000187997
-0.000110844
0.000520597
-0.000170496
-3.17885e-05
0.000478493
-0.000134925
5.4828e-06
0.000403784
-8.79359e-05
0.000271351
-3.22944e-05
1.80051e-05
0.000139821
-9.56688e-05
8.65144e-05
0.000183367
-0.000169114
0.000136816
0.000266521
-0.000183958
0.000156366
0.000388791
-0.000171165
0.000145933
0.000521841
-0.000162637
0.000116142
0.000694902
-0.000169323
0.000103507
0.000844537
-0.000199589
8.10862e-05
0.00102067
-0.000208892
5.75355e-05
0.0011676
-0.00019106
9.14912e-06
0.001313
-0.000158594
-5.26346e-05
0.00143577
-0.000125233
-0.000123063
0.001538
-8.90571e-05
-0.000195077
0.00161912
-5.20286e-05
-0.000269651
0.00167067
-6.13987e-06
-0.000339943
0.00169695
4.4701e-05
-0.00040596
0.00169767
9.62254e-05
-0.000468907
0.00167691
0.000154455
-0.000547025
0.00163904
0.000220416
-0.000646825
0.00159464
0.000288405
-0.000752815
0.00152801
0.000345149
-0.000863014
0.00150992
0.000387972
-0.000993353
0.00142238
0.000412125
-0.00106198
0.00134985
0.000395059
-0.00115253
0.00132263
0.000385536
-0.00121886
0.0012725
0.000351554
-0.00128021
0.00124326
0.000321968
-0.00132804
0.00120045
0.000278262
-0.00136177
0.00115747
0.000230881
-0.00137281
0.00110142
0.00016579
-0.00132759
0.00104065
6.97735e-05
-0.00124481
0.00096221
-5.2013e-06
-0.00111307
0.000878488
-8.32771e-05
-0.000935107
0.000794979
-0.000155272
-0.000726217
0.000708441
-0.000195495
-0.000500091
0.00065998
-0.000235252
-0.000320236
0.000616047
-0.000222918
-0.000162141
0.000564205
-0.000201703
-5.57836e-05
0.000529848
-0.000157713
-2.51967e-07
0.000450374
-0.000102122
0.000306798
-3.56995e-05
2.84987e-05
0.000237502
-0.000126179
0.000118894
0.000309135
-0.000216163
0.000186417
0.000425521
-0.000226522
0.000214801
0.000559252
-0.000198845
0.000198582
0.000715084
-0.000177023
0.000190094
0.000884351
-0.000180962
0.000191338
0.00103781
-0.000194521
0.000185468
0.00120723
-0.000180693
0.000160267
0.00133952
-0.000146719
0.000118882
0.0014578
-0.000103417
6.90228e-05
0.00155051
-6.48795e-05
1.13055e-05
0.00161405
-1.8331e-05
-5.37404e-05
0.00164669
3.74793e-05
-0.000118026
0.00164668
8.82764e-05
-0.000182532
0.00162083
0.000140628
-0.000249564
0.00156945
0.000195255
-0.000316309
0.00149932
0.000244335
-0.000391408
0.00142458
0.000289562
-0.000483001
0.00134976
0.00033648
-0.000592442
0.00126681
0.00037064
-0.000692188
0.00121501
0.000394659
-0.000843174
0.00117132
0.000402046
-0.000947706
0.0010732
0.000381179
-0.00106686
0.00108075
0.000361041
-0.00117157
0.00104861
0.000328602
-0.00126438
0.00104053
0.000295543
-0.00134466
0.001025
0.000255729
-0.00141048
0.00100311
0.000220186
-0.00144975
0.00097754
0.000163152
-0.00143943
0.000935395
9.49386e-05
-0.00138299
0.000881738
2.40276e-05
-0.00127095
0.000814385
-4.79344e-05
-0.0010917
0.000749766
-0.000134037
-0.000884838
0.000690737
-0.000189158
-0.000641302
0.000645344
-0.0002289
-0.000412797
0.000641076
-0.000253535
-0.00021714
0.000593991
-0.000225444
-8.00248e-05
0.000573244
-0.000180512
-7.01744e-06
0.000492314
-0.000114947
0.000339826
-4.00451e-05
4.83996e-05
0.000343589
-0.000154487
0.000158316
0.000458742
-0.000259523
0.000253145
0.000597215
-0.000266523
0.0002936
0.000738408
-0.000219611
0.000290954
0.000900566
-0.000182836
0.000288387
0.00105729
-0.000170374
0.000279307
0.00120696
-0.000160069
0.000284249
0.00134317
-0.000140888
0.000274271
0.00145225
-0.000102753
0.000240003
0.00154489
-5.28253e-05
0.000194606
0.00159568
2.30244e-07
0.000137942
0.00161511
5.56045e-05
7.04688e-05
0.00160669
0.000107469
2.15787e-06
0.00156169
0.000153302
-6.72987e-05
0.00149207
0.000198218
-0.000141554
0.00140408
0.000239624
-0.000218421
0.00130463
0.000271564
-0.000297418
0.00120936
0.00029422
-0.000388605
0.00112546
0.000315483
-0.000494271
0.00104428
0.000328195
-0.000600569
0.000985688
0.000335621
-0.000742107
0.000976031
0.000336829
-0.000887106
0.000896527
0.000321673
-0.00101367
0.000905077
0.000302234
-0.00114164
0.000894219
0.00028236
-0.00125143
0.000896956
0.000253361
-0.00135355
0.00089326
0.000233857
-0.0014416
0.000888304
0.000202854
-0.00150845
0.000869993
0.000174403
-0.00153415
0.000835984
0.000125102
-0.00150005
0.000787799
5.98414e-05
-0.00140031
0.000735354
-2.07138e-05
-0.00122811
0.000677729
-0.000100158
-0.00100447
0.000635513
-0.000168421
-0.000745617
0.000604262
-0.000217768
-0.000491112
0.000632118
-0.000245548
-0.000271127
0.00061806
-0.000244055
-0.000103189
0.000603649
-0.000198343
-1.52676e-05
0.000533842
-0.00012945
0.000371379
-4.68197e-05
6.6457e-05
0.000444864
-0.000167732
0.000201834
0.000613213
-0.000289847
0.000321823
0.000768819
-0.000291594
0.000377693
0.000911799
-0.000229261
0.000391491
0.00106247
-0.000175699
0.000386336
0.00120011
-0.000137664
0.000378188
0.00133363
-0.000118517
0.000372866
0.00144158
-9.30818e-05
0.000361606
0.0015191
-5.5587e-05
0.000344204
0.00156617
-3.87437e-06
0.000304436
0.00158978
4.56658e-05
0.000233879
0.00157803
0.000107633
0.00016334
0.00152406
0.000153174
8.90423e-05
0.00144217
0.000193822
1.1065e-05
0.00134401
0.000226034
-7.19824e-05
0.00123598
0.000251142
-0.000156329
0.00112478
0.000264198
-0.000244713
0.00102946
0.000268286
-0.000344264
0.000955485
0.000269526
-0.000452859
0.000887545
0.000265332
-0.000569551
0.000837513
0.000264866
-0.000688545
0.000830942
0.000264083
-0.000847867
0.000789816
0.000266034
-0.000973601
0.000778159
0.000252652
-0.00110496
0.000776036
0.000249538
-0.0012198
0.000784436
0.000227362
-0.00133307
0.000781964
0.000224565
-0.00144138
0.000780752
0.000215868
-0.00152871
0.000755751
0.000201567
-0.00157949
0.000725166
0.0001616
-0.00157288
0.000687728
9.34586e-05
-0.00149426
0.000648313
8.42235e-06
-0.00134311
0.000608801
-8.22194e-05
-0.00112051
0.000574367
-0.000161454
-0.000859052
0.000543627
-0.000200826
-0.000569821
0.000571705
-0.000228819
-0.000320277
0.000614332
-0.000245816
-0.000127456
0.000616554
-0.000205726
-2.26642e-05
0.000565657
-0.000136608
0.000399602
-5.08874e-05
8.06248e-05
0.000539243
-0.000175003
0.000244493
0.000760113
-0.000310769
0.000389635
0.000932443
-0.000308766
0.000464483
0.00106824
-0.00023129
0.000493684
0.00119576
-0.000162497
0.000489351
0.00131025
-0.000105804
0.000479783
0.00141824
-7.50406e-05
0.00046317
0.00149639
-3.81947e-05
0.000434491
0.00154917
-1.39332e-06
0.000399805
0.00157005
3.08037e-05
0.000363518
0.00154814
7.79282e-05
0.000307947
0.00149838
0.000135226
0.000232081
0.00142366
0.000176261
0.000144502
0.00131973
0.000210016
5.69494e-05
0.00120186
0.000229706
-3.37333e-05
0.00108825
0.00023842
-0.000127854
0.000979835
0.000239062
-0.000233101
0.000899215
0.000235488
-0.000334255
0.000832161
0.000224477
-0.000442411
0.000778933
0.000216768
-0.000549276
0.0007372
0.000207178
-0.000650855
0.000724352
0.000208169
-0.00079182
0.000710367
0.000220414
-0.000916968
0.00068198
0.000221326
-0.00104185
0.000671015
0.0002299
-0.0011651
0.000674859
0.00023283
-0.00128638
0.000673601
0.00022964
-0.00141368
0.000661101
0.000246956
-0.00152354
0.000640073
0.000225537
-0.00159738
0.000615612
0.000183398
-0.0016253
0.000584652
0.000130989
-0.0015782
0.000558934
4.22773e-05
-0.00144363
0.00052124
-4.70061e-05
-0.00121113
0.000496092
-0.00015422
-0.000930538
0.000474447
-0.000211417
-0.000633195
0.00050231
-0.000227947
-0.000368557
0.000569032
-0.000219338
-0.000151554
0.000619045
-0.000219494
-2.96071e-05
0.000585781
-0.000142071
0.000427772
-5.77768e-05
9.27461e-05
0.000615613
-0.000169116
0.000282057
0.000890755
-0.000319953
0.00045272
0.00107565
-0.000313873
0.000547459
0.00119706
-0.00022356
0.000587493
0.00130123
-0.0001455
0.000588698
0.00138691
-7.78706e-05
0.000576531
0.00146607
-3.56672e-05
0.000547554
0.00151761
7.75339e-06
0.000507445
0.00154502
4.42626e-05
0.000454792
0.00153347
8.92299e-05
0.000397545
0.00149437
0.000111019
0.000330037
0.00141862
0.000147266
0.000261489
0.00131142
0.000180785
0.000177988
0.00119694
0.000206286
8.67978e-05
0.00107748
0.000215574
-7.40694e-06
0.000968237
0.000214213
-0.000106824
0.000869982
0.00020927
-0.00021688
0.000805629
0.000203642
-0.000321387
0.000743232
0.000193436
-0.000428957
0.000702457
0.000184047
-0.000527515
0.00066064
0.000175118
-0.000615315
0.000637166
0.000174987
-0.000719831
0.000623659
0.000191224
-0.000835406
0.000593252
0.000204303
-0.000953991
0.000570741
0.000218858
-0.00107179
0.000561603
0.000231051
-0.00120738
0.000551405
0.000257788
-0.00134539
0.000540911
0.000258204
-0.00147191
0.000525216
0.000241371
-0.00157607
0.000510733
0.000209043
-0.00162524
0.000495756
0.00013806
-0.00160891
0.000478986
6.36248e-05
-0.00151158
0.00044357
-1.96646e-05
-0.00132432
0.000418692
-0.000109858
-0.00103501
0.000404663
-0.000219525
-0.000704445
0.00042161
-0.000249866
-0.000402603
0.0004923
-0.000225109
-0.000174281
0.000588731
-0.000198007
-3.67706e-05
0.000593325
-0.000145055
0.000451343
-6.03416e-05
9.96836e-05
0.000675168
-0.000159239
0.000310903
0.000997136
-0.000317601
0.000507744
0.00118937
-0.000310556
0.000621268
0.00129741
-0.000213871
0.000668499
0.0013798
-0.000125797
0.000674364
0.00143878
-5.77309e-05
0.00065917
0.00148622
-4.94939e-06
0.000623129
0.00150828
4.53756e-05
0.0005713
0.00150903
8.78216e-05
0.000504903
0.00147841
0.000121456
0.000430269
0.00141691
0.000152094
0.000349899
0.00132636
0.000172628
0.000270894
0.00121257
0.000177856
0.000189378
0.00108922
0.000189243
9.92076e-05
0.000973057
0.000194589
1.14305e-05
0.000868872
0.000187142
-8.94107e-05
0.000787043
0.000183779
-0.0001915
0.000727333
0.000180385
-0.000295322
0.000670864
0.00017619
-0.000393179
0.000631598
0.000168717
-0.000480713
0.000586646
0.000161528
-0.000556538
0.000554568
0.000158423
-0.000635871
0.000532495
0.000170498
-0.000729612
0.000498446
0.000188546
-0.000841847
0.000472893
0.000210084
-0.00096238
0.000443788
0.000238347
-0.00109878
0.000431491
0.000256308
-0.001242
0.000423298
0.000260836
-0.00138431
0.0004156
0.000251926
-0.00150541
0.000416096
0.000215738
-0.00159698
0.000410341
0.000176983
-0.00161552
0.000386516
0.000111012
-0.00156263
0.000343681
4.70019e-05
-0.00140479
0.000305852
-4.50043e-05
-0.00114274
0.00029621
-0.000153593
-0.00079586
0.000324161
-0.000249434
-0.000454265
0.000409113
-0.000258408
-0.00019627
0.000522257
-0.000191521
-4.396e-05
0.00058834
-0.000147324
0.000473866
-6.6483e-05
0.000105378
0.00070954
-0.00013975
0.00033701
0.00107308
-0.000307575
0.000556522
0.00127473
-0.000304877
0.000686467
0.0013701
-0.000202633
0.000741073
0.00143008
-0.00010489
0.000746068
0.00146487
-3.10911e-05
0.000726516
0.0014867
1.90697e-05
0.000680682
0.0014794
7.47097e-05
0.000622459
0.00145542
0.000111836
0.000551677
0.00140278
0.000146416
0.000466849
0.0013288
0.000172939
0.000372054
0.00122925
0.000191906
0.000277082
0.00111492
0.000192622
0.000194145
0.000991535
0.000180619
0.000108399
0.000881942
0.00017686
2.81387e-05
0.000786142
0.000162992
-6.81606e-05
0.000715813
0.00016753
-0.000159116
0.000652326
0.000165963
-0.00025554
0.000601449
0.00016584
-0.00033732
0.000553774
0.000159604
-0.000413714
0.000510271
0.00015277
-0.000484959
0.000476423
0.000149389
-0.00054953
0.000444392
0.000152674
-0.000625418
0.000404052
0.000170282
-0.000717051
0.000373997
0.000190529
-0.000831263
0.000338833
0.000219167
-0.00095795
0.000313466
0.000244711
-0.00109825
0.000312
0.000251594
-0.00124568
0.000319288
0.00024375
-0.00139606
0.000327437
0.000239029
-0.00151251
0.000313848
0.000212946
-0.00158546
0.000272825
0.000186644
-0.00158179
0.000217813
0.000122201
-0.00147223
0.000165863
3.04254e-05
-0.00123536
0.000138507
-7.91677e-05
-0.000895708
0.000174093
-0.000189583
-0.000513731
0.00029011
-0.000262973
-0.000222135
0.000450201
-0.000219539
-4.98746e-05
0.000561979
-0.000145899
0.000495114
-7.11229e-05
0.000106367
0.000725383
-0.000122211
0.000351633
0.00112047
-0.000292661
0.000590034
0.00133343
-0.000297103
0.000736587
0.00142161
-0.000198064
0.000797085
0.00146062
-9.10383e-05
0.000799759
0.00146904
-6.83942e-06
0.000774396
0.00146047
5.15905e-05
0.000727903
0.00143256
9.33298e-05
0.000662365
0.00138971
0.00013124
0.000581208
0.00132157
0.000162363
0.000489029
0.0012355
0.00018548
0.000390178
0.00112964
0.000198458
0.000289914
0.00101586
0.000199329
0.000199774
0.000900398
0.000181277
0.000118727
0.000799595
0.000163395
4.27522e-05
0.000709235
0.000152882
-4.25013e-05
0.000646823
0.000154245
-0.000127071
0.000581942
0.000154954
-0.000206152
0.000527975
0.000152556
-0.000276106
0.000477321
0.000146408
-0.000345997
0.000435425
0.000144737
-0.000405704
0.000395584
0.000140546
-0.000460292
0.000358533
0.000140447
-0.000520753
0.00031668
0.000147833
-0.000592376
0.000281879
0.00016374
-0.000695259
0.000250152
0.000191563
-0.000810065
0.000215943
0.00021233
-0.000939886
0.000216002
0.000225818
-0.00109253
0.000232341
0.000239587
-0.00123974
0.000229796
0.00024485
-0.00138335
0.000205464
0.000252003
-0.00149609
0.000161157
0.000224405
-0.0015458
9.50123e-05
0.000172505
-0.00149413
2.29498e-05
9.12473e-05
-0.00130978
-2.88342e-05
-1.70117e-05
-0.000999635
-1.22535e-05
-0.000123796
-0.00059419
0.000109295
-0.00022463
-0.00024582
0.000351759
-0.000249927
-5.94117e-05
0.000517798
-0.000142226
0.000506226
-7.05231e-05
0.000113642
0.000695022
-8.32812e-05
0.000369705
0.00112191
-0.000257499
0.000620693
0.00135123
-0.000268779
0.000780724
0.00143634
-0.000174767
0.000848447
0.00146264
-6.97412e-05
0.000844069
0.0014486
2.48124e-05
0.000811816
0.00142015
7.25706e-05
0.000756882
0.00136996
0.00011754
0.000690179
0.00131084
0.000145577
0.000613641
0.00123111
0.000167002
0.000522513
0.00113966
0.000186966
0.000418641
0.00103545
0.000198066
0.00031153
0.000926573
0.000196394
0.000210702
0.000818922
0.000182305
0.000125389
0.000724827
0.000160081
4.53188e-05
0.000641352
0.000147954
-2.02953e-05
0.00056515
0.000147287
-8.31627e-05
0.000502204
0.000142605
-0.000151499
0.000456724
0.000139588
-0.000216169
0.00040791
0.00013408
-0.000276954
0.000362828
0.000133383
-0.000329351
0.000319956
0.000128025
-0.000378511
0.000281927
0.000125765
-0.000428635
0.000238258
0.000128546
-0.000485478
0.000203617
0.000135105
-0.00056693
0.000169697
0.000161907
-0.000668252
0.00013547
0.000181794
-0.000787038
0.000131572
0.000203215
-0.000922639
0.000138285
0.000229657
-0.00107475
0.000123712
0.000258198
-0.00123343
9.72778e-05
0.000266867
-0.0013756
4.61484e-05
0.000257171
-0.00146967
-2.88535e-05
0.000217944
-0.00147176
-0.000123233
0.000148269
-0.00134807
-0.000202941
5.04202e-05
-0.00107474
-0.000225253
-6.03368e-05
-0.000687333
-0.00011718
-0.000160931
-0.000282287
0.000166044
-0.000219332
-6.24777e-05
0.000456348
-0.00015836
0.000513864
-7.01143e-05
0.000112403
0.000625753
-4.31344e-05
0.000372627
0.00109627
-0.000234581
0.000635841
0.00134353
-0.000255516
0.000814487
0.00142523
-0.000167534
0.000888385
0.00143536
-4.66143e-05
0.00088565
0.00140288
4.84558e-05
0.000851235
0.00135324
0.000101331
0.000795499
0.00129005
0.000135642
0.000718184
0.00123074
0.000157413
0.000623488
0.00115119
0.000174611
0.000521699
0.00105688
0.000184563
0.000418439
0.000944369
0.000194339
0.000320613
0.000835633
0.000188767
0.000237786
0.000728207
0.000173542
0.000168474
0.000638149
0.00015599
9.75552e-05
0.000563829
0.000148442
1.58836e-05
0.000504364
0.000142458
-5.77469e-05
0.000446052
0.000129783
-0.000116325
0.000395363
0.000119939
-0.00016694
0.00034342
0.000115106
-0.000214973
0.000297889
0.000112973
-0.000261416
0.000255118
0.000111281
-0.000304343
0.000215661
0.000109192
-0.0003517
0.00017507
0.000110544
-0.000398842
0.000139349
0.00011141
-0.000464532
9.56701e-05
0.000139716
-0.000553938
5.83019e-05
0.000166573
-0.000652392
3.53086e-05
0.000194717
-0.000764758
2.32031e-05
0.000227448
-0.000901897
4.64681e-06
0.000256204
-0.00105611
-2.27289e-05
0.00027422
-0.00121071
-7.23318e-05
0.000273084
-0.00133784
-0.000148188
0.000246461
-0.00139551
-0.000254313
0.00018875
-0.00133782
-0.000361606
0.000100979
-0.00113108
-0.000429848
-2.1518e-06
-0.000777475
-0.000361009
-0.000109772
-0.000358705
-8.13046e-05
-0.000171422
-6.73252e-05
0.000338515
-0.000173549
0.000502654
-5.61169e-05
0.000123185
0.000496855
5.7129e-06
0.000369676
0.00103495
-0.000185177
0.000643862
0.00129632
-0.000226977
0.000833262
0.00138295
-0.000147121
0.000912033
0.00138725
-3.06641e-05
0.000902758
0.00134595
6.6212e-05
0.00085245
0.00128204
0.000121511
0.00078051
0.00120578
0.00015621
0.000707622
0.0011235
0.000180127
0.000638875
0.0010284
0.000191537
0.00056497
0.000936287
0.000194503
0.000478665
0.000838741
0.000191934
0.000384479
0.000749922
0.000179896
0.000294122
0.000664042
0.000154522
0.000207523
0.000588892
0.000135856
0.000126455
0.000514283
0.000130614
4.50637e-05
0.000452436
0.00013332
-1.90315e-05
0.000391409
0.000118738
-7.15221e-05
0.000339152
0.000108702
-0.000115628
0.000287228
0.000100298
-0.000158505
0.000241578
9.91891e-05
-0.00019917
0.000198986
9.67957e-05
-0.000238912
0.000160569
9.48334e-05
-0.000281394
0.000121956
9.55961e-05
-0.000322653
8.17878e-05
9.88201e-05
-0.000380483
3.43011e-05
0.000119199
-0.00045147
-1.0406e-05
0.000139694
-0.000539914
-4.66046e-05
0.000170357
-0.000642146
-8.32815e-05
0.000208717
-0.000773336
-0.000106294
0.00024213
-0.000922879
-0.000149558
0.000276373
-0.00107701
-0.000216469
0.000298271
-0.00121968
-0.000300356
0.000294834
-0.00130819
-0.000420606
0.000254803
-0.00130191
-0.000552654
0.000184768
-0.00113153
-0.000701542
0.000101312
-0.000800593
-0.000685345
-6.59615e-06
-0.000384921
-0.000377403
-0.000119573
-5.87847e-05
0.000151418
-0.000139039
0.000479649
-3.57799e-05
0.000133822
0.000332351
3.06822e-05
0.00035844
0.000956383
-0.000146051
0.000634201
0.00122523
-0.000204671
0.000830401
0.00131538
-0.000128633
0.000924552
0.00130321
-1.01153e-05
0.000934137
0.00124973
8.66336e-05
0.00090685
0.00116919
0.000140128
0.000856563
0.00108842
0.000167642
0.000789076
0.00101445
0.000176535
0.000700347
0.00093631
0.00018082
0.000601713
0.000855756
0.000179165
0.00049776
0.000769194
0.0001735
0.00039649
0.000687172
0.00016402
0.000304478
0.00061053
0.000145523
0.000229658
0.00053924
0.000124473
0.000163375
0.000471794
0.000108772
9.83208e-05
0.000409623
0.000107867
3.30614e-05
0.000346115
0.000110554
-1.8577e-05
0.000290328
0.000100463
-6.40112e-05
0.000241726
9.09361e-05
-0.000105401
0.000194946
8.8021e-05
-0.00014541
0.00015386
8.5135e-05
-0.000181179
0.000113023
8.33135e-05
-0.000220889
7.71164e-05
8.45492e-05
-0.000262196
3.43551e-05
8.87391e-05
-0.000317411
-1.00973e-05
9.96132e-05
-0.0003794
-5.76041e-05
0.000109187
-0.000450474
-0.000109072
0.000133541
-0.000530264
-0.000168787
0.000165296
-0.000619708
-0.000226896
0.000210047
-0.000733093
-0.000289567
0.000253395
-0.000878298
-0.00036326
0.000291996
-0.00104865
-0.000440959
0.000310958
-0.00119345
-0.000584864
0.000309058
-0.00125387
-0.00075957
0.000267334
-0.0011862
-0.00094753
0.000178318
-0.000942672
-0.000998553
6.96766e-05
-0.000506686
-0.000780328
-3.30614e-05
-0.000104316
-0.000168894
-8.20575e-05
0.000377897
-2.56414e-06
0.000100911
0.00022056
1.08792e-05
0.000327797
0.000866396
-0.000136899
0.000611263
0.0011448
-0.000203038
0.000823941
0.00124422
-0.000141519
0.000929098
0.00123065
-3.25917e-05
0.000947506
0.00117081
6.05121e-05
0.000904517
0.00108082
0.00013136
0.000837266
0.00100016
0.000155518
0.000764959
0.000921299
0.000165462
0.000686876
0.000845057
0.000169336
0.000605827
0.00076946
0.000167346
0.000518244
0.000695619
0.000161159
0.000432392
0.000623604
0.00014942
0.000349321
0.000559744
0.000133857
0.00027103
0.000495948
0.000121582
0.000204979
0.000437696
0.00010015
0.000149398
0.000375392
8.98112e-05
9.12271e-05
0.000317455
8.68306e-05
3.32296e-05
0.000257696
9.06289e-05
-1.26686e-05
0.000201717
8.59073e-05
-5.65937e-05
0.000159269
7.96027e-05
-9.54144e-05
0.000113984
7.86963e-05
-0.000133237
7.52696e-05
7.55753e-05
-0.000168797
3.69808e-05
7.56952e-05
-0.000209483
-8.5502e-06
8.35903e-05
-0.000256686
-4.90973e-05
8.62041e-05
-0.000311634
-9.63214e-05
9.36649e-05
-0.000374876
-0.000150771
0.000104941
-0.000457238
-0.000213134
0.000126708
-0.000556709
-0.000286222
0.000158795
-0.000667875
-0.000379976
0.000201574
-0.000781286
-0.000501188
0.000251339
-0.000896572
-0.000628791
0.000303118
-0.00101193
-0.000803227
0.000333718
-0.0011022
-0.000999679
0.000330383
-0.00109401
-0.00122547
0.000269753
-0.000919344
-0.00133404
0.000160816
-0.000560652
-0.00118777
4.87485e-05
-0.00013174
-0.000570399
-2.74081e-05
0.00018601
6.01455e-05
7.29701e-05
0.00014169
5.8993e-06
0.000309126
0.000762747
-0.000132508
0.000576589
0.00106412
-0.000186783
0.00080111
0.00117202
-0.000152314
0.000919344
0.0011597
-4.72911e-05
0.00095288
0.00109383
4.34448e-05
0.000917778
0.000999685
0.00011624
0.000860761
0.000915002
0.000142171
0.000796036