/*--------------------------------*- C++ -*----------------------------------*\
| =========                 |                                                 |
| \\      /  F ield         | OpenFOAM: The Open Source CFD Toolbox           |
|  \\    /   O peration     | Version:  v1806                                 |
|   \\  /    A nd           | Web:      www.OpenFOAM.com                      |
|    \\/     M anipulation  |                                                 |
\*---------------------------------------------------------------------------*/
FoamFile
{
    version     2.0;
    format      ascii;
    class       volVectorField;
    location    "0.044";
    object      U;
}
// * * * * * * * * * * * * * * * * * * * * * * * * * * * * * * * * * * * * * //

dimensions      [0 1 -1 0 0 0 0];


internalField   nonuniform List<vector> 
64000
(
(-0.00689007 -0.00788153 -0.0037635)
(0.0142615 -0.0085185 -0.00156874)
(0.0258871 -0.00456957 0.00192847)
(0.027573 -0.00423571 0.00182293)
(0.023588 -0.00320201 0.00285203)
(0.0224387 -0.0030118 0.00385591)
(0.0210897 -0.00365009 0.00377434)
(0.0173238 -0.00401473 0.00384917)
(0.0151746 -0.00513129 0.0050087)
(0.00868227 -0.00415547 0.00451238)
(0.00158287 -0.00625861 0.00604991)
(-0.0141408 -0.00896389 0.00684516)
(-0.0352891 -0.0134932 0.00682129)
(-0.0609507 -0.0177249 0.00448088)
(-0.0951909 -0.0171473 0.00538685)
(-0.129625 -0.0111003 0.00363057)
(-0.168058 0.0027817 0.0029428)
(-0.206088 -0.00279343 0.00131263)
(-0.225838 -0.0103072 0.00557674)
(-0.267823 -0.0279202 -0.0142948)
(-0.246806 -0.0295102 -0.0322174)
(-0.122498 -0.0265242 -0.0392697)
(-0.0917468 -0.0158507 -0.0310232)
(-0.094423 -0.00595839 -0.0370109)
(-0.0927816 0.000434141 -0.0487831)
(-0.0955223 0.0100644 -0.0566751)
(-0.0767978 0.0193729 -0.0622129)
(-0.0497 0.0315326 -0.0564981)
(-0.0163134 0.0385066 -0.0501852)
(0.0262918 0.0540517 -0.0308911)
(0.0754187 0.0427391 -0.0310161)
(0.107146 0.0355206 -0.0215791)
(0.121639 0.024791 -0.00987148)
(0.117122 0.0104881 -0.00300221)
(0.101473 0.00284553 0.00291092)
(0.0798951 -0.00546065 0.00524345)
(0.0568461 -0.00804308 0.00767395)
(0.0343336 -0.00668921 0.00848116)
(0.0176764 -0.00495165 0.0085577)
(0.00311013 -0.00345541 0.00669302)
(-0.00489109 -0.00430443 -0.00133374)
(0.0121269 -0.0172472 -0.00109701)
(0.0332034 -0.0146165 0.000449925)
(0.0412367 -0.0105062 -0.00065191)
(0.0410536 -0.004949 0.000563925)
(0.0394269 -0.00166597 -0.000544503)
(0.036768 0.00283861 -0.00234083)
(0.0290069 0.00510922 -0.00204925)
(0.021842 0.0104448 -0.00710077)
(0.00419494 0.0170619 -0.00409206)
(-0.0212481 0.0241616 -0.00794768)
(-0.0596908 0.032704 0.000163605)
(-0.108289 0.0451172 -0.00406181)
(-0.160221 0.0679155 -0.00658122)
(-0.220306 0.0787273 -0.0100848)
(-0.281269 0.0869928 -0.0189505)
(-0.374123 0.0927714 -0.0421077)
(-0.472892 0.0963534 -0.0568198)
(-0.540184 0.101095 -0.0747846)
(-0.607133 0.0994529 -0.098759)
(-0.58066 0.119329 -0.110555)
(-0.435748 0.138036 -0.127963)
(-0.386196 0.17711 -0.143682)
(-0.375844 0.20911 -0.149548)
(-0.347394 0.233307 -0.1605)
(-0.316724 0.257115 -0.165992)
(-0.258049 0.276131 -0.167541)
(-0.192696 0.293025 -0.15623)
(-0.11291 0.299631 -0.135238)
(-0.0467273 0.307863 -0.110478)
(0.0207359 0.288345 -0.0743228)
(0.0877451 0.258473 -0.0478612)
(0.120633 0.205195 -0.0385453)
(0.133263 0.158123 -0.0273332)
(0.126652 0.107596 -0.0132345)
(0.105486 0.0671652 -0.00546374)
(0.0839287 0.039319 -0.000982223)
(0.0573607 0.0245823 0.00035289)
(0.0336379 0.0148209 0.00209677)
(0.00914376 0.00601098 0.00374493)
(-0.000193441 -0.0126736 0.0018505)
(0.0168933 -0.0248215 -0.000473923)
(0.0403472 -0.0204787 -0.000680794)
(0.0507524 -0.00956168 -0.000629177)
(0.0476606 0.00374379 -0.00303466)
(0.0433794 0.0157655 -0.00473002)
(0.0348675 0.0312072 -0.00651437)
(0.0200199 0.0452037 -0.00866017)
(0.00399176 0.0691292 -0.00158008)
(-0.0263531 0.0915637 -0.00463822)
(-0.0652064 0.12087 -0.00834364)
(-0.117769 0.154835 -0.0128974)
(-0.173862 0.185625 -0.0167823)
(-0.256959 0.2087 -0.031157)
(-0.362824 0.226394 -0.033257)
(-0.457994 0.238963 -0.0427214)
(-0.551728 0.245691 -0.0576223)
(-0.633219 0.268765 -0.0737314)
(-0.693207 0.296187 -0.0915409)
(-0.744971 0.328614 -0.11313)
(-0.704978 0.365792 -0.117305)
(-0.535884 0.393365 -0.122451)
(-0.461334 0.446028 -0.130301)
(-0.440704 0.484 -0.123923)
(-0.403836 0.513883 -0.125408)
(-0.369229 0.537617 -0.122686)
(-0.310545 0.549831 -0.118475)
(-0.249443 0.553475 -0.10525)
(-0.178551 0.543512 -0.0842144)
(-0.115751 0.523684 -0.0609705)
(-0.0592539 0.498734 -0.0396472)
(-0.0197907 0.45053 -0.0276577)
(0.0156652 0.379544 -0.0127623)
(0.0416916 0.306031 -0.00755504)
(0.0476824 0.229157 -0.0106256)
(0.0517731 0.163007 -0.0102779)
(0.0500898 0.112924 -0.00680837)
(0.0399998 0.0751025 -0.00436071)
(0.0277789 0.048801 -0.000539536)
(0.00891105 0.0211106 0.00277974)
(0.000447991 -0.0190053 0.00182485)
(0.0193541 -0.0290757 -0.00256787)
(0.0453867 -0.0170557 -0.00180285)
(0.0556265 0.000999148 -0.00560813)
(0.0499683 0.0266978 -0.00604701)
(0.0411018 0.0555181 -0.00718713)
(0.0262067 0.0907667 -0.0073264)
(0.00687904 0.12617 -0.00425388)
(-0.0180586 0.17194 -0.00938664)
(-0.0615889 0.211696 -0.0116824)
(-0.109973 0.248722 -0.0158862)
(-0.18207 0.275143 -0.0225779)
(-0.274461 0.302244 -0.0255668)
(-0.364788 0.316715 -0.0278343)
(-0.450843 0.34199 -0.0293489)
(-0.53002 0.370348 -0.0379547)
(-0.609315 0.400835 -0.0496994)
(-0.677712 0.432986 -0.0573589)
(-0.721866 0.468957 -0.0657689)
(-0.757647 0.51036 -0.0739475)
(-0.705377 0.543686 -0.0610266)
(-0.516669 0.563404 -0.0475047)
(-0.427573 0.601247 -0.0467961)
(-0.408232 0.61835 -0.030661)
(-0.374609 0.627782 -0.0259799)
(-0.349503 0.630973 -0.0195568)
(-0.303907 0.621231 -0.0162712)
(-0.259656 0.602907 -0.00975364)
(-0.207086 0.57761 0.00128257)
(-0.161799 0.544616 0.00867681)
(-0.127454 0.506868 0.0142458)
(-0.103809 0.46337 0.0138207)
(-0.085505 0.416372 0.00885818)
(-0.0618101 0.351927 0.0012599)
(-0.0408309 0.277486 -0.00326068)
(-0.0184363 0.203165 -0.00896379)
(0.000965887 0.145372 -0.00982589)
(0.0105714 0.108183 -0.00694078)
(0.0177289 0.0738101 -0.00279996)
(0.00745687 0.0315491 0.00231899)
(0.00171247 -0.0209603 0.000870334)
(0.0252006 -0.0223481 -0.00471387)
(0.0539944 -0.00322045 -0.003481)
(0.0654405 0.0288585 -0.00517571)
(0.0610646 0.0713812 -0.00549833)
(0.0516821 0.121152 -0.014225)
(0.0307694 0.183419 -0.0113582)
(0.00339888 0.234149 -0.00423893)
(-0.0331276 0.279226 -0.00686708)
(-0.0957752 0.311981 -0.00902031)
(-0.167278 0.340757 -0.0122794)
(-0.240387 0.361084 -0.0144074)
(-0.309358 0.390222 -0.0174023)
(-0.384653 0.423147 -0.0201056)
(-0.459892 0.458507 -0.0176543)
(-0.526933 0.491277 -0.0200996)
(-0.589706 0.525882 -0.0204788)
(-0.637796 0.560306 -0.0165809)
(-0.663121 0.598003 -0.0145774)
(-0.688005 0.638823 -0.0222974)
(-0.636073 0.666853 -0.0076857)
(-0.442666 0.677229 0.0133793)
(-0.350581 0.687152 0.0194923)
(-0.339009 0.674897 0.036379)
(-0.31796 0.653655 0.0384736)
(-0.311202 0.630709 0.0455749)
(-0.287649 0.597067 0.046388)
(-0.261352 0.561243 0.0497047)
(-0.229923 0.520867 0.0436922)
(-0.205796 0.481025 0.0366202)
(-0.183718 0.437617 0.0272623)
(-0.169842 0.40042 0.0196661)
(-0.161326 0.367185 0.0124937)
(-0.157052 0.33405 0.00133339)
(-0.146553 0.278562 -0.0106594)
(-0.107516 0.204345 -0.0117088)
(-0.0528613 0.157364 -0.0120108)
(-0.0168423 0.126207 -0.0104401)
(0.00294407 0.0913624 -0.0047273)
(0.00462328 0.039139 0.00239486)
(0.00527188 -0.0208159 0.00084642)
(0.0322043 -0.0122704 -0.00414592)
(0.0665327 0.0147055 -0.00444461)
(0.0845734 0.0612175 -0.0076577)
(0.0817246 0.112326 -0.00980889)
(0.0758959 0.178992 -0.0184076)
(0.0440333 0.240557 -0.0115965)
(-0.0100406 0.285615 0.000561031)
(-0.0663006 0.324224 -0.00405702)
(-0.1319 0.360208 -0.00578353)
(-0.189349 0.397585 -0.00805951)
(-0.24906 0.437244 -0.00825594)
(-0.308652 0.474545 -0.00651201)
(-0.36597 0.506337 -0.00278037)
(-0.421793 0.539786 0.0039089)
(-0.468695 0.571624 0.00879432)
(-0.513549 0.605191 0.00622201)
(-0.549187 0.640077 0.0109342)
(-0.564875 0.681976 0.0112916)
(-0.582057 0.713657 0.00884246)
(-0.528358 0.738364 0.0246105)
(-0.348234 0.696687 0.0463814)
(-0.273092 0.668512 0.0517177)
(-0.281396 0.628087 0.0696176)
(-0.277903 0.581332 0.0742255)
(-0.288336 0.542151 0.0762489)
(-0.282501 0.497706 0.0732058)
(-0.276395 0.456739 0.0690126)
(-0.260793 0.410146 0.0660045)
(-0.250437 0.371628 0.0480445)
(-0.242098 0.330666 0.037307)
(-0.230202 0.29829 0.0243044)
(-0.219369 0.272951 0.0113396)
(-0.217531 0.253305 0.00348823)
(-0.225877 0.231614 -0.0114919)
(-0.17557 0.18978 -0.0122672)
(-0.0907159 0.157751 -0.0138839)
(-0.0391456 0.131718 -0.0113304)
(-0.00378631 0.0990512 -0.00614455)
(0.00376519 0.0415917 0.00255942)
(0.00794495 -0.0181208 -3.22957e-05)
(0.0403314 0.000351693 -0.00817065)
(0.0835872 0.0372825 -0.00926363)
(0.104064 0.0896565 -0.00820956)
(0.105515 0.142871 -0.00950361)
(0.0924894 0.215799 -0.011451)
(0.0388181 0.25078 0.000275855)
(-0.0175459 0.298583 0.00364173)
(-0.0616968 0.347384 -0.000160101)
(-0.115737 0.399682 -0.00174055)
(-0.165794 0.448973 -0.0023038)
(-0.214364 0.493022 -0.000432513)
(-0.261361 0.531208 0.00169595)
(-0.307738 0.567444 0.00882301)
(-0.349164 0.600154 0.0130802)
(-0.383638 0.62991 0.0200148)
(-0.413306 0.653802 0.0256554)
(-0.427095 0.678602 0.029328)
(-0.437603 0.706735 0.0240627)
(-0.455899 0.722456 0.0189212)
(-0.45649 0.736668 0.0251082)
(-0.321081 0.658196 0.0478812)
(-0.231648 0.57783 0.0498956)
(-0.249362 0.530729 0.0643136)
(-0.257697 0.480013 0.0671627)
(-0.281078 0.444335 0.0679836)
(-0.292446 0.406313 0.0641802)
(-0.301834 0.37138 0.0592466)
(-0.299608 0.334251 0.0483472)
(-0.299857 0.300124 0.0359996)
(-0.297597 0.267757 0.0226998)
(-0.287494 0.240865 0.0123589)
(-0.277983 0.221371 0.00138316)
(-0.271648 0.208271 -0.00398228)
(-0.273192 0.208479 -0.0138114)
(-0.224009 0.193564 -0.0194026)
(-0.127368 0.163769 -0.0204505)
(-0.0560708 0.143248 -0.0163477)
(-0.00998416 0.107907 -0.00907534)
(0.00405501 0.045683 0.00118478)
(0.008818 -0.00954453 7.594e-05)
(0.0469164 0.0217519 -0.0130487)
(0.09911 0.0695544 -0.014025)
(0.123018 0.12224 -0.0097433)
(0.130267 0.181792 -0.0120072)
(0.0990105 0.239582 -0.00786955)
(0.0397634 0.274454 0.001857)
(0.00425895 0.332061 0.00588476)
(-0.0347069 0.379852 0.00273617)
(-0.0805047 0.433941 0.00395383)
(-0.121276 0.477655 0.00571089)
(-0.162618 0.514838 0.0109314)
(-0.197213 0.547096 0.0176452)
(-0.227035 0.575833 0.0225199)
(-0.257861 0.599693 0.0273198)
(-0.284455 0.617429 0.0316525)
(-0.309288 0.629716 0.0341048)
(-0.32265 0.638369 0.0352486)
(-0.338821 0.63733 0.0276557)
(-0.362039 0.627993 0.0196116)
(-0.397722 0.619663 0.0148147)
(-0.327976 0.577962 0.0313709)
(-0.237154 0.465688 0.0320604)
(-0.238592 0.428008 0.0414335)
(-0.25723 0.386539 0.0464246)
(-0.287039 0.360468 0.0486531)
(-0.309987 0.332862 0.048884)
(-0.329421 0.30434 0.0449611)
(-0.336923 0.274454 0.0375412)
(-0.344194 0.243148 0.0178446)
(-0.346967 0.211624 0.0121868)
(-0.337533 0.186731 0.00264685)
(-0.324422 0.171715 -0.00392092)
(-0.307659 0.167162 -0.00833275)
(-0.31103 0.181708 -0.016713)
(-0.270446 0.194823 -0.0204086)
(-0.161103 0.170268 -0.0219849)
(-0.0734546 0.151784 -0.0178952)
(-0.014696 0.116038 -0.0098184)
(0.00518094 0.0486813 0.00150201)
(0.00791644 0.00203141 -0.00424223)
(0.0548894 0.0521778 -0.0197625)
(0.117185 0.107049 -0.0186838)
(0.147043 0.161109 -0.0132902)
(0.149584 0.217869 -0.0143891)
(0.111993 0.257652 -0.00663064)
(0.0639544 0.309051 -5.51173e-05)
(0.0320933 0.364212 0.00645408)
(0.00429145 0.404287 0.012856)
(-0.0292625 0.4456 0.0123846)
(-0.0690066 0.482197 0.0165703)
(-0.0984651 0.509857 0.0220759)
(-0.123212 0.53177 0.0283887)
(-0.148221 0.54347 0.0322288)
(-0.173131 0.547766 0.0337991)
(-0.196741 0.545993 0.034731)
(-0.220718 0.538432 0.0340273)
(-0.242823 0.533547 0.0315078)
(-0.275327 0.521939 0.0231732)
(-0.30876 0.507266 0.01393)
(-0.352088 0.489294 0.00468984)
(-0.343457 0.481892 0.00975381)
(-0.271412 0.393984 0.0176601)
(-0.243102 0.351194 0.0184866)
(-0.265477 0.324426 0.0250957)
(-0.297444 0.304077 0.0301093)
(-0.329534 0.284584 0.0335814)
(-0.356699 0.257524 0.0344634)
(-0.372644 0.231468 0.0225623)
(-0.388191 0.196418 0.0107903)
(-0.392263 0.171105 0.000894267)
(-0.380259 0.148414 -0.00414261)
(-0.364531 0.133872 -0.0106933)
(-0.338846 0.136984 -0.0163832)
(-0.321931 0.145308 -0.0194632)
(-0.2949 0.185557 -0.025868)
(-0.197371 0.172518 -0.0258355)
(-0.0900439 0.160673 -0.0239067)
(-0.0200098 0.125663 -0.0127851)
(0.00557329 0.0541796 -0.00023515)
(0.00815212 0.019281 -0.00852987)
(0.0607973 0.0926937 -0.0278078)
(0.13369 0.152333 -0.0274587)
(0.167627 0.203512 -0.016501)
(0.164315 0.247073 -0.014618)
(0.133687 0.284249 -0.00903678)
(0.100883 0.337452 -0.00255962)
(0.0711042 0.383531 0.0131656)
(0.0395569 0.42103 0.0183103)
(0.0158897 0.447599 0.0270825)
(-0.00960704 0.468225 0.026075)
(-0.037674 0.48201 0.0338538)
(-0.0607776 0.487437 0.0387081)
(-0.082875 0.480259 0.0410158)
(-0.107781 0.465452 0.0384672)
(-0.134225 0.444826 0.034588)
(-0.159659 0.419652 0.0299816)
(-0.184371 0.405315 0.0235008)
(-0.224072 0.387143 0.0144067)
(-0.271491 0.383673 0.00706468)
(-0.318927 0.382591 -0.00031814)
(-0.341213 0.393953 -0.00113787)
(-0.304647 0.363161 0.00624576)
(-0.261429 0.31276 0.00539584)
(-0.270842 0.283633 0.010822)
(-0.30384 0.267655 0.0188909)
(-0.340882 0.244818 0.0253946)
(-0.37423 0.22364 0.0275567)
(-0.397448 0.191056 0.0215061)
(-0.412753 0.162043 0.00879581)
(-0.416969 0.132764 0.0115978)
(-0.41399 0.111461 0.0177087)
(-0.394415 0.0919972 0.0161151)
(-0.372093 0.0929477 0.00893921)
(-0.346049 0.107195 -0.011081)
(-0.315281 0.14993 -0.0231139)
(-0.224694 0.171204 -0.0237408)
(-0.106201 0.159933 -0.0217529)
(-0.0250944 0.133817 -0.0123673)
(0.00673433 0.0575946 0.000590455)
(0.00869406 0.0374634 -0.011167)
(0.0684339 0.133572 -0.0337828)
(0.148408 0.197455 -0.0319804)
(0.182445 0.238781 -0.0175292)
(0.181598 0.275041 -0.0136381)
(0.164371 0.312624 -0.0108603)
(0.139454 0.356506 -0.00122033)
(0.110536 0.39162 0.00703203)
(0.0858552 0.420992 0.0146777)
(0.0590914 0.440899 0.029787)
(0.0319424 0.447689 0.0378916)
(0.0144653 0.447267 0.0462647)
(-0.00691645 0.434164 0.0474642)
(-0.0341804 0.411466 0.0470696)
(-0.0623426 0.386122 0.0399011)
(-0.0945074 0.355676 0.0308662)
(-0.120401 0.324362 0.0229678)
(-0.151243 0.307008 0.0112003)
(-0.19181 0.283852 0.00630337)
(-0.228234 0.287466 0.00368643)
(-0.274677 0.31203 -1.23026e-05)
(-0.310978 0.339611 -0.00127701)
(-0.311043 0.345027 0.00129156)
(-0.285617 0.305937 0.00133876)
(-0.276406 0.260794 0.00287138)
(-0.30326 0.238349 0.0110945)
(-0.341735 0.214645 0.0175193)
(-0.380051 0.189462 0.0213095)
(-0.408067 0.160571 0.0136606)
(-0.428873 0.127549 0.0289105)
(-0.441497 0.0925547 0.0305291)
(-0.442923 0.0629122 0.0196361)
(-0.430937 0.0503785 0.0139176)
(-0.397627 0.045756 0.00893283)
(-0.356835 0.0624419 0.00118667)
(-0.321008 0.0997983 -0.0186508)
(-0.24541 0.149767 -0.027847)
(-0.12563 0.156968 -0.0229438)
(-0.0279006 0.137502 -0.0149676)
(0.00476756 0.0617084 -0.000468408)
(0.00894665 0.0599094 -0.0122289)
(0.0723005 0.177484 -0.0379211)
(0.155224 0.241647 -0.0355281)
(0.194665 0.275153 -0.019185)
(0.204245 0.30673 -0.0111275)
(0.194579 0.338028 -0.00557501)
(0.175126 0.369476 -0.00495747)
(0.149456 0.39312 0.00970667)
(0.124012 0.41147 0.0133422)
(0.10113 0.420303 0.0260662)
(0.0790366 0.422524 0.0354212)
(0.0525982 0.411789 0.0519519)
(0.0257434 0.3868 0.0536227)
(0.00374713 0.353146 0.052979)
(-0.0267031 0.321049 0.0383157)
(-0.0658127 0.288948 0.025286)
(-0.0932172 0.26103 0.0146673)
(-0.127898 0.242255 0.00038491)
(-0.164707 0.224735 -0.00140325)
(-0.180511 0.236309 0.000690638)
(-0.2146 0.263291 0.00209571)
(-0.261789 0.302695 0.00169062)
(-0.29258 0.318172 0.00217044)
(-0.296373 0.29714 0.000760894)
(-0.285526 0.247066 -0.000360184)
(-0.293371 0.204721 0.00414945)
(-0.330299 0.179578 0.0109324)
(-0.367956 0.152614 0.0109257)
(-0.401889 0.124395 0.0310013)
(-0.432882 0.0882187 0.0411023)
(-0.452004 0.0535392 0.0416012)
(-0.452526 0.0269279 0.0526894)
(-0.44377 0.0024684 0.0419916)
(-0.429734 -0.00251702 0.032831)
(-0.393109 0.00862087 0.0246149)
(-0.340291 0.051576 0.00258462)
(-0.254207 0.104877 -0.0242227)
(-0.137961 0.145887 -0.0243125)
(-0.0336681 0.134779 -0.0140923)
(0.00629779 0.0651677 -0.000784827)
(0.00775818 0.0732057 -0.0130636)
(0.0720769 0.211243 -0.0416914)
(0.158304 0.279066 -0.0404127)
(0.205728 0.309044 -0.0217826)
(0.225008 0.331965 -0.00810323)
(0.222229 0.352264 -7.91074e-05)
(0.204952 0.375125 0.00413792)
(0.18086 0.38762 0.00624648)
(0.161399 0.398346 0.0140675)
(0.139998 0.400548 0.0258158)
(0.114632 0.392638 0.0336913)
(0.0888107 0.375113 0.0409487)
(0.0574754 0.347489 0.0512118)
(0.0272595 0.313304 0.0508026)
(-0.00282008 0.271405 0.0361457)
(-0.0417765 0.244465 0.0185903)
(-0.0715955 0.223038 0.00730668)
(-0.108017 0.202239 -0.00719681)
(-0.131748 0.200139 -0.00392748)
(-0.131943 0.213831 -0.000752623)
(-0.152439 0.225182 0.00482888)
(-0.198336 0.246968 0.005239)
(-0.253553 0.271914 0.00577221)
(-0.286078 0.267668 0.00364472)
(-0.29142 0.230083 0.00217)
(-0.286783 0.171607 0.00289426)
(-0.304419 0.137301 0.00710899)
(-0.343485 0.112323 0.0177843)
(-0.38261 0.0786568 0.0319922)
(-0.419177 0.0477165 0.0401443)
(-0.439833 0.0146395 0.062309)
(-0.462966 -0.0244044 0.0462521)
(-0.470879 -0.0671123 0.035823)
(-0.450781 -0.0889992 0.0178368)
(-0.410218 -0.0765314 0.00334822)
(-0.362039 -0.0269418 0.0124148)
(-0.275903 0.0555307 -0.00323616)
(-0.149565 0.113975 -0.0311111)
(-0.0387546 0.127626 -0.0143618)
(0.00697696 0.0647695 -0.00249549)
(0.00678382 0.0883256 -0.0120969)
(0.0716723 0.244526 -0.0443819)
(0.160476 0.316592 -0.0454666)
(0.213849 0.342933 -0.0255439)
(0.241125 0.356498 -0.00655289)
(0.246508 0.364475 0.00577911)
(0.23304 0.374497 0.0105782)
(0.211425 0.382448 0.0148541)
(0.19422 0.387187 0.0165662)
(0.172563 0.381374 0.0205592)
(0.149848 0.366846 0.0220804)
(0.118841 0.343196 0.0339965)
(0.0838544 0.311847 0.0337215)
(0.0471294 0.28016 0.0377367)
(0.0159237 0.245812 0.0291032)
(-0.0155563 0.214489 0.0107793)
(-0.0517326 0.20062 -0.00112065)
(-0.0789743 0.183011 -0.0094517)
(-0.0881702 0.195909 -0.00509152)
(-0.0908879 0.197967 -0.00140301)
(-0.11308 0.193929 0.0075034)
(-0.140988 0.192737 0.0156814)
(-0.190315 0.206269 0.0138661)
(-0.24806 0.222172 0.00721417)
(-0.283121 0.203098 0.00377842)
(-0.279477 0.159436 0.00249405)
(-0.275585 0.103862 0.00497832)
(-0.3073 0.0765181 0.0188154)
(-0.346691 0.0407111 0.0298156)
(-0.381752 0.00939315 0.0519881)
(-0.426409 -0.0346474 0.0407248)
(-0.466778 -0.0908527 0.0354591)
(-0.48369 -0.135737 0.0239208)
(-0.472796 -0.168918 0.0132194)
(-0.431494 -0.172465 -0.00235532)
(-0.365157 -0.130249 -0.00727534)
(-0.282243 -0.0283582 0.00110737)
(-0.168564 0.0729273 -0.0168387)
(-0.0432064 0.116438 -0.018614)
(0.00658553 0.0673182 -0.00193524)
(0.00362217 0.0827326 -0.0130722)
(0.066287 0.257102 -0.0456558)
(0.157625 0.334639 -0.0474767)
(0.218041 0.35952 -0.0270559)
(0.252098 0.365655 -0.00656533)
(0.261325 0.364357 0.00737993)
(0.25607 0.366501 0.0145313)
(0.240255 0.369494 0.0175639)
(0.222929 0.368856 0.0196563)
(0.200457 0.360198 0.0206417)
(0.174485 0.345037 0.0200014)
(0.144059 0.318357 0.017489)
(0.109426 0.286817 0.0146077)
(0.0732405 0.252405 0.0160018)
(0.0338414 0.224208 0.0158897)
(0.00280788 0.201151 0.00284304)
(-0.0242726 0.191942 -0.00765783)
(-0.0408448 0.194526 -0.00716243)
(-0.0460949 0.199313 -0.00401775)
(-0.0590366 0.192896 0.00190422)
(-0.0768575 0.178616 0.0120855)
(-0.0991572 0.168501 0.017747)
(-0.129955 0.157807 0.0227586)
(-0.18788 0.167433 0.0126331)
(-0.243972 0.166734 0.00708659)
(-0.267054 0.143993 0.00969816)
(-0.259123 0.085999 0.0120125)
(-0.269898 0.0421517 0.0222375)
(-0.306158 0.00899331 0.0386374)
(-0.350215 -0.0342162 0.0336176)
(-0.4037 -0.0897066 0.0335918)
(-0.447647 -0.144519 0.0259451)
(-0.475191 -0.200405 0.0164322)
(-0.477507 -0.242951 0.00297357)
(-0.443954 -0.262704 -0.0115147)
(-0.377984 -0.229715 -0.0182364)
(-0.283252 -0.142531 -0.0201741)
(-0.168837 0.00467069 -6.52373e-05)
(-0.0505976 0.0869576 -0.0274397)
(0.00613146 0.0636773 -0.00429079)
(0.00487042 0.0946709 -0.00529299)
(0.0660967 0.278492 -0.041414)
(0.156086 0.359601 -0.0442651)
(0.22103 0.380766 -0.0246884)
(0.261296 0.378584 -0.00167473)
(0.280659 0.37092 0.00968435)
(0.281912 0.36754 0.0148816)
(0.267718 0.363116 0.0165884)
(0.252051 0.357123 0.0156565)
(0.231377 0.342041 0.0137724)
(0.205118 0.320238 0.00994324)
(0.167814 0.290808 0.00724658)
(0.128103 0.261954 0.00386484)
(0.0902527 0.240505 0.00143196)
(0.0612261 0.230233 0.00274728)
(0.0382454 0.229442 -0.00519114)
(0.0197649 0.226929 -0.00571326)
(0.00359868 0.231378 -0.00400668)
(-0.0124873 0.223524 0.00245455)
(-0.0293214 0.203554 0.00677531)
(-0.0498095 0.183246 0.0137228)
(-0.0692568 0.161253 0.0167333)
(-0.0932867 0.140878 0.020514)
(-0.135729 0.125837 0.0186591)
(-0.19593 0.13 0.00791338)
(-0.240773 0.113096 0.00609748)
(-0.248036 0.0842139 0.00624164)
(-0.243255 0.0219186 0.010932)
(-0.269793 -0.020078 0.0167858)
(-0.317613 -0.0733106 0.0229463)
(-0.368512 -0.126633 0.0220893)
(-0.418558 -0.187381 0.0194897)
(-0.453663 -0.247996 0.0123868)
(-0.467505 -0.302811 0.000570319)
(-0.443302 -0.335958 -0.0144432)
(-0.384364 -0.32397 -0.0304789)
(-0.284409 -0.241581 -0.034337)
(-0.171614 -0.087236 -0.0221406)
(-0.0533047 0.048991 -0.018343)
(0.00848783 0.0599476 -0.00978095)
(-0.0044067 0.086692 -0.0170851)
(0.0497641 0.278683 -0.0481639)
(0.143339 0.367828 -0.0518253)
(0.215342 0.390455 -0.0318852)
(0.266604 0.387269 -0.00673895)
(0.295153 0.37353 0.00334036)
(0.302801 0.359742 0.00962719)
(0.291683 0.345457 0.00932965)
(0.272701 0.333674 0.00716094)
(0.246615 0.326063 0.00469907)
(0.218847 0.321348 0.00354071)
(0.190011 0.315696 0.00292769)
(0.165079 0.308091 0.0015185)
(0.142145 0.297854 0.0024906)
(0.114702 0.291548 0.000720235)
(0.0834802 0.281125 -0.0108049)
(0.0565689 0.264512 -0.00834099)
(0.0343772 0.248076 -0.0063332)
(0.00757847 0.228388 -0.00203086)
(-0.0140721 0.200424 0.00568719)
(-0.0302228 0.173881 0.0108013)
(-0.0496269 0.148025 0.0137425)
(-0.0706065 0.123754 0.0164636)
(-0.100244 0.101062 0.0197166)
(-0.15329 0.0928681 0.00966053)
(-0.201521 0.0803056 0.00362242)
(-0.228684 0.0635911 0.000213824)
(-0.239387 0.0238141 0.00263634)
(-0.251505 -0.0317917 0.00233251)
(-0.289086 -0.0835135 0.00751512)
(-0.335932 -0.141769 0.0120128)
(-0.380556 -0.211287 0.0119392)
(-0.415193 -0.286239 0.0060592)
(-0.436687 -0.360302 -0.00477047)
(-0.426402 -0.414381 -0.0200551)
(-0.375917 -0.422845 -0.0369243)
(-0.283725 -0.356635 -0.056936)
(-0.172642 -0.2022 -0.0416183)
(-0.0513537 -0.00408663 -0.0103781)
(0.00855084 0.052005 -0.0109523)
(-0.00571802 0.133055 -0.0123015)
(0.0451146 0.335196 -0.036232)
(0.136717 0.429708 -0.0436731)
(0.213716 0.450577 -0.0258861)
(0.270929 0.441727 -0.0093451)
(0.304564 0.418484 0.00184943)
(0.315746 0.396493 0.00731174)
(0.308645 0.391372 0.00983529)
(0.307157 0.408482 0.00939295)
(0.303336 0.418848 0.00492329)
(0.28817 0.422145 0.000260391)
(0.25388 0.411308 -0.00464485)
(0.210419 0.391824 -0.00565641)
(0.169477 0.358767 -0.00535104)
(0.133844 0.324631 -0.000905595)
(0.0949204 0.291808 -0.00850274)
(0.0671704 0.266525 -0.0084033)
(0.0482792 0.232331 -0.00646896)
(0.0226149 0.205966 -0.00271951)
(0.000922123 0.180902 0.00373892)
(-0.0161502 0.151271 0.00964335)
(-0.0322695 0.125515 0.0122046)
(-0.0521749 0.101838 0.0135188)
(-0.0764304 0.0786003 0.0171137)
(-0.123063 0.0634705 0.00580724)
(-0.169865 0.0495073 -0.000744539)
(-0.194301 0.0358235 0.00279612)
(-0.215249 0.0171652 0.00195992)
(-0.236784 -0.0224695 -0.00158914)
(-0.266858 -0.0787344 -0.00644858)
(-0.313053 -0.143767 -0.00670872)
(-0.363546 -0.210462 -0.00218882)
(-0.399807 -0.281384 0.00017604)
(-0.419207 -0.358011 -0.00540826)
(-0.405256 -0.425236 -0.0172031)
(-0.359899 -0.462234 -0.0401711)
(-0.273833 -0.434272 -0.0628849)
(-0.15844 -0.29243 -0.0626811)
(-0.0385305 -0.08819 -0.0292364)
(0.0103501 0.0343499 -0.00886364)
(-0.0161134 0.257614 -0.0241518)
(0.0244502 0.48294 -0.0413463)
(0.113858 0.585622 -0.0484879)
(0.192698 0.615741 -0.0305832)
(0.25899 0.606457 -0.016607)
(0.303548 0.580956 -0.00287365)
(0.341751 0.547888 0.00526265)
(0.375208 0.536628 0.00380396)
(0.375724 0.539148 -0.00180834)
(0.341682 0.523527 -0.0069856)
(0.300256 0.493228 -0.00919558)
(0.254987 0.448645 -0.010152)
(0.209849 0.402757 -0.00919833)
(0.169098 0.355011 -0.00554016)
(0.135976 0.313435 -0.00287404)
(0.109068 0.272864 0.00178373)
(0.0785443 0.24638 -0.00461193)
(0.0547207 0.215355 -0.00527553)
(0.0378303 0.184809 -0.00246351)
(0.0130011 0.158635 0.00038548)
(-0.00433203 0.133102 0.00839993)
(-0.0181782 0.105539 0.0106173)
(-0.0366982 0.0819327 0.0117027)
(-0.0567655 0.0604516 0.0155848)
(-0.0978272 0.0390712 0.00449509)
(-0.139231 0.0281858 0.00480477)
(-0.162461 0.0161343 0.00513136)
(-0.186586 0.000335819 0.00615201)
(-0.218766 -0.0197464 0.00387617)
(-0.259891 -0.0576375 0.00341651)
(-0.289418 -0.113721 -2.10371e-05)
(-0.312576 -0.190259 -0.0116646)
(-0.342812 -0.294443 -0.0244338)
(-0.372515 -0.410151 -0.0379361)
(-0.381344 -0.499704 -0.0560784)
(-0.362284 -0.565769 -0.0802261)
(-0.285778 -0.553629 -0.0943192)
(-0.19186 -0.423901 -0.0943597)
(-0.0618613 -0.157998 -0.0516601)
(0.0171259 0.0324388 -0.012714)
(-0.0091238 0.274949 -0.00844496)
(0.0297757 0.520093 -0.0394854)
(0.113927 0.6368 -0.0496958)
(0.195371 0.685017 -0.0408178)
(0.261996 0.684076 -0.0304956)
(0.305952 0.661654 -0.0191677)
(0.342624 0.625816 -0.00989862)
(0.37326 0.589398 -0.00586307)
(0.371803 0.551246 -0.00643162)
(0.34011 0.512782 -0.00584407)
(0.300716 0.473345 -0.0050942)
(0.254861 0.430423 -0.00501339)
(0.209894 0.384374 -0.00354246)
(0.171761 0.338975 -0.00297862)
(0.139522 0.295379 -0.000952671)
(0.111539 0.25591 0.000829109)
(0.0911857 0.220677 0.00506261)
(0.0672131 0.193506 -3.88221e-05)
(0.0452506 0.165844 -0.00237025)
(0.0273706 0.137965 0.000965337)
(0.00734683 0.114981 0.00457805)
(-0.00818803 0.0886369 0.00970663)
(-0.0225419 0.0648088 0.010172)
(-0.044018 0.0422186 0.0134253)
(-0.0777141 0.0195125 0.00545905)
(-0.110697 0.00933868 0.00794859)
(-0.132706 -0.00351748 0.0100994)
(-0.150382 -0.0144873 0.0113042)
(-0.177587 -0.0293522 0.00823108)
(-0.22123 -0.0471013 0.00587205)
(-0.278982 -0.0783613 0.00428117)
(-0.342492 -0.141773 0.00465631)
(-0.38473 -0.233888 0.00437083)
(-0.378187 -0.364073 -0.00648549)
(-0.352814 -0.505117 -0.0241379)
(-0.321313 -0.626747 -0.0449819)
(-0.250007 -0.678195 -0.0755973)
(-0.137563 -0.593514 -0.0826237)
(-0.0262298 -0.31531 -0.0764079)
(0.0143196 -0.0171453 -0.00549447)
(0.000603162 0.266902 -0.000434119)
(0.0376163 0.497496 -0.0336761)
(0.109296 0.6186 -0.0425698)
(0.187896 0.669484 -0.0373351)
(0.25394 0.669354 -0.022814)
(0.302368 0.645338 -0.0150164)
(0.343297 0.609699 -0.00471201)
(0.376202 0.570963 -0.00153659)
(0.375854 0.530764 -0.00162295)
(0.343033 0.493847 -0.000926214)
(0.300955 0.454177 -0.000384324)
(0.253286 0.411447 0.000151034)
(0.208049 0.365022 0.000449591)
(0.169598 0.320221 0.00176579)
(0.140309 0.276174 0.00149224)
(0.118895 0.236663 0.00342071)
(0.0978458 0.199508 0.00382145)
(0.0795563 0.167658 0.00543059)
(0.0599109 0.142255 0.00555549)
(0.0373597 0.117857 0.000116476)
(0.0193194 0.0956509 0.00465001)
(0.00294561 0.0739802 0.00725118)
(-0.0126592 0.0491343 0.00949541)
(-0.0312058 0.0271217 0.0105472)
(-0.057793 0.00788269 0.00793052)
(-0.0856643 -0.00313897 0.0103253)
(-0.103195 -0.0131941 0.0121055)
(-0.119579 -0.0253949 0.0130506)
(-0.144008 -0.042078 0.0128055)
(-0.179993 -0.0599183 0.0116371)
(-0.226092 -0.081793 0.0105136)
(-0.277421 -0.111112 0.00807696)
(-0.338915 -0.152976 0.00348821)
(-0.38711 -0.231841 -0.000698128)
(-0.393331 -0.346901 -0.00639492)
(-0.371606 -0.482876 -0.015841)
(-0.297279 -0.580979 -0.0291293)
(-0.180964 -0.571602 -0.0551415)
(-0.0237582 -0.346103 -0.0538622)
(0.0435405 0.0111775 -0.0270985)
(0.00358812 0.260101 0.00442269)
(0.0415915 0.472456 -0.024868)
(0.108773 0.595947 -0.0339392)
(0.183014 0.652103 -0.0317351)
(0.247582 0.658887 -0.0158639)
(0.296867 0.635944 -0.0104497)
(0.33828 0.599272 -0.00110211)
(0.36856 0.556834 0.00214101)
(0.370201 0.508149 0.00198366)
(0.341048 0.467771 0.00268321)
(0.298814 0.426186 0.00324531)
(0.25004 0.383279 0.00381092)
(0.205838 0.339376 0.00454576)
(0.170856 0.297757 0.00475973)
(0.142836 0.256866 0.00530781)
(0.11975 0.218189 0.00709922)
(0.104505 0.179743 0.00970626)
(0.0893933 0.148966 0.0107772)
(0.0718899 0.120508 0.0107447)
(0.0542667 0.100056 0.0119516)
(0.0343941 0.0784233 0.00574789)
(0.0143555 0.0595408 0.00717196)
(-0.0012726 0.0370771 0.0115388)
(-0.0168712 0.0177522 0.00920747)
(-0.0379765 -0.00189103 0.00895025)
(-0.0585816 -0.012357 0.0100543)
(-0.0763026 -0.0242911 0.0108222)
(-0.0922876 -0.0386297 0.0122868)
(-0.112292 -0.0568762 0.0134548)
(-0.141766 -0.0776455 0.0144212)
(-0.182668 -0.10028 0.0150913)
(-0.227517 -0.133533 0.0154259)
(-0.276877 -0.175615 0.016858)
(-0.308308 -0.233143 0.0158666)
(-0.330401 -0.310711 0.00998271)
(-0.345354 -0.430709 0.00151884)
(-0.320135 -0.525561 -0.0146899)
(-0.226027 -0.552118 -0.0384928)
(-0.062163 -0.344343 -0.0515353)
(0.0244751 0.0308507 -0.0161084)
(0.00807188 0.23853 0.000809846)
(0.0462642 0.428451 -0.0210614)
(0.106839 0.557705 -0.0291607)
(0.179224 0.61665 -0.027909)
(0.242491 0.630767 -0.0156159)
(0.291507 0.610382 -0.00788975)
(0.335023 0.573935 0.000409241)
(0.361846 0.530807 0.0040745)
(0.36368 0.480005 0.00470804)
(0.338342 0.436351 0.00531105)
(0.295348 0.393068 0.00639272)
(0.248256 0.351747 0.00767151)
(0.207237 0.312122 0.00844942)
(0.173406 0.273484 0.00947911)
(0.14713 0.235321 0.00992695)
(0.126901 0.200107 0.0104579)
(0.111609 0.16544 0.0107373)
(0.100403 0.134008 0.0110874)
(0.0876683 0.099971 0.010852)
(0.0685123 0.0781091 0.00894895)
(0.0491624 0.06309 0.0101754)
(0.0300036 0.0462477 0.0088484)
(0.0129674 0.0290162 0.00757886)
(-0.00267689 0.0110657 0.00873354)
(-0.0192346 -0.00698747 0.00911544)
(-0.0368005 -0.0190577 0.00940941)