/*--------------------------------*- C++ -*----------------------------------*\
| =========                 |                                                 |
| \\      /  F ield         | OpenFOAM: The Open Source CFD Toolbox           |
|  \\    /   O peration     | Version:  v1806                                 |
|   \\  /    A nd           | Web:      www.OpenFOAM.com                      |
|    \\/     M anipulation  |                                                 |
\*---------------------------------------------------------------------------*/
FoamFile
{
    version     2.0;
    format      ascii;
    class       surfaceScalarField;
    location    "0.0935";
    object      phi;
}
// * * * * * * * * * * * * * * * * * * * * * * * * * * * * * * * * * * * * * //

dimensions      [0 3 -1 0 0 0 0];
oriented        oriented;


internalField   nonuniform List<scalar> 
187200
(
7.93696e-06
2.42875e-06
-1.03717e-05
5.51268e-05
-2.37934e-05
-2.33966e-05
7.81046e-05
-1.09353e-05
-1.20425e-05
9.74862e-05
-9.53641e-06
-9.84514e-06
0.000113238
-6.02481e-06
-9.72662e-06
0.000130522
-5.29968e-06
-1.19838e-05
0.000145923
-9.88572e-07
-1.44121e-05
0.000162926
5.68209e-07
-1.75716e-05
0.00017688
5.057e-06
-1.90111e-05
0.000188621
7.70685e-06
-1.94478e-05
0.000201341
7.37531e-06
-2.00953e-05
0.00021057
1.22114e-05
-2.14413e-05
0.000204274
2.13351e-05
-1.50387e-05
0.000177524
3.61117e-05
-9.36257e-06
0.000133973
4.49466e-05
-1.3948e-06
9.66354e-05
2.94692e-05
7.8683e-06
4.50548e-05
3.20672e-05
1.95134e-05
-5.68994e-06
4.51248e-05
5.61998e-06
-0.00010213
9.95666e-05
-3.12665e-06
-0.000240806
0.000140538
-1.8619e-06
-0.000503112
0.000231183
3.11229e-05
-0.000692957
0.000238198
-4.8353e-05
-0.000831877
0.000285207
-0.000146286
-0.000879285
0.000309231
-0.000261824
-0.000865721
0.0003397
-0.000353264
-0.000797255
0.000368246
-0.000436712
-0.000687046
0.000393633
-0.000503842
-0.000546502
0.000409237
-0.000549783
-0.000380414
0.000403681
-0.000569769
-0.000213323
0.000386852
-0.000553944
-7.93206e-05
0.000346408
-0.000480411
9.43224e-06
0.000299292
-0.000388044
4.52668e-05
0.000238606
-0.00027444
4.14413e-05
0.000174974
-0.000171149
1.9922e-05
0.000121197
-9.96782e-05
2.86732e-07
8.14547e-05
-6.18198e-05
-9.45972e-06
5.55861e-05
-4.58397e-05
-1.2883e-05
4.30062e-05
-3.95831e-05
-1.09825e-05
3.34236e-05
-3.53246e-05
2.37318e-05
-3.47145e-05
3.49775e-06
1.80185e-05
-1.90876e-05
4.58223e-05
-3.27782e-05
-3.33398e-05
8.83591e-05
-2.53133e-05
-2.81588e-05
0.000119758
-1.46888e-05
-2.62456e-05
0.000142412
-3.79196e-06
-2.48872e-05
0.000159574
6.5338e-06
-2.89952e-05
0.000167945
2.57723e-05
-3.51318e-05
0.000171995
3.76773e-05
-4.11583e-05
0.00016575
6.28062e-05
-5.15044e-05
0.000150281
8.12613e-05
-5.80855e-05
0.00010953
0.000123819
-7.56924e-05
4.59591e-05
0.000166269
-9.04871e-05
-3.82826e-05
0.000202487
-9.69105e-05
-0.000139948
0.000245582
-0.000107805
-0.000262153
0.000300494
-0.000133343
-0.000440825
0.00037375
-0.000165609
-0.000613584
0.000450015
-0.000245188
-0.000796188
0.000531744
-0.000304015
-0.000960104
0.000636278
-0.000372796
-0.00112136
0.000740314
-0.000438522
-0.00128253
0.000868594
-0.000476234
-0.00138535
0.000945123
-0.000604106
-0.00145184
0.00105101
-0.000699316
-0.00144739
0.00109237
-0.000787586
-0.00136961
0.00113649
-0.000874568
-0.00122883
0.00115985
-0.000932394
-0.00103745
0.00116679
-0.000964543
-0.00081018
0.00114413
-0.000962156
-0.000571865
0.00108648
-0.000921117
-0.000343472
0.00100533
-0.000846866
-0.000148489
0.000880454
-0.000729029
1.0874e-05
0.000735463
-0.000595534
0.000101495
0.00058079
-0.000432806
0.000129476
0.000451767
-0.000304775
0.000119353
0.0003332
-0.000201881
9.22646e-05
0.000247212
-0.000138669
6.13676e-05
0.00018605
-9.95667e-05
3.7076e-05
0.000146181
-7.88838e-05
1.36311e-05
0.000116599
-5.97313e-05
8.11216e-05
-4.37597e-05
1.93166e-05
1.15596e-05
-1.28578e-05
5.89128e-05
-3.66704e-05
-3.57041e-05
0.000100263
-2.58376e-05
-4.08255e-05
0.000130722
-3.1734e-06
-4.19749e-05
0.000146822
2.79764e-05
-4.78675e-05
0.000152693
5.77819e-05
-5.71196e-05
0.000144339
9.92665e-05
-6.51395e-05
0.000127951
0.000136903
-8.28368e-05
0.000101223
0.000196917
-0.000107382
4.5546e-05
0.000264996
-0.000128059
-3.76125e-05
0.00034753
-0.000140553
-0.000141902
0.000432463
-0.000161905
-0.000296684
0.000536489
-0.000179221
-0.000472271
0.000644524
-0.000223355
-0.000667973
0.000754323
-0.000258127
-0.000849627
0.000864758
-0.000309355
-0.00100721
0.000974753
-0.000367159
-0.00114686
0.00109609
-0.000424693
-0.00127878
0.00124411
-0.000475913
-0.00141312
0.00139459
-0.000519933
-0.00154559
0.0015332
-0.000532136
-0.00161875
0.00161988
-0.000601594
-0.00164714
0.00172497
-0.000645564
-0.00161954
0.00174108
-0.000676313
-0.0015305
0.00176343
-0.000715978
-0.00139318
0.00175021
-0.000727687
-0.00121842
0.00171028
-0.000718239
-0.0010183
0.00162921
-0.000685202
-0.000805425
0.00151065
-0.000637044
-0.000585564
0.00136032
-0.000574855
-0.000393646
0.00118184
-0.000493302
-0.00023248
0.000999927
-0.000425629
-0.000111674
0.000798299
-0.000338316
-2.79233e-05
0.000636555
-0.000268539
1.7485e-05
0.000488185
-0.000200393
3.43467e-05
0.000383196
-0.000152847
3.74527e-05
0.000305072
-0.000122129
3.01717e-05
0.000254444
-0.00010098
1.36368e-05
0.000205991
-7.28581e-05
0.000138805
-4.40471e-05
2.18181e-05
7.664e-06
-1.79227e-05
6.03577e-05
-2.75746e-05
-4.76355e-05
0.000100495
-6.55991e-06
-5.94155e-05
0.000122709
4.1044e-05
-6.64312e-05
0.000127604
9.50318e-05
-7.19496e-05
0.000117114
0.000153296
-8.50246e-05
9.78082e-05
0.000227843
-0.00010927
6.1731e-05
0.000308113
-0.000135133
6.31768e-06
0.000419352
-0.000167022
-7.55651e-05
0.000533395
-0.000186516
-0.000192655
0.000667059
-0.00020244
-0.000337006
0.000798624
-0.00022181
-0.000496069
0.000931158
-0.000235607
-0.000648852
0.00105007
-0.000252766
-0.000798042
0.00117859
-0.000275075
-0.000937192
0.00130721
-0.000303298
-0.00106414
0.00143496
-0.000333263
-0.00117524
0.00155779
-0.000350597
-0.00128142
0.0017063
-0.000356005
-0.00139017
0.00184042
-0.00033708
-0.00151546
0.00193757
-0.000279077
-0.00158336
0.00197919
-0.000291416
-0.00160983
0.00203944
-0.000287995
-0.00159049
0.00199903
-0.000277289
-0.00152116
0.00197731
-0.000283219
-0.00142009
0.0019202
-0.00027106
-0.00129477
0.00183824
-0.000253274
-0.00115261
0.00172078
-0.000233738
-0.000998742
0.00156812
-0.000211343
-0.000831201
0.00139992
-0.000207146
-0.000651648
0.00120825
-0.00020597
-0.000473712
0.0010268
-0.000204808
-0.000315065
0.000838511
-0.000198859
-0.000187723
0.000701397
-0.000192185
-9.79903e-05
0.000571337
-0.000172886
-3.67678e-05
0.000473183
-0.00015121
2.05289e-06
0.000402631
-0.000136381
1.6812e-05
0.000350769
-0.000111084
1.49172e-05
0.000287788
-7.99037e-05
0.000195507
-4.17853e-05
2.1935e-05
2.17382e-05
-3.60093e-05
6.15981e-05
8.55742e-06
-7.5795e-05
0.000104796
4.25066e-05
-9.22646e-05
0.000123509
0.000120798
-9.84655e-05
0.000119414
0.000205815
-0.000106688
9.1544e-05
0.000302504
-0.000121338
5.01902e-05
0.000421548
-0.00015235
6.7445e-06
0.000533369
-0.00018181
-3.98018e-05
0.00067582
-0.000209922
-0.000111197
0.000825593
-0.000220804
-0.000203952
0.000983054
-0.000223241
-0.000308461
0.00112349
-0.000220357
-0.000433352
0.00126837
-0.000212324
-0.000570325
0.00139935
-0.000212304
-0.000706927
0.00152206
-0.000206868
-0.000828022
0.00163211
-0.000203807
-0.000929459
0.0017287
-0.000192297
-0.0010039
0.0017951
-0.000162861
-0.00109395
0.00188998
-9.36306e-05
-0.00119414
0.00196126
-2.06582e-05
-0.00133841
0.0019995
8.23401e-05
-0.00141406
0.00195171
0.000103116
-0.00145813
0.00196812
0.000115396
-0.00147015
0.00189545
0.00011561
-0.00144584
0.00185642
9.65801e-05
-0.00140166
0.0017904
8.5622e-05
-0.0013386
0.00170405
7.11284e-05
-0.00126874
0.00159415
5.67739e-05
-0.00117253
0.00145681
1.51132e-05
-0.00105133
0.00130881
-3.00898e-05
-0.000902382
0.00114194
-8.26322e-05
-0.000733699
0.000989654
-0.000131539
-0.000563052
0.000831259
-0.000163396
-0.000395996
0.000715276
-0.000180936
-0.000256249
0.000617375
-0.000185786
-0.000140834
0.000527412
-0.000169644
-5.76525e-05
0.000469466
-0.000150016
-6.78589e-06
0.000423725
-0.000123824
8.86919e-06
0.000355991
-8.38585e-05
0.00024194
-3.75644e-05
1.51042e-05
7.01566e-05
-6.35225e-05
6.39422e-05
7.70611e-05
-0.000117342
0.000107936
0.000137607
-0.000139094
0.00012707
0.000240799
-0.000139136
0.000116867
0.000354658
-0.00013864
8.64141e-05
0.000483006
-0.000150048
5.62844e-05
0.000636517
-0.000184839
2.67844e-05
0.000780769
-0.000217899
-1.85353e-05
0.000952057
-0.000230916
-8.05685e-05
0.00110769
-0.000220068
-0.00015231
0.00125636
-0.00020157
-0.000234165
0.00138425
-0.000178909
-0.000319587
0.00150592
-0.000152124
-0.000400497
0.00160292
-0.000122665
-0.000481545
0.00169138
-8.82755e-05
-0.000548357
0.00175073
-5.18117e-05
-0.000631312
0.00179615
1.54971e-05
-0.000731519
0.00181246
8.28397e-05
-0.000833653
0.00182826
0.000163856
-0.000933312
0.00180626
0.000254659
-0.00108252
0.00182765
0.000321056
-0.00118942
0.00172593
0.000332686
-0.00126873
0.00171686
0.000330573
-0.00132832
0.00163185
0.000323184
-0.00135616
0.00158592
0.000298338
-0.00136959
0.00152616
0.00027767
-0.00136789
0.00145774
0.000244606
-0.00135489
0.00137586
0.000205284
-0.00131565
0.00127385
0.000143716
-0.00122949
0.00116794
5.47161e-05
-0.00111265
0.00104608
-2.09869e-05
-0.000946979
0.000931358
-0.000107372
-0.000767836
0.000815902
-0.000163787
-0.000569724
0.000720121
-0.000202958
-0.000388459
0.000650237
-0.000214128
-0.000235097
0.000570006
-0.000195957
-0.000112986
0.000522875
-0.000175519
-3.27574e-05
0.000481931
-0.000138435
5.20555e-06
0.000409204
-9.11778e-05
0.000283535
-3.63903e-05
1.76497e-05
0.000148184
-9.56767e-05
8.21324e-05
0.00018281
-0.000170232
0.000132803
0.000272866
-0.000185929
0.00015504
0.000395787
-0.000177224
0.000146952
0.000535556
-0.000172809
0.000102552
0.000703081
-0.000175675
9.3086e-05
0.000859557
-0.000213573
7.30958e-05
0.00102403
-0.000223271
5.45599e-05
0.00118285
-0.000212259
1.69566e-05
0.00132386
-0.000178566
-3.23299e-05
0.00144945
-0.000143801
-9.61992e-05
0.00155367
-0.000105544
-0.000164801
0.00164023
-6.57066e-05
-0.000234099
0.00169426
-2.20438e-05
-0.000304475
0.00172676
3.49992e-05
-0.000364785
0.00172541
8.56322e-05
-0.000430533
0.00171481
0.00014709
-0.000496209
0.00166351
0.00021463
-0.0005972
0.00163282
0.000296427
-0.000703507
0.00154358
0.000368993
-0.000850585
0.00154352
0.000431203
-0.000995412
0.00142291
0.00044784
-0.00108806
0.00138236
0.000427145
-0.00119589
0.0013326
0.000407078
-0.00127353
0.00129876
0.000364805
-0.00134222
0.00126565
0.000329197
-0.0013943
0.00122861
0.000281222
-0.00142854
0.00118181
0.000228296
-0.00143709
0.00112335
0.000159045
-0.0013856
0.00105842
5.80266e-05
-0.00129696
0.000975966
-1.85262e-05
-0.00115258
0.000887513
-0.00010053
-0.000964212
0.000800354
-0.000172823
-0.00073925
0.000708448
-0.00021329
-0.000504923
0.000665883
-0.000249972
-0.000321421
0.000615257
-0.000228752
-0.000160673
0.000569665
-0.000207538
-5.48759e-05
0.000536374
-0.000160241
5.03715e-07
0.00045938
-0.000105555
0.000323397
-3.93587e-05
2.76875e-05
0.000249395
-0.000128899
0.000109712
0.000318891
-0.000218106
0.00017467
0.000436102
-0.000228196
0.00020087
0.000572114
-0.000202526
0.000195461
0.000723582
-0.000182617
0.000178867
0.000901739
-0.000182064
0.000187778
0.00105418
-0.000203535
0.000186999
0.00122137
-0.000196562
0.000176229
0.00135933
-0.000165709
0.000138666
0.00148102
-0.000119596
9.3167e-05
0.00157656
-8.16111e-05
3.80834e-05
0.00164291
-3.41545e-05
-2.15185e-05
0.00168065
1.91731e-05
-8.50191e-05
0.00168044
7.73196e-05
-0.000145985
0.00165786
0.000129861
-0.000209226
0.00160194
0.000186711
-0.000274111
0.00153804
0.000241652
-0.000343543
0.00144792
0.000285021
-0.000430706
0.00138266
0.000337329
-0.000540038
0.00127058
0.000382335
-0.00066455
0.0012429
0.000425133
-0.000840821
0.00116706
0.000432128
-0.000958627
0.00109273
0.000407437
-0.001104
0.00109545
0.000382526
-0.00122251
0.00107349
0.000343772
-0.00132669
0.00106506
0.000304771
-0.00141488
0.00105263
0.000264166
-0.00148482
0.00103078
0.000220968
-0.00152152
0.00100584
0.0001542
-0.00150265
0.000960905
7.86531e-05
-0.00143849
0.000900773
1.1032e-05
-0.00131452
0.000828819
-6.52763e-05
-0.00112365
0.000761866
-0.000152387
-0.000901853
0.00069542
-0.000208768
-0.000643987
0.000655144
-0.000247128
-0.00041437
0.000645913
-0.000260272
-0.000216998
0.000602794
-0.000230502
-8.04735e-05
0.000583278
-0.000183427
-6.6759e-06
0.0005037
-0.000118116
0.000360737
-4.4016e-05
4.56734e-05
0.000362176
-0.000158455
0.000152123
0.000473023
-0.000260582
0.000245627
0.000611564
-0.000268965
0.000289953
0.000753446
-0.000225658
0.000287227
0.000917667
-0.000191361
0.000285348
0.00108139
-0.000177772
0.000285672
0.00122564
-0.000171782
0.000288883
0.00137007
-0.000151914
0.000286821
0.00147985
-0.000118456
0.000259908
0.00157619
-6.82511e-05
0.000216675
0.00163373
-1.39364e-05
0.000165205
0.00165496
3.9415e-05
0.000100954
0.00164862
9.62832e-05
3.35141e-05
0.00160432
0.000143566
-3.31367e-05
0.00153557
0.000188943
-0.000103005
0.00144101
0.000230797
-0.00017497
0.00134576
0.000264246
-0.000250143
0.00123697
0.000286126
-0.000327312
0.00115353
0.000306293
-0.000444967
0.00105668
0.000331554
-0.000558146
0.0010042
0.000351886
-0.000734071
0.00098328
0.000359702
-0.000888931
0.000901233
0.000346357
-0.00104707
0.000931634
0.000321959
-0.00119031
0.00091784
0.000298886
-0.00131354
0.000925128
0.000263164
-0.00142663
0.000921558
0.000244172
-0.00151885
0.000920108
0.000202888
-0.00158595
0.000901004
0.000171939
-0.00160458
0.000864474
0.000115058
-0.00155906
0.000812383
4.28754e-05
-0.00145
0.000754875
-3.51202e-05
-0.00126359
0.000695339
-0.000119879
-0.00102866
0.000646741
-0.000186256
-0.00075291
0.000614602
-0.000235203
-0.00049399
0.00064151
-0.000254517
-0.000269621
0.000627276
-0.00024885
-0.000102559
0.000617328
-0.000201113
-1.50663e-05
0.000548386
-0.000132179
0.00039659
-5.09181e-05
6.42698e-05
0.000472299
-0.000174393
0.000196418
0.000632752
-0.000291877
0.000316424
0.000787376
-0.000295819
0.000375172
0.00093022
-0.000235523
0.000391512
0.00108277
-0.000181441
0.000392771
0.00122638
-0.000146248
0.000383696
0.00135955
-0.00012484
0.000381621
0.0014729
-0.000100752
0.000372972
0.00155419
-6.56934e-05
0.000358618
0.00160416
-1.36197e-05
0.000326774
0.00163224
3.33323e-05
0.000261424
0.00162333
9.69823e-05
0.000190814
0.00157541
0.000143821
0.000117401
0.00149106
0.000186674
4.20136e-05
0.00139221
0.000218743
-3.63308e-05
0.00127754
0.000241811
-0.000114672
0.0011702
0.000253905
-0.000196093
0.00106372
0.00025467
-0.000280074
0.000983475
0.000254037
-0.000398162
0.000915082
0.000259683
-0.000524945
0.00086075
0.00027023
-0.000677903
0.000855451
0.000280787
-0.000853889
0.000790207
0.000287012
-0.00100209
0.000809665
0.00027017
-0.00115437
0.000803306
0.000266814
-0.00128131
0.000813637
0.000238425
-0.00140782
0.000813163
0.000234904
-0.00152164
0.000812387
0.000221544
-0.0016083
0.000788238
0.000199423
-0.00165279
0.000755803
0.000153165
-0.00163432
0.000715728
7.81842e-05
-0.00154421
0.000671165
-6.40146e-06
-0.00137846
0.000625273
-9.56832e-05
-0.00114346
0.000587587
-0.000175847
-0.000866989
0.000552384
-0.000214251
-0.000571357
0.000586511
-0.000240632
-0.000321453
0.000622497
-0.000245125
-0.000128875
0.000633432
-0.000208682
-2.38553e-05
0.000582227
-0.000138861
0.000428362
-5.56273e-05
8.08731e-05
0.000571808
-0.000180382
0.000242803
0.000781997
-0.000311174
0.000390074
0.000950018
-0.000309913
0.00046746
0.00108901
-0.000236179
0.000500385
0.00122028
-0.000170436
0.00050065
0.00133962
-0.000113511
0.000491837
0.0014489
-8.05344e-05
0.000477474
0.00153285
-4.55842e-05
0.000452553
0.00159014
-1.10329e-05
0.000418957
0.00161421
2.35411e-05
0.000383214
0.0015964
7.15857e-05
0.000330525
0.00154781
0.000128201
0.000259413
0.00147656
0.000169958
0.000171965
0.00137235
0.000206158
8.598e-05
0.0012532
0.000224992
-1.4768e-06
0.00113279
0.000232209
-8.86353e-05
0.0010284
0.000228959
-0.000177594
0.000932987
0.000219689
-0.000271776
0.000865797
0.00021186
-0.000380796
0.000815451
0.000208651
-0.000504792
0.000772302
0.000212443
-0.000629158
0.000753853
0.000225964
-0.000804747
0.000721845
0.000243951
-0.000946754
0.000709736
0.000241935
-0.00109322
0.000702898
0.00024687
-0.0012257
0.00070361
0.000242513
-0.00135978
0.000706729
0.000240514
-0.00148961
0.000693217
0.000249002
-0.00159979
0.000672951
0.000225465
-0.00166842
0.000645747
0.000178683
-0.00168689
0.000607859
0.000126339
-0.00162746
0.000579748
3.19878e-05
-0.00147989
0.000542671
-6.49655e-05
-0.00123505
0.000516138
-0.000173397
-0.00094392
0.000486715
-0.000225457
-0.000634802
0.000515932
-0.00023854
-0.00036828
0.000581629
-0.000225653
-0.000151016
0.000636358
-0.00022019
-3.06674e-05
0.000606207
-0.000144328
0.000460386
-6.26913e-05
9.38889e-05
0.000653954
-0.000176034
0.000282682
0.000912966
-0.000319761
0.000454792
0.00109439
-0.000316483
0.000550725
0.00122215
-0.000229074
0.000595858
0.00132865
-0.0001535
0.000600603
0.0014202
-8.53164e-05
0.000590467
0.00150125
-4.22148e-05
0.000565189
0.00155824
-1.10674e-07
0.000527111
0.00159046
3.77667e-05
0.00047612
0.00158265
8.25561e-05
0.000420169
0.00154703
0.000105319
0.000353394
0.00147159
0.000143003
0.000284977
0.00136592
0.00017906
0.000203866
0.00124832
0.000205134
0.000114032
0.00112976
0.000213273
2.11854e-05
0.00101522
0.000210422
-6.96628e-05
0.000919682
0.000199565
-0.00016401
0.000838781
0.000188554
-0.000268696
0.000787644
0.000182839
-0.000369334
0.00074002
0.000176068
-0.000483173
0.000705392
0.000180748
-0.000590296
0.000667512
0.000193463
-0.000742242
0.000655041
0.00021875
-0.000871563
0.000615862
0.000223195
-0.00100655
0.000599069
0.000238813
-0.00113396
0.000591959
0.000239058
-0.0012772
0.000582672
0.000267297
-0.00141773
0.000571375
0.000262377
-0.00154224
0.000556228
0.000241237
-0.0016425
0.000537211
0.000208791
-0.00168192
0.000524219
0.000123063
-0.00165615
0.000502836
5.11399e-05
-0.00154745
0.000471152
-3.71824e-05
-0.00134011
0.000443642
-0.000134838
-0.00104288
0.000427712
-0.000238234
-0.000703605
0.000437938
-0.000261276
-0.00040214
0.000509469
-0.000229306
-0.000174318
0.000607742
-0.000199204
-3.8179e-05
0.000617566
-0.000147498
0.00048813
-6.59214e-05
0.000104616
0.000711456
-0.000162118
0.000317251
0.00101687
-0.000316537
0.000515743
0.0012089
-0.000313002
0.00063181
0.0013221
-0.000216016
0.000683252
0.00140823
-0.000131027
0.000692825
0.00147386
-6.32387e-05
0.000681088
0.00152419
-1.11978e-05
0.000649123
0.00155192
3.82818e-05
0.000599849
0.00155686
8.28658e-05
0.000534171
0.00153042
0.000117904
0.000460072
0.00147132
0.000149814
0.000378051
0.00138193
0.000171679
0.000297018
0.00126861
0.000178343
0.00021198
0.0011424
0.000190961
0.000125961
0.00102364
0.000192142
3.61544e-05
0.000920026
0.000184999
-5.40763e-05
0.000836787
0.000173126
-0.000148719
0.00076668
0.000166743
-0.00024807
0.000722435
0.000164559
-0.000346559
0.000674039
0.00016447
-0.00044691
0.000636559
0.000169184
-0.000543173
0.000585151
0.000178624
-0.000667498
0.000578875
0.000200491
-0.000775628
0.00051955
0.000204442
-0.000893495
0.000495716
0.00022122
-0.00101912
0.000476457
0.000241126
-0.00116155
0.000465591
0.000259515
-0.00130737
0.000455629
0.000261567
-0.00145087
0.000447279
0.000252445
-0.00156787
0.000446624
0.000207588
-0.00165146
0.000446068
0.000161739
-0.00166221
0.000419799
9.37913e-05
-0.00159995
0.00037926
2.96328e-05
-0.00142984
0.000340723
-6.71903e-05
-0.00115216
0.000327449
-0.000177422
-0.000798369
0.000347676
-0.00026353
-0.000453278
0.000429272
-0.000264895
-0.000197231
0.000544671
-0.000192976
-4.60897e-05
0.000614108
-0.000147683
0.000514625
-7.25843e-05
0.000108472
0.000749151
-0.000146167
0.00033991
0.00109383
-0.000308397
0.00056287
0.00129501
-0.000309065
0.00069677
0.00139535
-0.000207143
0.000754593
0.00145984
-0.000109439
0.00076413
0.00150171
-3.73886e-05
0.000748696
0.00152773
1.1886e-05
0.000706614
0.00152648
6.75177e-05
0.000648913
0.00150643
0.000108131
0.000578513
0.00145682
0.000144002
0.000493362
0.0013838
0.000172666
0.000398564
0.00128392
0.000192802
0.000301822
0.00116963
0.000195723
0.000217266
0.00104522
0.000181738
0.000132235
0.000934707
0.000173964
5.05174e-05
0.000840647
0.000161096
-3.36209e-05
0.000766679
0.000154245
-0.000123486
0.000704204
0.00015234
-0.000214782
0.000659462
0.000154268
-0.000308043
0.00060804
0.000159259
-0.000392863
0.000558562
0.000162817
-0.000486113
0.00051072
0.00016768
-0.000575078
0.000488823
0.000179018
-0.000665657
0.000424793
0.000185336
-0.000770773
0.000395909
0.000204923
-0.000886369
0.000364937
0.000227116
-0.00101978
0.000354106
0.000244896
-0.001163
0.000345838
0.000253012
-0.0013097
0.000352719
0.000241255
-0.00145906
0.000363597
0.000232397
-0.00156837
0.000352863
0.000202509
-0.00163428
0.000314225
0.000171487
-0.00161752
0.000261083
0.000101415
-0.00149293
0.000209309
6.82809e-06
-0.00124417
0.000182145
-0.000103463
-0.000894046
0.000209209
-0.000211653
-0.000510747
0.000319651
-0.00027368
-0.000219322
0.000476881
-0.000223634
-5.07718e-05
0.00059386
-0.000148304
0.000541781
-7.79281e-05
0.00011418
0.000753736
-0.000118765
0.000363723
0.00113135
-0.000287064
0.00060655
0.00134494
-0.000292763
0.00075723
0.00143992
-0.000195254
0.000820339
0.00148513
-8.83942e-05
0.000827457
0.00150224
-7.64431e-06
0.000804619
0.00150072
4.98556e-05
0.000760634
0.00147747
9.3002e-05
0.000698019
0.0014358
0.000133245
0.000619488
0.00137167
0.000163682
0.000528927
0.00128617
0.000188195
0.000428187
0.00118082
0.000203847
0.000322948
0.00106821
0.000206656
0.000227399
0.000954846
0.00018592
0.000144547
0.00085526
0.000162299
6.65746e-05
0.00076853
0.000150089
-9.87226e-06
0.000702996
0.00014013
-9.70324e-05
0.000645626
0.000145738
-0.000176239
0.000590829
0.000147839
-0.00026078
0.000538994
0.000153586
-0.000337087
0.000481989
0.00015288
-0.000416979
0.00043469
0.000155922
-0.000479142
0.000399241
0.000151745
-0.000558002
0.000341685
0.000161968
-0.0006463
0.000310165
0.000174042
-0.000747401
0.000270002
0.000196035
-0.000866531
0.00025702
0.000216217
-0.000998753
0.000254429
0.000223631
-0.00115455
0.000273773
0.000234743
-0.00130179
0.000275814
0.000235026
-0.0014445
0.000255478
0.000240097
-0.00155294
0.000212317
0.000210344
-0.00159359
0.000147446
0.000154285
-0.00152821
7.3578e-05
7.03493e-05
-0.00132498
2.20526e-05
-4.31324e-05
-0.00100542
3.40091e-05
-0.000144362
-0.000595843
0.000151129
-0.000241053
-0.000248625
0.00038617
-0.000256507
-6.08398e-05
0.000552493
-0.000146418
0.000560848
-7.99089e-05
0.000114309
0.0007364
-9.69722e-05
0.000373384
0.00113718
-0.000264909
0.000630573
0.00136394
-0.000276188
0.000794766
0.00145628
-0.000180559
0.000865458
0.00148826
-7.38226e-05
0.000869738
0.00148005
1.79074e-05
0.00084174
0.00145655
7.2167e-05
0.000789125
0.00141072
0.000119365
0.000721693
0.00135346
0.00014978
0.000642267
0.00127745
0.000173651
0.000548355
0.00118261
0.00019747
0.000445392
0.00107852
0.000205257
0.000341249
0.000969941
0.000202416
0.000243234
0.000867584
0.000185277
0.00016103
0.000776886
0.000160577
8.5632e-05
0.000700408
0.00014352
1.8772e-05
0.000632924
0.000136932
-5.91784e-05
0.000584545
0.000139031
-0.000135501
0.000527035
0.000140116
-0.000204849
0.000466489
0.000141853
-0.000276288
0.000411038
0.00014239
-0.000342805
0.000368347
0.00013286
-0.000398829
0.000325404
0.000129861
-0.00045968
0.000272072
0.000130464
-0.000533842
0.000238395
0.000145933
-0.000622675
0.000195157
0.000163678
-0.000717447
0.000173216
0.000178577
-0.000843269
0.000181706
0.000198544
-0.000976008
0.000189502
0.000217011
-0.00112709
0.000178998
0.000247896
-0.00128478
0.000158139
0.00025503
-0.00142493
0.00011017
0.000242298
-0.00151335
3.88775e-05
0.000196988
-0.00150553
-5.6173e-05
0.000121935
-0.00136687
-0.000137363
2.0756e-05
-0.00107786
-0.000163345
-9.16575e-05
-0.000682936
-5.34769e-05
-0.00019032
-0.00028269
0.000220606
-0.00023468
-6.69213e-05
0.000500538
-0.000163812
0.000571744
-7.78182e-05
0.000127546
0.000645308
-3.64545e-05
0.000397752
0.00108559
-0.000218614
0.000667583
0.00133507
-0.000240966
0.000850129
0.00142651
-0.000152771
0.000923355
0.00144888
-3.38492e-05
0.000921773
0.00142581
5.58225e-05
0.000882609
0.00138201
0.000113707
0.00082533
0.00131742
0.000150575
0.000755686
0.00124924
0.000173865
0.000674922
0.00116776
0.000190447
0.000585357
0.00107722
0.000194957
0.000485113
0.000977379
0.000201388
0.000382111
0.000879281
0.000193661
0.000283735
0.000786956
0.000179003
0.000197295
0.000705271
0.000158055
0.000118878
0.000637893
0.000140931
4.17836e-05
0.000577312
0.000132706
-2.30898e-05
0.000518545
0.000130872
-8.2984e-05
0.00045808
0.000128849
-0.000150037
0.000408058
0.000125484
-0.000221212
0.000360691
0.000121522
-0.00027747
0.00031133
0.000113274
-0.000327508
0.000266104
0.000109339
-0.000380098
0.000216619
0.000108044
-0.000435661
0.000176719
0.000117237
-0.000510851
0.000137199
0.000133148
-0.000594163
0.000107231
0.000149297
-0.000698125
0.000111616
0.000174052
-0.000818772
0.000100209
0.00020994
-0.000963488
8.43693e-05
0.000239344
-0.00112392
5.73012e-05
0.000261268
-0.00127993
4.25643e-06
0.000261926
-0.0014033
-7.27355e-05
0.000234982
-0.00144783
-0.000184696
0.000173056
-0.00137033
-0.000294329
7.94668e-05
-0.001142
-0.000361067
-3.06106e-05
-0.000777064
-0.000286521
-0.000131892
-0.000346156
-2.01229e-05
-0.000190179
-6.74898e-05
0.000406849
-0.000184975
0.000572689
-6.84327e-05
0.000121293
0.000537825
-1.38108e-05
0.000380876
0.00103096
-0.000204951
0.000662786
0.00129457
-0.00024141
0.000861048
0.00138645
-0.000158203
0.000947825
0.00139791
-3.57998e-05
0.000949367
0.00135474
6.95324e-05
0.000915816
0.00129017
0.000125387
0.000851696
0.00121966
0.000161884
0.000769492
0.0011481
0.00018334
0.000681662
0.00105987
0.000195721
0.00059074
0.000966995
0.000201142
0.000496579
0.00087484
0.000196701
0.000402347
0.000784523
0.000188989
0.000313769
0.000706849
0.000168685
0.000233229
0.000634852
0.000150958
0.000163853
0.000571709
0.000135559
9.55173e-05
0.000514609
0.000131039
2.42695e-05
0.000461729
0.000128064
-4.7925e-05
0.000411398
0.000118876
-0.000111567
0.000360453
0.000111247
-0.000170329
0.000313931
0.000105521
-0.000221283
0.000264205
9.80798e-05
-0.000269457
0.000219177
9.51016e-05
-0.000316641
0.000172183
9.16208e-05
-0.000364081
0.000128033
9.61263e-05
-0.000424356
8.42182e-05
0.000113256
-0.000494825
4.30514e-05
0.000134649
-0.000572547
2.29685e-05
0.000166369
-0.000672132
9.63153e-07
0.000198832
-0.000794159
-2.54104e-05
0.000231806
-0.000942585
-5.26643e-05
0.000258392
-0.0011035
-0.000106831
0.000272005
-0.00125345
-0.000182847
0.000260061
-0.00134764
-0.000304355
0.00021385
-0.0013326
-0.000443271
0.000133903
-0.0011607
-0.000570484
3.75151e-05
-0.000820987
-0.000550138
-7.60976e-05
-0.000407842
-0.00028358
-0.00014969
-6.88745e-05
0.000223331
-0.000155451
0.000554085
-5.02685e-05
0.000152557
0.000335707
4.95616e-05
0.000391789
0.000911626
-0.0001199
0.000679711
0.00119113
-0.000184475
0.000884086
0.00128986
-0.000107782
0.000980211
0.00129423
7.54716e-06
0.000975084
0.00125266
0.000107198
0.00092735
0.00117879
0.000159114
0.000859562
0.00109412
0.000193323
0.000792562
0.00101047
0.000204631
0.000724545
0.000921707
0.00020618
0.000649581
0.000841006
0.000200952
0.000565727
0.000765929
0.000192764
0.000476462
0.000695407
0.000178381
0.000386435
0.000633195
0.000163681
0.000303851
0.000579019
0.000138417
0.000226011
0.000529109
0.00012044
0.000146015
0.000480686
0.000113917
6.45464e-05
0.000425867
0.000117331
-1.18599e-05
0.000375794
0.000112009
-7.30642e-05
0.000323767
9.78892e-05
-0.000129719
0.000275212
9.53739e-05
-0.000175598
0.000224143
8.5941e-05
-0.000220906
0.000180085
8.44003e-05
-0.000261238
0.000132378
8.0137e-05
-0.000305722
8.68002e-05
8.57165e-05
-0.000352225
3.65039e-05
9.42173e-05
-0.000414511
-9.82496e-06
0.000115162
-0.000482545
-5.39129e-05
0.000144916
-0.000575483
-8.57191e-05
0.000179619
-0.000688171
-0.000128704
0.000215982
-0.000819393
-0.000179828
0.000258387
-0.000967245
-0.000253833
0.000294853
-0.00112489
-0.000337825
0.000312625
-0.00124932
-0.000474274
0.000294343
-0.00128587
-0.000644888
0.000238172
-0.00118054
-0.00083361
0.000157798
-0.000884793
-0.000885842
3.99566e-05
-0.000449149
-0.000648674
-7.05491e-05
-8.39487e-05
-3.19632e-05
-0.000109908
0.000491665
-2.15272e-05
0.000125451
0.000197672
1.25844e-05
0.00034268
0.000831379
-0.000136983
0.000633618
0.00110606
-0.000205872
0.000850899
0.00120581
-0.000133232
0.000966929
0.00119429
-1.60893e-05
0.000995509
0.00113602
8.80625e-05
0.000971292
0.00104547
0.000157535
0.000919177
0.000966651
0.000179586
0.00084922
0.000896931
0.000183495
0.000766026
0.000825288
0.000179613
0.000679017
0.000755077
0.000172937
0.000589034
0.000690428
0.000165485
0.000500742
0.000629557
0.000154142
0.000414886
0.000579061
0.00013999
0.000331272
0.00053373
0.000128903
0.000254057
0.000490498
0.000115826
0.000184346
0.000448042
0.000102355
0.000114825
0.000394208
0.000101179
3.86533e-05
0.000346135
0.00010583
-2.53343e-05
0.000287578
0.000100176
-8.41156e-05
0.000242888
9.11045e-05
-0.000134228
0.000190798
8.34582e-05
-0.000178706
0.000145129
7.94336e-05
-0.000217727
9.52649e-05
7.61328e-05
-0.000259956
4.76226e-05
8.14059e-05
-0.000304884
-6.14034e-06
8.7572e-05
-0.000354494
-5.32471e-05
9.30318e-05
-0.000404855
-0.000119229
0.000115678
-0.00046127
-0.000178033
0.00014873
-0.000532933
-0.000245253
0.000188212
-0.000633268
-0.000311115
0.000231622
-0.000764492
-0.000401666
0.000279058
-0.000929005
-0.000494871
0.00032156
-0.0010929
-0.000657874
0.000347493
-0.00120546
-0.000862625
0.000330304
-0.00118611
-0.00111153
0.000258566
-0.00100397
-0.00122191
0.000153925
-0.000581719
-0.00109498
2.40571e-05
-0.000156894
-0.000434738
-2.20522e-05
0.00029775
3.70197e-05
9.14421e-05
8.99877e-05
1.62427e-05
0.000335745
0.00070931
-0.000122234
0.000619586
0.00101098
-0.000188763
0.000855141
0.00111958
-0.000149327
0.000983124
0.00111211
-4.57957e-05
0.0010157
0.00105143
5.20161e-05
0.00097477
0.000959712
0.000126692
0.000908245
0.000872929
0.000160248
0.000847621