/*--------------------------------*- C++ -*----------------------------------*\
| =========                 |                                                 |
| \\      /  F ield         | OpenFOAM: The Open Source CFD Toolbox           |
|  \\    /   O peration     | Version:  v1806                                 |
|   \\  /    A nd           | Web:      www.OpenFOAM.com                      |
|    \\/     M anipulation  |                                                 |
\*---------------------------------------------------------------------------*/
FoamFile
{
    version     2.0;
    format      ascii;
    class       volVectorField;
    location    "0.0935";
    object      U;
}
// * * * * * * * * * * * * * * * * * * * * * * * * * * * * * * * * * * * * * //

dimensions      [0 1 -1 0 0 0 0];


internalField   nonuniform List<vector> 
64000
(
(-0.0103112 -0.012147 -0.00845181)
(0.0156154 -0.0117802 -0.00597647)
(0.0220795 -0.00401753 0.000264019)
(0.0269172 -0.0033489 0.00108123)
(0.0282562 -0.00236381 0.00141436)
(0.0287313 -0.00279028 0.00197778)
(0.0284026 -0.00378441 0.00214445)
(0.0253778 -0.00418358 0.00263006)
(0.0242297 -0.00512944 0.00394904)
(0.0176019 -0.00494809 0.00379245)
(0.0117817 -0.00535946 0.00505255)
(0.000141922 -0.00766868 0.00705672)
(-0.0166926 -0.0124367 0.00581244)
(-0.0414144 -0.0173592 0.00379916)
(-0.0687322 -0.017977 0.00463411)
(-0.105158 -0.0172734 0.00236744)
(-0.131884 -8.49709e-05 0.00132201)
(-0.177161 -0.00449741 -0.00296679)
(-0.174317 -0.0094536 0.004595)
(-0.235979 -0.0269689 -0.0141832)
(-0.20698 -0.0204474 -0.0205118)
(-0.103024 -0.0224891 -0.038016)
(-0.109225 -0.00718131 -0.0249383)
(-0.107963 -0.00253215 -0.0371252)
(-0.126525 0.00354121 -0.0482056)
(-0.120816 0.0116677 -0.0579482)
(-0.109405 0.0218092 -0.0625615)
(-0.0728829 0.0324351 -0.0590008)
(-0.0386025 0.0395987 -0.0543341)
(0.00510126 0.0508527 -0.0403473)
(0.049639 0.0486592 -0.0320884)
(0.0864539 0.0386569 -0.0251382)
(0.102695 0.0284276 -0.012709)
(0.0998638 0.0146878 -0.00535848)
(0.0862917 0.00605456 0.000881468)
(0.0681681 -0.00192211 0.00347757)
(0.0494175 -0.00598761 0.00443969)
(0.0295182 -0.00542908 0.00526286)
(0.0157079 -0.00399882 0.00567023)
(0.00207495 -0.00260174 0.00363818)
(-0.00737699 0.00246604 -0.00486477)
(0.00894445 -0.0165326 -0.00458495)
(0.0244913 -0.010677 -0.00202483)
(0.0352666 -0.00702718 -0.000990775)
(0.041052 -0.00243765 -0.00146937)
(0.0413001 -0.000601064 -0.00178522)
(0.0401987 0.00332929 -0.00333199)
(0.0333252 0.004884 -0.0029294)
(0.026201 0.0100809 -0.00740445)
(0.0091977 0.0161103 -0.00388792)
(-0.0139734 0.0246095 -0.00834927)
(-0.0510001 0.0324401 0.000867219)
(-0.0972606 0.042366 -0.00405146)
(-0.149711 0.0619027 -0.00680501)
(-0.207509 0.0753181 -0.0114602)
(-0.265348 0.0842605 -0.0182042)
(-0.341793 0.092864 -0.0441112)
(-0.447501 0.0948989 -0.0590068)
(-0.49243 0.101271 -0.0765875)
(-0.579467 0.101028 -0.0975683)
(-0.532427 0.129048 -0.0939065)
(-0.399854 0.144132 -0.125489)
(-0.387686 0.189925 -0.13489)
(-0.372838 0.213437 -0.145339)
(-0.364717 0.237852 -0.157233)
(-0.32588 0.259139 -0.163561)
(-0.278088 0.280076 -0.16502)
(-0.205682 0.295273 -0.153409)
(-0.130798 0.30153 -0.13367)
(-0.0574031 0.305214 -0.109998)
(0.00611951 0.290314 -0.0770198)
(0.0694327 0.259566 -0.0466334)
(0.107322 0.211981 -0.0390909)
(0.119792 0.160032 -0.0262388)
(0.114964 0.109698 -0.0129376)
(0.0965592 0.0699916 -0.00544582)
(0.0774375 0.0415079 -0.00110513)
(0.0532078 0.0266456 -0.000133245)
(0.0317821 0.0167911 0.00127906)
(0.00768314 0.00837077 0.00130845)
(-0.000432654 -0.00463803 0.00153074)
(0.0154486 -0.0223127 -0.0020434)
(0.0325524 -0.0171247 -0.00309152)
(0.0434981 -0.00506776 -0.00440013)
(0.045808 0.00436406 -0.00600524)
(0.0439028 0.0154697 -0.00731822)
(0.0369207 0.0304203 -0.00837706)
(0.0226546 0.0445214 -0.009918)
(0.00725413 0.0686632 -0.00170844)
(-0.0226539 0.0898467 -0.00496564)
(-0.0603988 0.116383 -0.00818523)
(-0.113021 0.148705 -0.0132044)
(-0.167234 0.182317 -0.0178157)
(-0.245365 0.211281 -0.0325536)
(-0.34031 0.231559 -0.0360083)
(-0.436689 0.245358 -0.0425402)
(-0.519668 0.250449 -0.0593875)
(-0.607998 0.270042 -0.0783259)
(-0.647893 0.300875 -0.096156)
(-0.719991 0.336115 -0.115961)
(-0.658748 0.374258 -0.104387)
(-0.499521 0.404809 -0.123948)
(-0.46401 0.461743 -0.124901)
(-0.437931 0.491957 -0.123386)
(-0.420812 0.524022 -0.126579)
(-0.377638 0.545294 -0.125179)
(-0.329349 0.559721 -0.120543)
(-0.262925 0.562606 -0.105197)
(-0.197379 0.552519 -0.0829181)
(-0.131103 0.532097 -0.0595414)
(-0.0759887 0.500035 -0.0400357)
(-0.031107 0.452426 -0.0279438)
(0.00208813 0.379943 -0.0175273)
(0.0244223 0.307166 -0.00885023)
(0.0382898 0.22785 -0.0106946)
(0.0447806 0.163224 -0.0109744)
(0.0456056 0.115958 -0.0073738)
(0.0370239 0.0791095 -0.00518426)
(0.0264451 0.0529702 -0.0015777)
(0.00765737 0.0267982 0.00111192)
(0.000904905 -0.00876502 0.00191199)
(0.0178229 -0.023478 -0.00132542)
(0.0387236 -0.0108495 -0.00392853)
(0.0464074 0.00597409 -0.0071478)
(0.044556 0.0299089 -0.00787193)
(0.0407554 0.054215 -0.00935482)
(0.0281713 0.0894112 -0.00915932)
(0.0099956 0.122216 -0.00589413)
(-0.0166746 0.166969 -0.0106327)
(-0.0623762 0.206829 -0.0130216)
(-0.108102 0.250882 -0.017445)
(-0.172581 0.288494 -0.0250667)
(-0.255274 0.317623 -0.0277165)
(-0.345711 0.334622 -0.0293705)
(-0.431159 0.355999 -0.0322034)
(-0.510402 0.379278 -0.0367124)
(-0.577732 0.409992 -0.0520615)
(-0.652967 0.438921 -0.0622347)
(-0.679016 0.48152 -0.0719207)
(-0.737645 0.527277 -0.0780188)
(-0.665425 0.560276 -0.045917)
(-0.4851 0.58203 -0.045639)
(-0.435567 0.623971 -0.0396351)
(-0.409575 0.629973 -0.0294828)
(-0.393435 0.64317 -0.0275641)
(-0.359323 0.643222 -0.0226847)
(-0.322722 0.635866 -0.0192171)
(-0.272937 0.61677 -0.0114719)
(-0.225004 0.590916 0.000517836)
(-0.179136 0.557783 0.00774987)
(-0.148263 0.516509 0.0125888)
(-0.122566 0.471519 0.0113123)
(-0.0986339 0.41181 0.00539917)
(-0.0760083 0.349634 -0.00254839)
(-0.0523199 0.270167 -0.00604926)
(-0.0221004 0.202756 -0.0107628)
(-0.00110712 0.148173 -0.0110246)
(0.00779579 0.112014 -0.00825862)
(0.016104 0.0790108 -0.0037466)
(0.00605051 0.0393709 0.00084689)
(0.00109314 -0.00917707 0.000584955)
(0.0235807 -0.0126869 -0.004085)
(0.0460289 0.00412316 -0.00796926)
(0.0549529 0.0381241 -0.00890336)
(0.0524861 0.0752511 -0.0086348)
(0.046767 0.120885 -0.0157687)
(0.0289817 0.175383 -0.0137575)
(0.00121046 0.234998 -0.00663105)
(-0.0315139 0.291172 -0.00813314)
(-0.0844389 0.33869 -0.0103353)
(-0.143837 0.376561 -0.01322)
(-0.221779 0.397047 -0.0158499)
(-0.295819 0.419772 -0.0164805)
(-0.370382 0.44443 -0.0217071)
(-0.442069 0.474686 -0.0213563)
(-0.509973 0.507494 -0.0219215)
(-0.564544 0.536167 -0.0262457)
(-0.621192 0.570929 -0.024218)
(-0.627588 0.619339 -0.018319)
(-0.671314 0.666695 -0.0262717)
(-0.600435 0.694117 0.00595127)
(-0.41385 0.700243 0.0169464)
(-0.36005 0.71283 0.0285626)
(-0.343543 0.685126 0.0366025)
(-0.339518 0.668483 0.0365445)
(-0.324647 0.641866 0.0422963)
(-0.30794 0.610067 0.0434345)
(-0.276754 0.572925 0.0473764)
(-0.249503 0.531648 0.0405514)
(-0.223678 0.491542 0.0321658)
(-0.204066 0.446155 0.0219632)
(-0.193818 0.412717 0.0148584)
(-0.184881 0.374586 0.00739023)
(-0.177423 0.343626 -0.00463097)
(-0.154141 0.279591 -0.0141566)
(-0.104648 0.210255 -0.01498)
(-0.0531105 0.162357 -0.0141518)
(-0.0175114 0.132013 -0.0119555)
(0.00251917 0.0980057 -0.00648613)
(0.00317572 0.0494913 0.000843291)
(0.00585218 -0.00355631 -0.000110448)
(0.0285441 0.0024795 -0.00689626)
(0.0598374 0.0292003 -0.00666717)
(0.0716559 0.0807857 -0.0102392)
(0.0663611 0.138508 -0.0152547)
(0.0629463 0.20188 -0.0190466)
(0.0467899 0.276819 -0.0143145)
(0.0134846 0.331731 -0.00589012)
(-0.0386175 0.37704 -0.00592316)
(-0.108115 0.411507 -0.00817868)
(-0.177282 0.441513 -0.0103073)
(-0.242576 0.468908 -0.0104681)
(-0.301285 0.502565 -0.00878292)
(-0.359675 0.530672 -0.00571408)
(-0.408906 0.560729 -0.00015449)
(-0.461428 0.589357 0.00565897)
(-0.493529 0.619619 0.00895371)
(-0.527592 0.650647 0.00859587)
(-0.527648 0.699749 0.0100213)
(-0.55855 0.735643 0.00952634)
(-0.491234 0.759476 0.0400486)
(-0.322307 0.711308 0.053606)
(-0.285267 0.693441 0.064286)
(-0.290645 0.634687 0.0754174)
(-0.301253 0.59471 0.0770112)
(-0.305439 0.55165 0.0763084)
(-0.304716 0.509178 0.0735501)
(-0.293682 0.466793 0.0669744)
(-0.279703 0.419687 0.0648681)
(-0.267964 0.380794 0.043362)
(-0.258377 0.336997 0.0317831)
(-0.24721 0.306158 0.0165076)
(-0.232909 0.279759 0.00592557)
(-0.238992 0.267934 -0.00582493)
(-0.241647 0.243549 -0.0174416)
(-0.176054 0.194644 -0.0150679)
(-0.0937313 0.163425 -0.0157644)
(-0.0410439 0.137688 -0.0123271)
(-0.00512049 0.106082 -0.00727525)
(0.00223027 0.0533192 0.00136685)
(0.00633583 0.00211033 -0.00123059)
(0.0378316 0.0159797 -0.0102391)
(0.0807251 0.0565184 -0.0105979)
(0.105097 0.111668 -0.0128256)
(0.10039 0.1779 -0.0180696)
(0.0975394 0.250489 -0.0207054)
(0.0603794 0.319226 -0.0143816)
(-0.00283477 0.347184 0.000710795)
(-0.054352 0.391218 -0.0042606)
(-0.111347 0.428903 -0.0048775)
(-0.159661 0.4736 -0.00486461)
(-0.210215 0.516145 -0.00289963)
(-0.256334 0.556497 0.000641584)
(-0.303331 0.590153 0.0055435)
(-0.34272 0.62358 0.0138736)
(-0.377892 0.648543 0.0191374)
(-0.399617 0.676653 0.0255403)
(-0.418424 0.688831 0.0288106)
(-0.405287 0.714598 0.0274842)
(-0.425836 0.727098 0.0177839)
(-0.419423 0.747301 0.0359964)
(-0.28394 0.639618 0.0568416)
(-0.233525 0.592328 0.0615507)
(-0.25636 0.529137 0.0728509)
(-0.277709 0.487595 0.0724853)
(-0.298914 0.448982 0.0714242)
(-0.314226 0.414098 0.0673613)
(-0.319926 0.379238 0.059778)
(-0.319043 0.342178 0.046305)
(-0.319479 0.307623 0.0300743)
(-0.316325 0.274331 0.0166067)
(-0.308148 0.246097 0.00361545)
(-0.293208 0.225485 -0.00433372)
(-0.287283 0.209957 -0.0117801)
(-0.290025 0.220314 -0.020173)
(-0.228075 0.195279 -0.021629)
(-0.128384 0.169547 -0.0224713)
(-0.0563587 0.148989 -0.0173669)
(-0.0103016 0.115558 -0.011209)
(0.00219687 0.0586667 -0.000378683)
(0.00719589 0.00841674 -0.00390211)
(0.0454265 0.0347579 -0.0139766)
(0.0992662 0.0837175 -0.0139873)
(0.125496 0.13983 -0.0119188)
(0.128159 0.199275 -0.0128843)
(0.118116 0.272329 -0.0143128)
(0.057838 0.306012 -0.00436431)
(0.00670475 0.351956 0.00396199)
(-0.023943 0.3982 -0.000436201)
(-0.0738053 0.452546 0.00119047)
(-0.115522 0.497608 0.00162506)
(-0.158237 0.536034 0.00819841)
(-0.194448 0.570221 0.0138539)
(-0.226421 0.597738 0.0222512)
(-0.252924 0.624515 0.0266567)
(-0.282019 0.63993 0.0311479)
(-0.299468 0.652571 0.0341994)
(-0.317549 0.650327 0.0335646)
(-0.314229 0.647189 0.0308521)
(-0.326933 0.620598 0.0153561)
(-0.368266 0.627507 0.0177477)
(-0.285644 0.543742 0.0372976)
(-0.219491 0.464974 0.0399861)
(-0.24387 0.42323 0.0510857)
(-0.273177 0.388415 0.0541518)
(-0.304875 0.362997 0.0551223)
(-0.330448 0.337636 0.0558312)
(-0.347786 0.311234 0.048094)
(-0.358285 0.283684 0.0381177)
(-0.365275 0.253244 0.0157085)
(-0.366483 0.221617 0.00643385)
(-0.356607 0.196637 -0.00302286)
(-0.341278 0.183814 -0.0103259)
(-0.322222 0.173771 -0.0142025)
(-0.328543 0.194819 -0.0236549)
(-0.277952 0.198992 -0.0215605)
(-0.162598 0.175236 -0.0231062)
(-0.0749876 0.158533 -0.0179131)
(-0.0154774 0.123062 -0.0107922)
(0.00315942 0.0627819 0.000433092)
(0.0057585 0.0222894 -0.00672596)
(0.0538665 0.0664448 -0.01799)
(0.119683 0.12274 -0.0195188)
(0.152139 0.17876 -0.0139779)
(0.160661 0.239817 -0.0144016)
(0.131976 0.2939 -0.0145282)
(0.0769008 0.326666 -0.00462804)
(0.0362802 0.38582 0.00307799)
(0.00989065 0.4235 0.00938968)
(-0.0238114 0.464965 0.00881445)
(-0.063245 0.501755 0.0131488)
(-0.0947811 0.530305 0.0184155)
(-0.120773 0.55343 0.0262155)
(-0.145535 0.567579 0.0324864)
(-0.168754 0.573273 0.0348773)
(-0.194486 0.570107 0.0354444)
(-0.216099 0.56479 0.0342303)
(-0.242638 0.547908 0.0295935)
(-0.263161 0.534196 0.023555)
(-0.277389 0.498684 0.00980693)
(-0.328844 0.489433 -0.000646784)
(-0.308701 0.457876 0.0117606)
(-0.238092 0.361126 0.0207764)
(-0.242285 0.343465 0.0273529)
(-0.277091 0.318867 0.0349105)
(-0.313127 0.303706 0.0388889)
(-0.348168 0.28609 0.0439315)
(-0.373126 0.26421 0.0393091)
(-0.393689 0.240873 0.0233444)
(-0.410569 0.207629 0.0071095)
(-0.412286 0.182487 -0.00260203)
(-0.398945 0.159301 -0.00896247)
(-0.383196 0.145922 -0.0138011)
(-0.354171 0.14609 -0.0229734)
(-0.342958 0.158935 -0.0263401)
(-0.308095 0.194539 -0.0303876)
(-0.19836 0.178614 -0.0268203)
(-0.0903249 0.168517 -0.0250985)
(-0.020581 0.133682 -0.014012)
(0.00408421 0.0696275 -0.00178199)
(0.00774454 0.0382436 -0.00930119)
(0.0629908 0.104285 -0.0255999)
(0.138461 0.164758 -0.0245302)
(0.177618 0.218783 -0.0151718)
(0.181236 0.273695 -0.0159391)
(0.15097 0.307467 -0.01542)
(0.108224 0.353181 -0.00586292)
(0.0759195 0.40066 0.00571135)
(0.0460722 0.439966 0.0128078)
(0.0210298 0.466551 0.0236137)
(-0.00441228 0.490611 0.02127)
(-0.0340734 0.50419 0.0313561)
(-0.0575535 0.511936 0.0368079)
(-0.0805109 0.504559 0.0424093)
(-0.103284 0.490247 0.0427043)
(-0.130354 0.467507 0.0395293)
(-0.157607 0.445152 0.0341341)
(-0.188508 0.418968 0.026487)
(-0.220109 0.402022 0.0177299)
(-0.249199 0.382725 0.00407962)
(-0.301412 0.366637 -0.00920169)
(-0.333206 0.366212 -0.0065144)
(-0.269162 0.298065 0.0099267)
(-0.239697 0.289709 0.0123087)
(-0.278045 0.272015 0.023492)
(-0.314825 0.263912 0.0301206)
(-0.355612 0.24525 0.039552)
(-0.388312 0.228966 0.032672)
(-0.417553 0.199232 0.0240416)
(-0.432328 0.172421 0.00783635)
(-0.437521 0.144228 0.00882861)
(-0.431396 0.121731 0.0159261)
(-0.411371 0.10248 0.0121301)
(-0.384587 0.103664 0.00821082)
(-0.363726 0.116742 -0.015201)
(-0.331363 0.164721 -0.0259942)
(-0.228829 0.175775 -0.0260158)
(-0.108534 0.168697 -0.0218409)
(-0.0265117 0.141446 -0.0132418)
(0.00498144 0.0740943 -0.000638972)
(0.00881166 0.0620693 -0.0119371)
(0.0720881 0.148415 -0.031878)
(0.156538 0.212344 -0.0311195)
(0.202173 0.261978 -0.0192972)
(0.201238 0.301326 -0.0119964)
(0.17563 0.33442 -0.0156723)
(0.148417 0.374887 -0.00501826)
(0.117766 0.412986 0.0023571)
(0.0930349 0.442389 0.0103196)
(0.0653307 0.464321 0.0262284)
(0.0375583 0.471381 0.0352039)
(0.0188749 0.471982 0.0454022)
(-0.00306381 0.460689 0.0472922)
(-0.030784 0.4377 0.0489129)
(-0.0583708 0.410823 0.0476783)
(-0.0898297 0.378643 0.0413239)
(-0.122557 0.349782 0.0327893)
(-0.158511 0.322517 0.0235287)
(-0.193079 0.305239 0.0147932)
(-0.23086 0.29319 0.00197415)
(-0.280851 0.281981 -0.00837762)
(-0.32785 0.286168 -0.0111807)
(-0.274259 0.26596 0.00297648)
(-0.233245 0.254125 0.0040551)
(-0.266731 0.241457 0.0166291)
(-0.306279 0.229493 0.0247624)
(-0.35252 0.214724 0.0337459)
(-0.389497 0.192213 0.0309795)
(-0.422601 0.166571 0.019339)
(-0.44557 0.13638 0.0285994)
(-0.459294 0.101444 0.0303459)
(-0.459727 0.0728911 0.0163156)
(-0.444681 0.0565984 0.0117242)
(-0.410095 0.0537281 0.00277494)
(-0.371429 0.0678082 -0.00213108)
(-0.339937 0.116613 -0.0245881)
(-0.253361 0.155568 -0.0291369)
(-0.125808 0.165988 -0.0241049)
(-0.0297873 0.146289 -0.0152825)
(0.00433357 0.0797813 -0.002312)
(0.0100391 0.0808129 -0.0126537)
(0.0781008 0.188087 -0.0358787)
(0.170581 0.254919 -0.0344688)
(0.215986 0.294001 -0.0184419)
(0.220226 0.322166 -0.0107765)
(0.204974 0.354906 -0.00831093)
(0.183153 0.387155 -0.00719561)
(0.157642 0.411988 0.00536463)
(0.131339 0.432982 0.0109618)
(0.107294 0.44217 0.022223)
(0.0848807 0.446452 0.033624)
(0.056858 0.436238 0.050012)
(0.0301148 0.413121 0.0543665)
(0.00680584 0.378589 0.0550802)
(-0.0232588 0.345453 0.0481735)
(-0.0592006 0.313374 0.039487)
(-0.0960604 0.287628 0.0282089)
(-0.133808 0.265185 0.018552)
(-0.170692 0.255538 0.0101599)
(-0.213647 0.245446 -0.000853981)
(-0.261403 0.240701 -0.00796035)
(-0.30539 0.241488 -0.0115247)
(-0.258888 0.242812 9.59483e-05)
(-0.215556 0.228222 -0.000712906)
(-0.247144 0.21272 0.0116936)
(-0.284158 0.197159 0.0205558)
(-0.333167 0.180787 0.0285156)
(-0.373748 0.157599 0.0222998)
(-0.411229 0.130103 0.0372825)
(-0.443567 0.094707 0.0440813)
(-0.464624 0.0596071 0.037004)
(-0.466636 0.0332675 0.0473574)
(-0.458647 0.0114125 0.037983)
(-0.438027 0.00755828 0.0351895)
(-0.398383 0.0163401 0.0245505)
(-0.354674 0.0622617 0.00256306)
(-0.266601 0.118084 -0.0260901)
(-0.139997 0.15326 -0.0257462)
(-0.0360449 0.144667 -0.0148676)
(0.00542781 0.0825937 -0.00226407)
(0.0106472 0.102761 -0.0116658)
(0.0833176 0.22963 -0.0381412)
(0.177017 0.297419 -0.0373514)
(0.227806 0.326929 -0.0192552)
(0.242737 0.349606 -0.00640088)
(0.235673 0.373583 -0.000858586)
(0.215868 0.396702 0.00323634)
(0.191949 0.411755 0.00413181)
(0.171439 0.421939 0.0134341)
(0.148527 0.424565 0.0244506)
(0.12238 0.416039 0.0336224)
(0.0958485 0.397778 0.0406937)
(0.0634591 0.370511 0.0532278)
(0.0306167 0.336011 0.0542137)
(0.00237638 0.295614 0.0487013)
(-0.0327679 0.267776 0.0353129)
(-0.0730755 0.245272 0.0227147)
(-0.110084 0.228803 0.0138562)
(-0.148081 0.223686 0.00540472)
(-0.192254 0.214802 -0.00131189)
(-0.234673 0.215005 -0.0070761)
(-0.270132 0.212006 -0.00923768)
(-0.227213 0.229115 -0.00124187)
(-0.191826 0.207384 -0.00336171)
(-0.217556 0.186215 0.00800428)
(-0.253296 0.165233 0.0161019)
(-0.301083 0.142383 0.0207398)
(-0.344528 0.11984 0.0321977)
(-0.389629 0.0873058 0.0447672)
(-0.428432 0.0532275 0.045454)
(-0.451211 0.0223227 0.0661964)
(-0.473312 -0.0153734 0.0477101)
(-0.47918 -0.0541213 0.0338463)
(-0.462684 -0.0748333 0.0114285)
(-0.420929 -0.0630452 0.00389721)
(-0.373643 -0.0167923 0.00714861)
(-0.28737 0.0671946 -0.0033232)
(-0.155346 0.124601 -0.0316114)
(-0.041092 0.138897 -0.014725)
(0.00528432 0.0862478 -0.00381467)
(0.0103554 0.109105 -0.0108491)
(0.0820688 0.252483 -0.040501)
(0.17753 0.323275 -0.041224)
(0.234042 0.350147 -0.0222874)
(0.259762 0.364591 -0.0041056)
(0.260278 0.377138 0.0054796)
(0.242913 0.3895 0.0116041)
(0.220853 0.398468 0.0147909)
(0.20111 0.404162 0.0178793)
(0.17894 0.399233 0.0220563)
(0.155744 0.385183 0.0272021)
(0.124505 0.361904 0.0386096)
(0.090831 0.330408 0.040001)
(0.0536984 0.298357 0.0477012)
(0.0214694 0.264937 0.0458188)
(-0.00897471 0.233823 0.0300878)
(-0.0496614 0.217268 0.0176783)
(-0.083529 0.203402 0.0100437)
(-0.121496 0.198984 0.00249262)
(-0.161966 0.192895 -0.00111578)
(-0.20019 0.191663 -0.00541674)
(-0.217779 0.192349 -0.00456628)
(-0.183342 0.220355 -0.000632481)
(-0.1664 0.189403 -0.00172723)
(-0.188452 0.160589 0.00437028)
(-0.219542 0.130766 0.0119414)
(-0.262201 0.107793 0.0154617)
(-0.305405 0.078721 0.0335987)
(-0.352753 0.0486602 0.0404811)
(-0.389088 0.0197296 0.0629548)
(-0.43541 -0.0210178 0.0463525)
(-0.477475 -0.0740546 0.0381668)
(-0.493875 -0.119245 0.023326)
(-0.480406 -0.151789 0.0121638)
(-0.43882 -0.154072 -0.00845755)
(-0.378098 -0.114362 -0.00733088)
(-0.294017 -0.0139613 -0.00109034)
(-0.172789 0.0813774 -0.0175433)
(-0.0458817 0.123294 -0.020537)
(0.00668632 0.0854942 -0.00240942)
(0.0092482 0.119554 -0.00849203)
(0.0813676 0.277108 -0.0395744)
(0.178042 0.352692 -0.042402)
(0.240915 0.376926 -0.0230443)
(0.27378 0.383723 -0.00260228)
(0.27985 0.383496 0.0114041)
(0.268632 0.386231 0.0210787)
(0.251916 0.389055 0.0237203)
(0.234062 0.3886 0.0262944)
(0.210947 0.378977 0.028476)
(0.184995 0.361853 0.029986)
(0.154262 0.333644 0.0286273)
(0.117995 0.303874 0.0288407)
(0.0801285 0.268105 0.0305689)
(0.0412114 0.24235 0.0352515)
(0.00992438 0.211501 0.0249619)
(-0.0233998 0.193477 0.0122066)
(-0.0572392 0.183537 0.00714448)
(-0.0900971 0.177629 0.000591955)
(-0.128005 0.170936 -0.000997834)
(-0.156101 0.168573 -0.002424)
(-0.154243 0.188091 0.00225236)
(-0.136283 0.197045 0.000371138)
(-0.147916 0.165519 0.000329038)
(-0.164134 0.133546 0.00379616)
(-0.185296 0.0992062 0.00792272)
(-0.222258 0.0724714 0.0204959)
(-0.263468 0.0417187 0.0289673)
(-0.301649 0.0159657 0.0484313)
(-0.353146 -0.0213671 0.0416654)
(-0.411272 -0.0744877 0.0390292)
(-0.459071 -0.125776 0.0288458)
(-0.488942 -0.177415 0.0177739)
(-0.49127 -0.218472 0.00200462)
(-0.456446 -0.237504 -0.0138166)
(-0.389451 -0.207679 -0.021482)
(-0.299636 -0.118428 -0.0189322)
(-0.183039 0.024847 0.00128183)
(-0.0547541 0.102735 -0.0271769)
(0.0055218 0.0883269 -0.00375241)
(0.00692521 0.100119 -0.00909085)
(0.0751525 0.271136 -0.0399671)
(0.172186 0.352774 -0.0418994)
(0.239749 0.377801 -0.0226203)
(0.279788 0.379491 0.000814172)
(0.294095 0.375192 0.0150702)
(0.290374 0.373305 0.02138)
(0.27531 0.368347 0.0251059)
(0.257035 0.360416 0.0273462)
(0.235415 0.348407 0.0281198)
(0.209626 0.328846 0.0275591)
(0.176864 0.304906 0.0247026)
(0.138647 0.274001 0.020206)
(0.100389 0.244357 0.0133317)
(0.0628415 0.217556 0.0182004)
(0.0285372 0.199922 0.0139269)
(0.000776945 0.179505 0.00838658)
(-0.0249123 0.170115 0.00318819)
(-0.0584919 0.158371 -0.00159465)
(-0.0899347 0.15632 -0.0003639)
(-0.0953261 0.165103 0.00289006)
(-0.0965874 0.176843 0.00394984)
(-0.107131 0.16439 0.00350799)
(-0.125068 0.137551 0.00339596)
(-0.143124 0.112884 0.00364932)
(-0.160058 0.0749761 0.00662892)
(-0.188359 0.0461843 0.0144559)
(-0.218569 0.0158105 0.0315865)
(-0.26151 -0.0164765 0.0319124)
(-0.316877 -0.0645085 0.0347564)
(-0.372469 -0.11304 0.0307218)
(-0.425474 -0.17007 0.026111)
(-0.46387 -0.228692 0.0156932)
(-0.479937 -0.283833 0.00204318)
(-0.457916 -0.316981 -0.0155294)
(-0.3983 -0.306542 -0.0281001)
(-0.293635 -0.227829 -0.0317177)
(-0.183607 -0.0746698 -0.0191354)
(-0.062517 0.0576348 -0.0194598)
(0.00705056 0.0777803 -0.00773214)
(0.0078524 0.106837 -0.00318694)
(0.0748212 0.284473 -0.033709)
(0.170653 0.369928 -0.0386553)
(0.244464 0.392449 -0.0182193)
(0.294044 0.388316 0.00670333)
(0.317502 0.375074 0.0153769)
(0.316147 0.365681 0.0234677)
(0.301663 0.354905 0.025149)
(0.285965 0.345859 0.0241684)
(0.26419 0.330409 0.0214875)
(0.239423 0.309463 0.0183524)
(0.206493 0.282356 0.01379)
(0.166526 0.253698 0.00973521)
(0.127141 0.22422 0.00620054)
(0.0907019 0.201594 0.00377435)
(0.0567525 0.185534 0.00465867)
(0.0259049 0.174431 0.00125738)
(-0.000143757 0.167522 -0.000527563)
(-0.0228494 0.159907 -0.000358659)
(-0.036168 0.16152 0.00135135)
(-0.0466871 0.164903 0.00398841)
(-0.062882 0.151428 0.00620499)
(-0.0803711 0.135109 0.00654566)
(-0.100865 0.112448 0.00597521)
(-0.123313 0.0911205 0.00750409)
(-0.140526 0.0590201 0.00640822)
(-0.159392 0.024813 0.0159804)
(-0.191288 -0.00768359 0.0174844)
(-0.23229 -0.0500446 0.022007)
(-0.281988 -0.0920727 0.0230992)
(-0.336223 -0.139971 0.0245757)
(-0.388904 -0.196405 0.0221952)
(-0.431802 -0.258632 0.016121)
(-0.457159 -0.324308 0.00395147)
(-0.447484 -0.373825 -0.0126431)
(-0.397919 -0.387638 -0.0296748)
(-0.303935 -0.324078 -0.0427863)
(-0.188604 -0.177183 -0.0321045)
(-0.0602616 0.0134334 -0.00925964)
(0.00643662 0.0747084 -0.0127784)
(-0.00235658 0.0791689 -0.0151389)
(0.0537372 0.264988 -0.0404591)
(0.151266 0.360963 -0.0463549)
(0.232828 0.386056 -0.0261315)
(0.29209 0.384336 -0.00410457)
(0.32737 0.364552 0.00947831)
(0.337754 0.347939 0.0154942)
(0.327558 0.329346 0.0161015)
(0.310361 0.316383 0.014411)
(0.286083 0.306632 0.0107683)
(0.25825 0.29549 0.00770431)
(0.224293 0.279391 0.00477391)
(0.184355 0.25914 0.00210185)
(0.146954 0.238429 0.000532703)
(0.115037 0.217857 0.000586786)
(0.0855105 0.207117 0.0031482)
(0.0633528 0.202548 -0.00300968)
(0.0412131 0.197588 -0.00287796)
(0.0179658 0.189025 -0.00134822)
(-0.00035153 0.178133 0.00259991)
(-0.0192519 0.156236 0.00574205)
(-0.0392051 0.135066 0.00823698)
(-0.0585001 0.113392 0.00822559)
(-0.0797208 0.0919102 0.00870426)
(-0.103638 0.0711413 0.00779162)
(-0.127068 0.0488938 0.00556599)
(-0.145924 0.0134019 0.00416622)
(-0.17151 -0.0223633 0.0068089)
(-0.206359 -0.0624253 0.00974575)
(-0.246865 -0.109383 0.0134103)
(-0.293649 -0.161875 0.0151842)
(-0.343287 -0.225558 0.0149854)
(-0.388472 -0.295977 0.0108013)
(-0.420703 -0.374375 0.00139823)
(-0.423936 -0.440207 -0.0137109)
(-0.384568 -0.472217 -0.0305822)
(-0.295003 -0.428707 -0.0553603)
(-0.183066 -0.298322 -0.0494846)
(-0.0565798 -0.0692404 -0.0158144)
(0.00567433 0.0543043 -0.00342112)
(-0.00284114 0.147727 -0.00506767)
(0.0500972 0.34941 -0.0197087)
(0.141447 0.448452 -0.0308409)
(0.226404 0.469852 -0.0113498)
(0.294385 0.458087 -0.00411827)
(0.33542 0.425569 0.0123431)
(0.350735 0.389346 0.0156376)
(0.346091 0.375844 0.0182909)
(0.343568 0.38423 0.0148583)
(0.329385 0.388977 0.010388)
(0.304109 0.384696 0.00458003)
(0.266644 0.36941 0.000213397)
(0.22347 0.34374 -0.0030529)
(0.18027 0.315487 -0.00386673)
(0.147784 0.286398 -0.00287709)
(0.124899 0.261569 0.000512005)
(0.0973726 0.24253 -0.000360887)
(0.0667308 0.222785 -0.00715128)
(0.0390066 0.202302 -0.00358313)
(0.0128338 0.177127 -0.00192832)
(-0.00846568 0.150941 0.00563055)
(-0.0253107 0.122732 0.00748311)
(-0.0435574 0.0996563 0.00869721)
(-0.0624265 0.0763116 0.010002)
(-0.0829191 0.0552171 0.00578269)
(-0.109683 0.0336891 0.00364999)
(-0.133514 0.00802227 0.00217001)
(-0.157538 -0.0274893 -0.00349082)
(-0.192875 -0.0659427 -0.00342274)
(-0.232826 -0.109231 -0.00065882)
(-0.275973 -0.15323 0.00494835)
(-0.31898 -0.212298 0.00887523)
(-0.360761 -0.281687 0.010083)
(-0.393763 -0.366537 0.00448548)
(-0.399157 -0.448602 -0.00908801)
(-0.369537 -0.516552 -0.031606)
(-0.303891 -0.516872 -0.0630288)
(-0.190406 -0.390644 -0.0592593)
(-0.0504725 -0.174926 -0.0352031)
(0.00821977 0.0246238 -0.0044073)
(-0.018025 0.231348 -0.0240189)
(0.0195177 0.471349 -0.0425022)
(0.109877 0.580905 -0.0508534)
(0.195517 0.619653 -0.0356733)
(0.267586 0.609906 -0.024524)
(0.316456 0.579097 -0.00736327)
(0.361417 0.533718 0.00195063)
(0.400541 0.50865 0.00239019)
(0.404109 0.50067 -0.00436809)
(0.370862 0.483365 -0.00888082)
(0.327546 0.458247 -0.0111226)
(0.275742 0.425275 -0.0119182)
(0.224266 0.385992 -0.0114905)
(0.181859 0.345335 -0.0100298)
(0.149237 0.308456 -0.0078029)
(0.125189 0.27108 -0.00331815)
(0.105899 0.238466 0.00106227)
(0.0811953 0.209686 0.00140948)
(0.0511373 0.189699 -0.00302009)
(0.0261738 0.162288 -0.000243118)
(0.00256013 0.139774 0.00321129)
(-0.0158879 0.109959 0.00714302)
(-0.0311027 0.0861543 0.00841391)
(-0.0500176 0.0622366 0.00985555)
(-0.0698343 0.0374738 0.00381907)
(-0.093343 0.0133361 0.00716516)
(-0.118926 -0.00498262 0.00633978)
(-0.145861 -0.0308348 0.00378819)
(-0.171862 -0.0610834 -0.000370093)
(-0.195088 -0.105854 -0.00512708)
(-0.229 -0.159801 -0.0108406)
(-0.269514 -0.234565 -0.0144368)
(-0.309684 -0.318807 -0.0172226)
(-0.346912 -0.423477 -0.0213354)
(-0.374887 -0.522457 -0.0298148)
(-0.374125 -0.62198 -0.0467584)
(-0.302543 -0.649247 -0.0696756)
(-0.222865 -0.544174 -0.0842202)
(-0.086742 -0.259556 -0.0421386)
(0.0147935 0.0115162 -0.00336543)
(0.000495423 0.204485 0.000770566)
(0.0390228 0.448533 -0.0366357)
(0.114078 0.574101 -0.0492613)
(0.199876 0.631262 -0.0452684)
(0.271369 0.636688 -0.0369763)
(0.321634 0.618189 -0.0258459)
(0.36193 0.582256 -0.0190123)
(0.396092 0.538797 -0.00900861)
(0.401789 0.497091 -0.0106467)
(0.371558 0.461303 -0.00974333)
(0.332147 0.427223 -0.00924962)
(0.282887 0.393408 -0.0072151)
(0.233281 0.355759 -0.00529399)
(0.191948 0.321545 -0.00264349)
(0.160706 0.28773 -0.00173136)
(0.139142 0.255996 0.00106732)
(0.117155 0.223162 0.00315553)
(0.0970461 0.192244 0.00612047)
(0.0685372 0.171285 0.00702518)
(0.0372558 0.149708 0.000908893)
(0.0114539 0.125848 0.00388054)
(-0.00836211 0.0995656 0.00696279)
(-0.0216409 0.0747161 0.00873794)
(-0.0412087 0.048301 0.00804569)
(-0.0599937 0.0253264 0.00662533)
(-0.076684 0.00191648 0.00960558)
(-0.0959356 -0.0153415 0.00987814)
(-0.122182 -0.033832 0.00627834)
(-0.161593 -0.0510011 0.00306818)
(-0.203014 -0.0844598 0.00379434)
(-0.245735 -0.130903 0.0065732)
(-0.282189 -0.200173 0.00766357)
(-0.313272 -0.289239 0.00590834)
(-0.329091 -0.424078 -0.00324716)
(-0.340282 -0.572179 -0.013587)
(-0.335817 -0.713373 -0.0253051)
(-0.281978 -0.7881 -0.0485999)
(-0.170812 -0.757099 -0.0638164)
(-0.0503834 -0.466427 -0.0684758)
(0.00194026 -0.100311 0.00709176)
(0.000519304 0.219055 -0.00180448)
(0.0373827 0.43816 -0.0326118)
(0.105656 0.561927 -0.0435959)
(0.184349 0.618391 -0.0416935)
(0.254411 0.624816 -0.0269585)
(0.307987 0.603369 -0.021112)
(0.353623 0.565913 -0.0120633)
(0.392669 0.524796 -0.00471545)
(0.403935 0.481098 -0.00486882)
(0.378797 0.447532 -0.00376882)
(0.338494 0.414946 -0.00291799)
(0.286065 0.378617 -0.00128725)
(0.237015 0.341935 0.00058595)
(0.199715 0.307579 0.00185555)
(0.169122 0.275522 0.00276249)
(0.144647 0.242148 0.00461989)
(0.123791 0.208451 0.00682466)
(0.108071 0.173358 0.00979046)
(0.0841953 0.146975 0.0104841)
(0.0533623 0.127002 0.0108288)
(0.0224345 0.108307 0.00608276)
(0.0011526 0.0838753 0.00712432)
(-0.0150017 0.0579121 0.0106093)
(-0.0317915 0.0340777 0.00911963)
(-0.0471107 0.0126225 0.00812018)
(-0.0618797 -0.0084168 0.0101613)
(-0.0772614 -0.0285847 0.0105438)
(-0.0957112 -0.0507797 0.0102772)
(-0.123879 -0.0673234 0.00768442)
(-0.156922 -0.0853856 0.00523738)
(-0.197689 -0.103794 0.00498932)
(-0.242346 -0.145086 0.00577997)
(-0.304843 -0.202794 0.00893104)
(-0.359692 -0.307756 0.0141279)
(-0.378794 -0.437802 0.0133528)
(-0.372235 -0.597401 0.00756747)
(-0.328036 -0.718039 -0.00691866)
(-0.227918 -0.745955 -0.0301434)
(-0.0621821 -0.53365 -0.0428763)
(0.023715 -0.104388 -0.0198058)
(0.00673428 0.195564 -0.00238939)
(0.0456644 0.394418 -0.0263535)
(0.107596 0.526316 -0.0362556)
(0.182879 0.588116 -0.035513)
(0.250127 0.605229 -0.0234858)
(0.302285 0.588269 -0.0154607)
(0.349232 0.552589 -0.00651295)
(0.385879 0.509643 -0.000105155)
(0.400114 0.459201 -0.000116379)
(0.381874 0.419969 0.000283665)
(0.340482 0.382038 0.00108681)
(0.289431 0.344335 0.0037075)
(0.244609 0.310839 0.00526361)
(0.20988 0.278979 0.00638773)
(0.180174 0.24847 0.00643349)
(0.156365 0.217347 0.00750105)
(0.130875 0.186848 0.00898961)
(0.115164 0.151905 0.0126767)
(0.0982008 0.120584 0.0161901)
(0.0709685 0.0997232 0.0151807)
(0.0377217 0.0869938 0.0141047)
(0.00876682 0.0658481 0.0116773)
(-0.00483382 0.0437216 0.0131967)
(-0.0196386 0.0217403 0.0108285)
(-0.0343485 0.00136968 0.0104573)
(-0.0474044 -0.0178691 0.0102038)
(-0.0637129 -0.0368689 0.0100609)
(-0.0793967 -0.0608896 0.0101638)