/*--------------------------------*- C++ -*----------------------------------*\
| =========                 |                                                 |
| \\      /  F ield         | OpenFOAM: The Open Source CFD Toolbox           |
|  \\    /   O peration     | Version:  v1806                                 |
|   \\  /    A nd           | Web:      www.OpenFOAM.com                      |
|    \\/     M anipulation  |                                                 |
\*---------------------------------------------------------------------------*/
FoamFile
{
    version     2.0;
    format      ascii;
    class       vectorField;
    location    "0.07";
    object      currentcloudofpoints;
}
// * * * * * * * * * * * * * * * * * * * * * * * * * * * * * * * * * * * * * //


2409
(
(0.921463 1.39133 0.998422)
(0.695959 1.01792 1.01331)
(1.31319 1.33018 0.999214)
(0.963241 1.18261 0.837985)
(0.956103 1.17968 1.15547)
(1.11044 1.10626 1.00028)
(0.864419 1.57636 1.00184)
(0.59721 0.830075 0.995001)
(1.49432 1.47054 0.999533)
(1.08589 1.11345 0.654265)
(1.06592 1.10355 1.3287)
(1.28908 1.31866 1.07508)
(1.22678 1.28607 1.12676)
(1.14689 1.22508 1.14891)
(1.06121 1.1759 1.14966)
(1.30309 1.32684 1.0394)
(1.25964 1.30162 1.10272)
(1.18336 1.25942 1.14095)
(1.10607 1.18952 1.14778)
(1.00727 1.18601 1.14954)
(0.733425 1.04268 1.16507)
(0.789557 1.07552 1.21958)
(0.837531 1.10347 1.18619)
(0.877365 1.12539 1.14834)
(0.711905 1.02773 1.10163)
(0.758884 1.06341 1.19855)
(0.819385 1.09103 1.20694)
(0.850734 1.11065 1.15313)
(0.911117 1.15015 1.14813)
(1.28409 1.32029 0.921421)
(1.22181 1.28668 0.870934)
(1.14036 1.22934 0.854093)
(1.05847 1.17249 0.849342)
(1.30064 1.3259 0.957904)
(1.25401 1.3042 0.894617)
(1.17934 1.25984 0.859928)
(1.10011 1.19502 0.853887)
(1.00889 1.17797 0.845253)
(0.877383 1.12486 0.851704)
(0.836014 1.10207 0.82524)
(0.795048 1.07671 0.801534)
(0.72653 1.02559 0.860499)
(0.914055 1.15524 0.849512)
(0.849914 1.10748 0.850185)
(0.819621 1.09255 0.810301)
(0.759181 1.05383 0.82746)
(0.703222 1.02185 0.92476)
(0.934083 1.26111 1.16544)
(0.954221 1.35343 1.2161)
(0.922252 1.39249 1.15907)
(0.904983 1.39693 1.09427)
(0.930926 1.21538 1.14208)
(0.951043 1.30846 1.20312)
(0.938663 1.37978 1.18689)
(0.912213 1.39604 1.1262)
(0.915783 1.39062 1.04582)
(0.906362 1.39866 0.89746)
(0.915784 1.39533 0.823969)
(0.959677 1.36033 0.770627)
(0.934199 1.26029 0.832288)
(0.919409 1.39221 0.949842)
(0.907766 1.39814 0.860118)
(0.937792 1.38593 0.796927)
(0.957872 1.31172 0.785334)
(0.932907 1.21438 0.855832)
(0.685 1.07139 1.02367)
(0.687153 1.11754 1.02442)
(0.718204 1.1711 1.00867)
(0.784711 1.27883 0.999064)
(0.691176 1.05148 1.02538)
(0.686846 1.10012 1.02328)
(0.704787 1.14611 1.01854)
(0.746179 1.2171 1.00047)
(0.851486 1.34327 0.999995)
(1.03901 1.43589 1.00732)
(1.13004 1.42891 1.00691)
(1.19316 1.39542 0.999369)
(1.26091 1.36434 0.999858)
(0.981808 1.42238 1.00048)
(1.09068 1.433 1.01032)
(1.16109 1.41309 1.00127)
(1.21866 1.37192 1.00013)
(1.29438 1.35575 0.999281)
(0.587783 0.868497 1.19601)
(0.67504 0.902736 1.29788)
(0.76379 0.946926 1.3887)
(0.834412 0.967263 1.42826)
(0.877562 0.983101 1.39567)
(0.938094 1.02087 1.34722)
(1.02607 1.0548 1.31449)
(0.58816 0.845246 1.11343)
(0.634431 0.869387 1.24731)
(0.717839 0.930327 1.34948)
(0.803884 0.958166 1.41271)
(0.859144 0.973589 1.41459)
(0.900188 0.999548 1.37055)
(0.989956 1.03878 1.31275)
(1.05318 1.07599 1.31522)
(1.13586 1.17542 1.37531)
(1.21267 1.19868 1.35351)
(1.27039 1.24176 1.31621)
(1.32972 1.28674 1.28582)
(1.39659 1.33233 1.23917)
(1.45234 1.39815 1.17507)
(1.48616 1.4527 1.09377)
(1.08896 1.14299 1.35753)
(1.17948 1.18596 1.36661)
(1.24088 1.21876 1.33123)
(1.29726 1.26505 1.29838)
(1.36066 1.30677 1.2635)
(1.42474 1.36232 1.2073)
(1.47079 1.42555 1.13634)
(1.49136 1.463 1.04726)
(0.598395 0.861244 0.799914)
(0.675512 0.90742 0.692643)
(0.765284 0.934363 0.606356)
(0.829517 0.967079 0.573729)
(0.883036 0.98875 0.596146)
(0.938631 1.02111 0.649627)
(1.03122 1.05434 0.675401)
(0.59723 0.843019 0.891748)
(0.617103 0.902508 0.735361)
(0.729001 0.913661 0.643361)
(0.800341 0.952491 0.587741)
(0.859543 0.976872 0.582509)
(0.904882 1.00306 0.624004)
(0.990414 1.03652 0.677487)
(1.06503 1.08056 0.669367)
(1.48499 1.45246 0.906553)
(1.45299 1.39964 0.824749)
(1.39783 1.33362 0.761228)
(1.33171 1.28562 0.713634)
(1.27077 1.23981 0.682908)
(1.21366 1.19912 0.649436)
(1.14862 1.16893 0.630353)
(1.49011 1.4625 0.952217)
(1.47054 1.42625 0.8641)
(1.42581 1.36431 0.792446)
(1.36253 1.30656 0.737111)
(1.29867 1.26326 0.699648)
(1.2404 1.21787 0.670245)
(1.18232 1.1846 0.638728)
(1.11401 1.14546 0.638567)
(0.869067 1.58382 1.18724)
(0.860143 1.55553 1.27992)
(0.873063 1.48637 1.33649)
(0.927652 1.38005 1.4108)
(0.960503 1.28798 1.42689)
(0.98647 1.21397 1.42377)
(1.02125 1.15393 1.35682)
(0.871374 1.59417 1.11247)
(0.86594 1.56972 1.24311)
(0.863574 1.52223 1.31024)
(0.902205 1.43732 1.3751)
(0.947928 1.32582 1.42728)
(0.969611 1.25305 1.4153)
(0.995424 1.18223 1.40424)
(1.0456 1.12784 1.32296)
(0.862715 1.58265 0.814784)
(0.856387 1.55496 0.722981)
(0.879298 1.48374 0.65722)
(0.929633 1.37883 0.591096)
(0.967793 1.29132 0.564895)
(0.979732 1.22917 0.581382)
(1.01329 1.16242 0.631178)
(0.862652 1.57832 0.888701)
(0.858607 1.57169 0.762712)
(0.865593 1.51977 0.686259)
(0.905886 1.43556 0.62881)
(0.953638 1.32657 0.565422)
(0.972856 1.2626 0.580413)
(0.982489 1.19922 0.59421)
(1.05032 1.13473 0.652167)
(0.574674 0.920168 0.999422)
(0.567365 0.99837 1.00708)
(0.573263 1.08857 0.995723)
(0.583014 1.18575 0.99677)
(0.613198 1.27886 1.00313)
(0.664985 1.35476 0.997483)
(0.741642 1.45282 0.999977)
(0.583991 0.878748 0.995711)
(0.570231 0.959448 1.00446)
(0.568509 1.0424 1.00421)
(0.578326 1.13451 0.990502)
(0.595426 1.23426 1.00415)
(0.63675 1.31747 0.998519)
(0.700276 1.39378 0.99821)
(0.796901 1.51976 1.0011)
(0.978507 1.61422 1.00073)
(1.05738 1.62312 1.00146)
(1.1318 1.62942 1.00388)
(1.2189 1.61938 1.00209)
(1.29692 1.60566 1.00011)
(1.3632 1.57942 0.99917)
(1.43058 1.5315 0.999941)
(0.927465 1.60429 1.00219)
(1.02058 1.61683 1.00079)
(1.09529 1.62623 1.00293)
(1.1772 1.62353 1.00327)
(1.26269 1.6101 1.00106)
(1.33227 1.58961 0.999281)
(1.39658 1.55268 0.999585)
(1.465 1.5014 0.999745)
(1.03227 1.11379 0.786096)
(1.08593 1.09722 0.703124)
(0.997854 1.16356 0.813409)
(1.02976 1.11719 1.20434)
(0.991167 1.16417 1.17321)
(1.0695 1.09444 1.28096)
(0.682264 0.850058 0.995362)
(0.69308 0.949992 0.991896)
(0.611367 0.846039 0.993125)
(1.40275 1.37612 0.998954)
(1.35837 1.35384 0.999458)
(1.45342 1.40794 0.998886)
(1.08004 1.55473 1.29944)
(1.11317 1.6302 1.20404)
(1.11446 1.31169 1.37945)
(1.29789 1.57513 1.18756)
(1.01527 1.63807 1.13848)
(1.14919 1.24473 1.39096)
(1.42412 1.50467 1.1492)
(1.35258 1.51715 1.24389)
(1.02309 1.62574 1.23142)
(1.19121 1.58856 1.25163)
(1.2032 1.61359 1.15303)
(0.975945 1.52362 1.33455)
(1.23908 1.50438 1.30026)
(1.36115 1.56146 1.14766)
(1.14021 1.48572 1.33436)
(1.38921 1.55757 1.07175)
(1.21342 1.29334 1.39057)
(1.33108 1.58584 1.08621)
(0.946786 1.61753 1.21227)
(1.05353 1.2221 1.367)
(1.02597 1.30447 1.39344)
(1.18577 1.40198 1.36231)
(1.39016 1.41836 1.25222)
(1.11153 1.63461 1.11608)
(0.934829 1.58542 1.28597)
(1.09933 1.39078 1.37134)
(1.33899 1.35968 1.30143)
(1.2941 1.43458 1.3248)
(0.951079 1.62918 1.12879)
(1.07808 1.1846 1.36702)
(1.44874 1.51307 1.06333)
(1.05131 1.45781 1.35574)
(0.993091 1.38664 1.40109)
(1.27961 1.33814 1.34664)
(1.17125 1.62346 1.07204)
(1.276 1.60063 1.09409)
(1.13651 1.21219 1.38731)
(1.18439 1.22769 1.38337)
(1.06152 1.14066 1.34755)
(1.09675 1.1839 1.37797)
(1.11311 1.21836 1.37898)
(1.21946 1.2461 1.36908)
(1.24896 1.26642 1.34621)
(1.18671 1.2684 1.3921)
(1.27693 1.28867 1.32248)
(1.3051 1.3115 1.30684)
(1.24685 1.31543 1.36682)
(1.33254 1.32202 1.28829)
(1.36505 1.34201 1.26297)
(1.30834 1.34971 1.32487)
(1.39333 1.37089 1.23927)
(1.41844 1.40478 1.20795)
(1.36545 1.38323 1.27658)
(1.4416 1.44956 1.16479)
(1.45519 1.47674 1.11978)
(1.41059 1.46121 1.20855)
(1.47026 1.48465 1.07887)
(1.47401 1.49202 1.03097)
(1.43559 1.50845 1.10607)
(1.43967 1.5221 1.03219)
(1.0455 1.6268 1.07374)
(1.00481 1.62905 1.08404)
(0.985594 1.63443 1.13692)
(0.970985 1.62492 1.0678)
(0.914517 1.61342 1.07798)
(1.12932 1.62559 1.06476)
(1.09142 1.62613 1.07003)
(1.06546 1.63381 1.12973)
(1.1982 1.6184 1.03905)
(1.15367 1.62542 1.03962)
(1.14368 1.6269 1.09548)
(1.28731 1.60058 1.04669)
(1.25302 1.6069 1.05072)
(1.23222 1.60649 1.09073)
(1.34689 1.57968 1.04271)
(1.31561 1.59173 1.04505)
(1.30529 1.59084 1.09128)
(1.40939 1.54232 1.03685)
(1.37587 1.56664 1.03572)
(1.36032 1.56986 1.07946)
(1.41821 1.53248 1.06966)
(1.05228 1.59146 1.27113)
(1.06695 1.62542 1.22085)
(1.09606 1.59996 1.25929)
(1.14953 1.61047 1.23124)
(1.13293 1.57493 1.28151)
(1.06835 1.63628 1.17473)
(1.11402 1.63505 1.16147)
(1.15912 1.62263 1.17862)
(1.1981 1.60418 1.20519)
(1.15746 1.62465 1.13378)
(1.14059 1.28003 1.38034)
(1.16982 1.30937 1.38829)
(1.10539 1.23812 1.36659)
(1.08443 1.26853 1.36854)
(1.15066 1.35856 1.37492)
(1.19751 1.34667 1.38047)
(1.06251 1.30542 1.37705)
(1.03248 1.25894 1.38087)
(1.10202 1.34775 1.37547)
(1.06023 1.34808 1.37996)
(1.14208 1.40037 1.36292)
(1.2894 1.58545 1.14597)
(1.31848 1.57661 1.14116)
(1.25467 1.58761 1.17928)
(1.24631 1.6004 1.13136)
(1.29407 1.50537 1.27647)
(1.27726 1.54019 1.25053)
(1.328 1.54567 1.21726)
(1.3322 1.56494 1.17016)
(1.36215 1.54041 1.19863)
(1.34622 1.57254 1.11746)
(1.25211 1.57078 1.22642)
(1.22052 1.54172 1.28106)
(0.986942 1.62163 1.22551)
(0.982736 1.63236 1.17763)
(1.01822 1.63442 1.19026)
(0.949017 1.6236 1.17751)
(0.910251 1.60138 1.20662)
(0.905371 1.58821 1.25239)
(0.910557 1.61096 1.16317)
(0.898017 1.57125 1.28512)
(0.900116 1.53878 1.3155)
(0.940955 1.60173 1.25344)
(0.925314 1.50805 1.33748)
(0.946488 1.45599 1.36899)
(0.956403 1.55721 1.3143)
(0.976354 1.32825 1.41726)
(0.962193 1.38385 1.40677)
(0.981848 1.45938 1.3665)
(0.99164 1.29607 1.40666)
(1.00063 1.25691 1.39891)
(1.01105 1.34244 1.39995)
(1.01085 1.21132 1.39575)
(1.03656 1.18723 1.36438)
(1.053 1.16565 1.34707)
(1.07462 1.20394 1.35515)
(1.03113 1.53381 1.31602)
(1.06389 1.50384 1.32516)
(1.01504 1.48878 1.34432)
(1.09377 1.47039 1.34229)
(1.11079 1.5159 1.3166)
(1.0043 1.57336 1.29572)
(1.16778 1.53625 1.30301)
(1.40766 1.53111 1.11296)
(1.02215 1.42424 1.37716)
(1.04183 1.37938 1.38314)
(1.07633 1.42139 1.36484)
(1.11825 1.44171 1.35314)
(1.19131 1.61754 1.11559)
(1.39344 1.53214 1.15342)
(1.39212 1.50629 1.20304)
(1.37187 1.46661 1.25911)
(1.37539 1.55601 1.11146)
(1.3207 1.47089 1.29071)
(1.26182 1.47082 1.31355)
(1.34654 1.42183 1.29375)
(0.984144 1.6046 1.26373)
(1.19063 1.49547 1.31854)
(1.16087 1.4438 1.34801)
(1.20892 1.45243 1.33646)
(1.23808 1.41896 1.34616)
(1.23472 1.37199 1.36261)
(1.28678 1.38401 1.34176)
(1.32079 1.39568 1.31989)
(0.755652 1.20695 1.42675)
(0.618707 1.33613 1.26263)
(0.594866 1.12999 1.26265)
(0.621079 1.07138 1.27848)
(0.681302 1.3609 1.31723)
(0.860513 1.21669 1.44976)
(0.592696 0.97226 1.25427)
(0.786287 1.51959 1.24752)
(0.930191 1.10656 1.43141)
(0.66184 1.28571 1.33335)
(0.704667 1.11452 1.36208)
(0.681891 1.43006 1.24668)
(0.788452 1.28476 1.41913)
(0.874613 1.08747 1.44337)
(0.892486 1.28654 1.44528)
(0.807487 1.37451 1.38428)
(0.686343 1.02229 1.3292)
(0.962844 1.1651 1.437)
(0.568789 1.02341 1.18763)
(0.587267 1.30152 1.16253)
(0.90449 1.1646 1.43447)
(0.769053 1.44849 1.3085)
(0.929324 1.23229 1.42245)
(0.5672 1.21207 1.15354)
(0.800015 1.09799 1.42239)
(0.777487 1.03409 1.40491)
(0.64767 1.20376 1.33054)
(0.749076 1.14889 1.41661)
(0.839306 1.03782 1.43796)
(0.829436 1.15564 1.44189)
(0.570097 1.19641 1.2327)
(0.599082 1.26593 1.25893)
(0.572625 0.924689 1.15228)
(1.0069 1.10785 1.32873)
(0.559119 1.11475 1.13082)
(0.741371 1.47935 1.11919)
(0.647042 1.36677 1.10461)
(0.577534 1.0136 1.23053)
(0.587849 1.05511 1.24402)
(0.608932 1.0234 1.26699)
(0.570836 0.962163 1.21406)
(0.570752 0.976683 1.17403)
(0.651901 1.04661 1.29817)
(0.641836 0.992293 1.28532)
(0.583636 0.921027 1.22844)
(0.631199 0.928526 1.26925)
(0.573285 0.907688 1.1763)
(0.674779 0.964917 1.3124)
(0.935863 1.05522 1.37804)
(0.989455 1.07016 1.3274)
(0.878711 1.03621 1.43099)
(0.900731 1.04948 1.42666)
(0.902499 1.09708 1.44328)
(1.02174 1.08112 1.30521)
(1.04037 1.10312 1.30558)
(0.957953 1.09913 1.37376)
(0.646611 1.38185 1.25572)
(0.685531 1.3937 1.28901)
(0.653376 1.35002 1.29502)
(0.732004 1.43871 1.28589)
(0.728397 1.39938 1.31908)
(0.734927 1.32363 1.37046)
(0.746726 1.36498 1.35542)
(0.800953 1.32472 1.40515)
(0.672063 1.32075 1.32784)
(0.725461 1.28799 1.37937)
(0.783345 1.41251 1.34428)
(0.644497 1.31129 1.30307)
(0.610905 1.10195 1.27229)
(0.579654 1.07883 1.23016)
(0.562296 1.0616 1.15846)
(0.563812 1.11985 1.20539)
(0.561979 0.988369 1.10793)
(0.569188 0.948542 1.10879)
(0.576001 0.901391 1.07971)
(0.555409 1.04521 1.08157)
(0.736241 1.47327 1.25285)
(0.777865 1.48283 1.28315)
(0.709381 1.46814 1.20055)
(0.764642 1.51432 1.19812)
(0.621101 1.36215 1.20682)
(0.655605 1.41014 1.19134)
(0.689193 1.41854 1.11237)
(0.848984 1.28047 1.43874)
(0.858445 1.32347 1.42322)
(0.876243 1.25127 1.4418)
(0.831726 1.24227 1.44679)
(0.775977 1.24301 1.42675)
(0.815745 1.20767 1.44762)
(0.710742 1.24699 1.38342)
(0.864434 1.01037 1.43123)
(0.857304 1.06212 1.43659)
(0.88711 1.12758 1.43377)
(0.9188 1.13529 1.43734)
(0.854362 1.12617 1.43168)
(0.868619 1.16357 1.43498)
(0.841434 1.09405 1.42828)
(0.819907 1.07016 1.42424)
(0.813667 1.12818 1.42886)
(0.910303 1.32634 1.43067)
(0.877102 1.3752 1.40433)
(0.928849 1.29059 1.43389)
(0.941589 1.26206 1.42022)
(0.911272 1.26276 1.42803)
(0.894832 1.22979 1.42536)
(0.845358 1.42551 1.36554)
(0.824604 1.46397 1.32653)
(0.977869 1.15484 1.4009)
(0.975808 1.18843 1.43166)
(0.949099 1.19276 1.42758)
(0.958357 1.22169 1.42365)
(1.01264 1.13115 1.34103)
(0.962203 1.13468 1.39779)
(0.94319 1.13616 1.42917)
(0.933357 1.16136 1.43056)
(0.916765 1.1974 1.42075)
(0.648165 1.13034 1.31278)
(0.659378 1.09973 1.31503)
(0.624017 1.17265 1.29739)
(0.678544 1.16102 1.35093)
(0.560296 1.15617 1.18597)
(0.578386 1.16153 1.24615)
(0.611847 1.20592 1.28489)
(0.699551 1.07272 1.34444)
(0.824969 1.53565 1.26803)
(0.826589 1.55213 1.21946)
(0.804589 1.54117 1.16117)
(0.796072 1.52531 1.06993)
(0.814037 1.49753 1.29717)
(0.84508 1.18724 1.44392)
(0.800305 1.17685 1.44224)
(0.70065 1.20903 1.38118)
(0.659877 1.24149 1.33752)
(0.753659 1.1773 1.42344)
(0.698297 1.18027 1.3775)
(0.791935 1.15025 1.43302)
(0.584563 0.862718 1.07977)
(0.557467 1.09844 1.0703)
(0.565569 1.14749 1.06617)
(0.605743 1.28933 1.08142)
(0.586933 1.24319 1.08816)
(0.575286 1.19642 1.08048)
(0.563996 1.1648 1.14164)
(0.574165 1.25629 1.16006)
(0.659579 1.35121 1.04431)
(0.631292 1.31584 1.04726)
(0.615157 1.33828 1.13882)
(0.739554 1.4525 1.05691)
(0.698321 1.39436 1.05003)
(0.723471 0.985006 1.36111)
(0.811426 1.00123 1.42274)
(0.773826 0.991973 1.39782)
(0.733666 1.031 1.37045)
(0.839527 1.00218 1.43513)
(0.811671 1.03567 1.42201)
(0.882233 1.19568 1.43155)
(0.741085 1.07462 1.38192)
(0.610252 1.30043 1.26296)
(0.637245 1.2776 1.30273)
(0.626543 1.23384 1.298)
(0.789128 1.06724 1.41113)
(0.755166 1.103 1.40014)
(0.729683 1.13245 1.39155)
(0.777419 1.12311 1.42053)
(0.584799 1.286 1.2156)
(0.598683 1.32295 1.21957)
(0.563743 1.20435 1.19745)
(0.572636 1.2422 1.21264)
(0.585644 1.23219 1.2469)
(0.697646 1.15303 0.629871)
(0.730871 1.30413 0.637428)
(0.648881 1.12295 0.672371)
(0.602814 1.08309 0.731179)
(0.646135 1.38562 0.754141)
(0.87596 1.18998 0.551419)
(0.735993 1.4691 0.749265)
(0.938359 1.18387 0.554225)
(0.639637 1.18996 0.680171)
(0.633965 1.32019 0.696962)
(0.818411 1.08266 0.573792)
(0.818228 1.37162 0.618062)
(0.817204 1.2252 0.55093)
(0.683558 1.22985 0.647467)
(0.824612 1.16211 0.561052)
(0.696582 1.39161 0.685579)
(0.915101 1.24321 0.546739)
(0.668733 1.01176 0.676384)
(0.924285 1.10471 0.574658)
(0.588105 0.989834 0.747716)
(0.564887 1.08877 0.878726)
(0.59033 1.2967 0.822403)
(0.557824 1.18754 0.846564)
(0.571519 1.00725 0.8356)
(0.783154 1.45387 0.679205)
(0.585656 1.24094 0.729315)
(0.738548 1.05922 0.610322)
(0.563876 1.13885 0.770361)
(0.881016 1.28956 0.541359)
(0.668106 1.40531 0.884103)
(0.877634 1.09627 0.553773)
(0.58199 0.917087 0.858059)
(0.78337 1.5297 0.828601)
(0.759905 1.15049 0.578116)
(0.813513 1.29232 0.577657)
(0.994612 1.11114 0.649534)
(0.665658 1.20962 0.660959)
(0.69611 1.19217 0.634505)
(0.672713 1.17352 0.65263)
(0.676999 1.1383 0.649438)
(0.649033 1.15795 0.67322)
(0.730012 1.15028 0.602159)
(0.72978 1.19096 0.606201)
(0.696774 1.08578 0.639067)
(0.72066 1.10396 0.617282)
(0.751106 1.10707 0.59522)
(0.901343 1.15095 0.561659)
(0.908155 1.18758 0.562257)
(0.926839 1.14703 0.561412)
(0.892874 1.21866 0.552052)
(0.925194 1.21645 0.563771)
(0.902128 1.09991 0.55802)
(0.876037 1.14475 0.561383)
(0.850881 1.17664 0.557106)
(0.821293 1.19515 0.557893)
(0.849543 1.20842 0.549377)
(0.869699 1.23556 0.543195)
(0.85344 1.13333 0.564747)
(0.998827 1.13773 0.634477)
(1.04774 1.10779 0.668019)
(1.02509 1.0808 0.679658)
(0.715992 1.42691 0.708087)
(0.671844 1.38979 0.709937)
(0.690221 1.42624 0.747421)
(0.743776 1.41892 0.677921)
(0.759353 1.4613 0.707107)
(0.701221 1.44945 0.805599)
(0.659152 1.40244 0.816634)
(0.821414 1.50088 0.696908)
(0.800626 1.50708 0.727381)
(0.761106 1.50093 0.785759)
(0.823783 1.54248 0.76065)
(0.721834 1.47262 0.851848)
(0.947431 1.15114 0.575348)
(0.949699 1.10431 0.615012)
(0.946444 1.24065 0.569309)
(0.957036 1.2088 0.56574)
(0.962233 1.17412 0.576989)
(0.611505 1.21457 0.706255)
(0.638671 1.23538 0.685915)
(0.606304 1.14012 0.717805)
(0.599157 1.1727 0.721283)
(0.570165 1.19095 0.751476)
(0.936573 1.05402 0.628309)
(0.98637 1.07037 0.667797)
(0.905227 1.05288 0.575963)
(0.712269 1.26313 0.63911)
(0.661791 1.26803 0.673251)
(0.681125 1.31079 0.668415)
(0.615942 1.27792 0.707722)
(0.665489 1.35421 0.688392)
(0.636801 1.35365 0.716261)
(0.711423 1.34556 0.661562)
(0.603562 1.31791 0.739386)
(0.61451 1.3438 0.784225)
(0.571808 1.27139 0.764257)
(0.79476 1.1556 0.568695)
(0.820565 1.12367 0.572819)
(0.789467 1.11684 0.577997)
(0.851776 1.0907 0.566005)
(0.857467 1.03728 0.568291)
(0.829109 1.02509 0.576252)
(0.781157 1.07083 0.58888)
(0.793496 1.01372 0.590999)
(0.882435 1.04197 0.567878)
(0.780116 1.33452 0.621441)
(0.760109 1.38056 0.651072)
(0.799992 1.41313 0.647755)
(0.881152 1.37365 0.597688)
(0.852854 1.4234 0.633898)
(0.834919 1.46655 0.664414)
(0.853954 1.32475 0.576565)
(0.908382 1.32624 0.56043)
(0.817207 1.32906 0.596651)
(0.778536 1.29865 0.605023)
(0.84909 1.28915 0.555819)
(0.786216 1.26048 0.585361)
(0.762784 1.22621 0.592012)
(0.79171 1.18995 0.569039)
(0.903197 1.2644 0.539412)
(0.850057 1.25703 0.544517)
(0.81788 1.25534 0.559705)
(0.940425 1.2679 0.558766)
(0.930489 1.29159 0.548561)
(0.656265 1.06896 0.674932)
(0.628817 1.05685 0.702458)
(0.622133 1.10554 0.702128)
(0.598523 1.04012 0.739127)
(0.623541 1.01469 0.713087)
(0.672963 0.958675 0.685738)
(0.722953 0.964436 0.637695)
(0.618074 0.960716 0.720779)
(0.706246 1.03077 0.641654)
(0.75725 0.996529 0.610378)
(0.629464 1.34912 0.853863)
(0.587499 1.11064 0.751687)
(0.582107 0.997748 0.784503)
(0.582972 1.04816 0.775292)
(0.56846 1.07483 0.799186)
(0.822172 1.55712 0.818124)
(0.820869 1.55175 0.89947)
(0.568198 1.00838 0.913781)
(0.571458 0.968017 0.910253)
(0.576009 0.925663 0.92647)
(0.585445 0.878479 0.924184)
(0.578089 0.962752 0.842539)
(0.584351 1.08228 0.926694)
(0.573535 1.04378 0.933827)
(0.562858 1.04453 0.860408)
(0.593941 1.17345 0.900014)
(0.589633 1.12892 0.893967)
(0.560737 1.13844 0.860018)
(0.592138 1.23912 0.903749)
(0.603161 1.28466 0.91157)
(0.569699 1.24265 0.832089)
(0.66547 1.37588 0.945189)
(0.635431 1.33218 0.9455)
(0.704273 1.42549 0.941284)
(0.762919 1.50237 0.910392)
(0.587781 0.890406 0.82706)
(0.586593 0.928802 0.767971)
(0.581906 0.947297 0.792002)
(0.551698 1.109 0.820699)
(0.545314 1.15688 0.807301)
(0.550526 1.21474 0.784884)
(1.14893 1.61474 0.77666)
(1.07333 1.60276 0.72343)
(1.36873 1.55214 0.824547)
(1.08968 1.39854 0.618291)
(0.96849 1.62272 0.808763)
(1.43115 1.49775 0.854512)
(1.15701 1.25117 0.605698)
(1.16289 1.35308 0.616861)
(1.06079 1.62319 0.818453)
(1.12246 1.51606 0.68614)
(1.02147 1.49458 0.658679)
(1.15235 1.61721 0.887103)
(1.19032 1.46523 0.665524)
(1.09089 1.30156 0.617963)
(1.23247 1.55689 0.735667)
(1.05243 1.23354 0.633854)
(1.39355 1.45291 0.761892)
(1.02986 1.287 0.606665)
(1.0097 1.61085 0.889618)
(1.39659 1.55413 0.926329)
(1.31687 1.59862 0.902949)
(1.30144 1.50302 0.717481)
(1.23933 1.2947 0.623909)
(0.965123 1.59331 0.714148)
(1.075 1.61684 0.911693)
(1.29971 1.58135 0.804807)
(1.29431 1.32931 0.664099)
(1.24729 1.39956 0.644752)
(0.941467 1.60638 0.877678)
(1.45108 1.50925 0.93691)
(1.08814 1.18699 0.632155)
(1.23057 1.60764 0.833911)
(1.24788 1.61509 0.923698)
(1.33895 1.37797 0.697048)
(0.945149 1.49927 0.6541)
(1.01005 1.36372 0.598643)
(1.44127 1.51961 0.967792)
(1.47431 1.49019 0.968653)
(1.47017 1.4824 0.921436)
(1.10352 1.61812 0.791043)
(1.0693 1.62468 0.770494)
(1.11494 1.6103 0.746834)
(1.09837 1.55285 0.695354)
(1.14523 1.57024 0.715542)
(1.15308 1.60967 0.822391)
(1.10935 1.60855 0.839759)
(1.17864 1.53043 0.704929)
(1.19474 1.58821 0.751674)
(1.19099 1.6077 0.799776)
(1.19503 1.60869 0.854322)
(1.23556 1.59374 0.784133)
(0.990603 1.60843 0.938453)
(1.03111 1.61273 0.944499)
(0.901411 1.59251 0.929535)
(0.955917 1.60552 0.938885)
(0.97831 1.60915 0.883064)
(1.0643 1.61963 0.953536)
(1.10182 1.62529 0.957381)
(1.04403 1.61056 0.899561)
(1.1395 1.62528 0.941627)
(1.18668 1.62173 0.944307)
(1.11389 1.61573 0.894931)
(1.27621 1.60966 0.961373)
(1.23407 1.61734 0.960359)
(1.20354 1.61503 0.903908)
(1.30977 1.60025 0.949081)
(1.34397 1.58326 0.948914)
(1.28603 1.60485 0.911637)
(1.38098 1.56435 0.962621)
(1.41317 1.53925 0.962332)
(1.35896 1.57302 0.911636)
(1.42297 1.52839 0.929756)
(1.07461 1.14956 0.640733)
(1.05492 1.17108 0.64314)
(1.11287 1.1823 0.624622)
(0.909549 1.60155 0.762806)
(0.918015 1.60637 0.805729)
(0.95738 1.61333 0.83554)
(0.904757 1.59925 0.841491)
(0.912322 1.57585 0.715101)
(0.965385 1.61889 0.760566)
(1.03712 1.61316 0.845468)
(0.992866 1.61534 0.844296)
(1.01872 1.62312 0.812307)
(1.02098 1.62451 0.764138)
(1.40045 1.52208 0.833901)
(1.38423 1.50482 0.784965)
(1.41451 1.47474 0.805816)
(1.42224 1.42257 0.798571)
(1.44498 1.44762 0.838153)
(1.41473 1.52693 0.887443)
(1.44081 1.50354 0.895966)
(1.38374 1.55109 0.873071)
(1.45823 1.47347 0.882706)
(0.922087 1.53805 0.679815)
(0.935459 1.44058 0.630118)
(0.914089 1.49238 0.654891)
(0.953915 1.54568 0.67828)
(0.987849 1.32295 0.583258)
(0.972746 1.37068 0.593725)
(0.979484 1.43079 0.631765)
(1.00328 1.25607 0.60273)
(0.99611 1.29166 0.591947)
(1.02068 1.32306 0.598744)
(1.03056 1.19784 0.635083)
(1.00508 1.22672 0.611019)
(1.03672 1.25843 0.621378)
(1.07708 1.20961 0.64137)
(1.17489 1.40962 0.642145)
(1.13878 1.4368 0.648036)
(1.12139 1.37393 0.620633)
(1.08511 1.34324 0.612606)
(1.12704 1.33165 0.617053)
(1.05797 1.29218 0.616917)
(1.05804 1.33845 0.608734)
(1.0497 1.38195 0.6135)
(1.06873 1.50383 0.676036)
(1.05827 1.44508 0.64637)
(1.10305 1.46314 0.660682)
(1.15586 1.48703 0.679742)
(1.01456 1.43246 0.635935)
(1.01991 1.59784 0.717546)
(1.0427 1.54427 0.682192)
(0.994745 1.54348 0.676666)
(1.12885 1.28179 0.619139)
(1.16698 1.30183 0.611787)
(1.20165 1.2741 0.609351)
(1.2031 1.32688 0.614247)
(1.07575 1.26765 0.628109)
(1.11258 1.24677 0.628839)
(1.12561 1.22143 0.621879)
(1.19088 1.23059 0.615235)
(1.23189 1.24495 0.642438)
(1.14841 1.21156 0.615781)
(1.20556 1.37698 0.632267)
(1.21673 1.43404 0.654501)
(1.24215 1.34505 0.631379)
(1.07041 1.61077 0.855219)
(1.20839 1.5035 0.698361)
(0.985048 1.49814 0.655719)
(1.24208 1.60751 0.87615)
(1.26527 1.52546 0.72778)
(1.24315 1.48214 0.688219)
(1.27123 1.44975 0.674299)
(1.30596 1.53995 0.756768)
(1.26922 1.56875 0.767039)
(1.26675 1.596 0.818898)
(1.32021 1.44171 0.692696)
(1.36706 1.40954 0.727123)
(1.34946 1.47668 0.730784)
(1.36633 1.35158 0.738379)
(1.39732 1.38759 0.766635)
(1.34149 1.52496 0.764685)
(1.29571 1.38997 0.664594)
(1.31502 1.35315 0.680531)
(1.27319 1.36414 0.648027)
(1.33482 1.3296 0.712267)
(1.31243 1.30689 0.697218)
(1.34295 1.57687 0.863301)
(1.30968 1.58951 0.852214)
(1.27908 1.59862 0.86573)
(1.33639 1.56332 0.811331)
(1.26688 1.31167 0.645506)
(1.25963 1.26583 0.661573)
(1.28403 1.2836 0.680306)
(0.862331 1.20564 1.20905)
(0.739394 1.13688 1.18283)
(0.732694 1.20082 1.1321)
(0.902653 1.28687 1.23144)
(0.763594 1.26756 1.11039)
(0.836155 1.26647 1.24493)
(0.813425 1.16214 1.2332)
(0.780648 1.22673 1.19928)
(0.798763 1.29547 1.18556)
(0.879895 1.20586 1.14807)
(0.697913 1.10964 1.09055)
(0.86807 1.3353 1.23063)
(0.830335 1.34148 1.15113)
(0.704053 1.06862 1.10684)
(0.834159 1.33804 1.07911)
(0.878285 1.36344 1.03486)
(0.869555 1.36935 1.08639)
(0.865368 1.37047 1.12066)
(0.875645 1.37255 1.15234)
(0.829118 1.33921 1.11733)
(0.77733 1.15155 1.21778)
(0.799597 1.19978 1.22418)
(0.763724 1.18339 1.18984)
(0.74407 1.18064 1.1534)
(0.761571 1.22198 1.16535)
(0.720808 1.16253 1.11285)
(0.718767 1.12919 1.13531)
(0.720697 1.10587 1.14619)
(0.700333 1.09148 1.09565)
(0.801736 1.11676 1.22405)
(0.76419 1.10834 1.21213)
(0.736514 1.09267 1.17876)
(0.719326 1.06044 1.14009)
(0.773874 1.25518 1.15806)
(0.78192 1.28373 1.1485)
(0.748732 1.23463 1.12177)
(0.743611 1.22004 1.06727)
(0.72693 1.18952 1.0834)
(0.812571 1.31731 1.16767)
(0.79681 1.30576 1.13361)
(0.776181 1.2685 1.05857)
(0.795703 1.30096 1.09653)
(0.812255 1.30982 1.04209)
(0.85776 1.16382 1.15935)
(0.874916 1.16428 1.14286)
(0.870262 1.20864 1.17566)
(0.907115 1.18397 1.13672)
(0.893144 1.24897 1.18603)
(0.881047 1.24798 1.21767)
(0.899244 1.22995 1.14496)
(0.915262 1.27211 1.18608)
(0.829896 1.21528 1.23518)
(0.81005 1.24904 1.22467)
(0.794274 1.26542 1.19042)
(0.820201 1.29014 1.21653)
(0.690239 1.08784 1.06039)
(0.693617 1.11681 1.05944)
(0.692463 1.06834 1.06543)
(0.713873 1.16003 1.08266)
(0.844106 1.15072 1.18847)
(0.841421 1.18411 1.2232)
(0.859577 1.24067 1.23717)
(0.829068 1.13309 1.2126)
(0.872906 1.28094 1.24519)
(0.926739 1.32176 1.22793)
(0.892889 1.36676 1.18984)
(0.913178 1.35025 1.22612)
(0.890963 1.31655 1.24315)
(0.851513 1.34378 1.18093)
(0.699773 1.04274 1.07429)
(0.834645 1.32064 1.20642)
(0.850244 1.30268 1.24041)
(1.01274 1.42543 1.12223)
(1.19668 1.34774 1.08259)
(1.1955 1.37572 1.05498)
(1.13667 1.35309 1.11588)
(1.12208 1.39222 1.18031)
(1.08184 1.31436 1.19221)
(1.16121 1.39891 1.12791)
(1.14346 1.42182 1.07442)
(1.03764 1.3395 1.22309)
(1.26362 1.35734 1.05006)
(1.10333 1.43059 1.14257)
(1.04557 1.3998 1.16673)
(1.06863 1.43997 1.07605)
(0.98908 1.42982 1.05791)
(1.00631 1.26857 1.19744)
(1.17097 1.39705 1.06253)
(1.17314 1.38663 1.08819)
(1.14939 1.41402 1.10318)
(1.11912 1.42879 1.10991)
(1.13471 1.4201 1.13797)
(1.16877 1.36794 1.09525)
(1.1573 1.345 1.09305)
(1.15534 1.37581 1.12259)
(1.19312 1.36229 1.07113)
(1.13576 1.37691 1.15035)
(1.14361 1.39693 1.15294)
(1.11717 1.41349 1.16214)
(0.94947 1.41543 1.0727)
(0.958025 1.41337 1.02762)
(0.97135 1.4101 1.13242)
(0.961028 1.41741 1.10315)
(0.999022 1.42878 1.09078)
(1.20524 1.31829 1.09276)
(1.24566 1.33633 1.07795)
(1.22695 1.35077 1.06707)
(1.27898 1.34445 1.06148)
(1.29766 1.35117 1.02603)
(1.04521 1.25353 1.16702)
(1.07365 1.27243 1.14698)
(1.10019 1.30117 1.11852)
(1.14974 1.3073 1.09808)
(1.10576 1.34799 1.1514)
(1.01753 1.23639 1.16663)
(0.969113 1.22665 1.15901)
(1.04782 1.28563 1.20436)
(0.991419 1.34428 1.20868)
(0.983508 1.30367 1.20588)
(1.02196 1.3031 1.21844)
(0.966466 1.26795 1.17872)
(1.04034 1.37637 1.19039)
(0.994759 1.37792 1.18097)
(1.06639 1.32911 1.21699)
(1.07915 1.37447 1.1975)
(1.08664 1.39977 1.17576)
(1.10352 1.3636 1.18632)
(1.0154 1.43332 1.03196)
(0.988485 1.39861 1.15423)
(1.03101 1.4118 1.13922)
(1.04114 1.43289 1.09968)
(1.03301 1.4357 1.06663)
(1.08159 1.43319 1.10863)
(1.06108 1.42507 1.1277)
(1.07949 1.41438 1.15282)
(1.26285 1.36045 1.02571)
(1.21979 1.36014 1.04883)
(1.22231 1.36453 1.02679)
(1.05761 1.43675 1.04126)
(1.10288 1.43439 1.04261)
(1.16926 1.40451 1.03369)
(1.13827 1.42354 1.03991)
(1.10832 1.43219 1.07662)
(1.1943 1.38333 1.02741)
(1.04077 1.3433 0.789652)
(1.20938 1.33683 0.911979)
(1.09227 1.42402 0.90872)
(1.06579 1.29672 0.824416)
(1.09611 1.40436 0.852702)
(1.17102 1.37167 0.887921)
(1.0206 1.39222 0.810741)
(1.1209 1.36129 0.848237)
(1.00188 1.43523 0.853123)
(1.13064 1.32168 0.889536)
(1.23629 1.36514 0.94779)
(0.998702 1.25748 0.81434)
(1.16953 1.40447 0.944082)
(1.01838 1.43542 0.942599)
(0.950769 1.42421 0.872546)
(0.962398 1.41945 0.838443)
(0.977638 1.42034 0.970707)
(0.967659 1.42633 0.917352)
(1.00274 1.43931 0.892894)
(1.01949 1.4164 0.835838)
(0.973472 1.40361 0.812567)
(0.988945 1.37897 0.790287)
(0.986631 1.30316 0.792789)
(1.01603 1.2986 0.788999)
(0.962012 1.25881 0.830848)
(1.03235 1.27335 0.809057)
(1.05654 1.32139 0.79839)
(1.11115 1.38314 0.84944)
(1.08002 1.35947 0.822634)
(1.06866 1.37977 0.83742)
(1.09248 1.33822 0.837034)
(1.00309 1.35123 0.785807)
(1.03132 1.36902 0.804636)
(1.05948 1.39811 0.841864)
(1.03277 1.43295 0.977655)
(1.05844 1.42164 0.858168)
(1.05263 1.43171 0.884048)
(1.09477 1.41553 0.879044)
(1.05371 1.43114 0.925663)
(0.97318 1.22054 0.83975)
(1.01524 1.22614 0.838051)
(1.03988 1.24193 0.844264)
(1.15232 1.34713 0.895348)
(1.12408 1.34271 0.873276)
(1.14564 1.36514 0.873357)
(1.09288 1.31698 0.862529)
(1.13545 1.38797 0.868671)
(1.16634 1.3242 0.904768)
(1.17746 1.34975 0.91339)
(1.21044 1.31308 0.897305)
(1.16241 1.2988 0.891736)
(1.1113 1.28449 0.879738)
(1.07381 1.26458 0.85988)
(1.19165 1.36477 0.92633)
(1.21916 1.35235 0.931039)
(1.25856 1.34881 0.938344)
(1.24813 1.33265 0.915648)
(1.08359 1.42821 0.981458)
(1.18365 1.40043 0.972532)
(1.14951 1.41448 0.974083)
(1.13067 1.41098 0.929746)
(1.11032 1.42055 0.960525)
(1.25143 1.3649 0.972219)
(1.21467 1.3759 0.973999)
(1.20092 1.37982 0.948891)
(1.16954 1.38904 0.911933)
(1.28231 1.35379 0.970176)