/*--------------------------------*- C++ -*----------------------------------*\
| =========                 |                                                 |
| \\      /  F ield         | OpenFOAM: The Open Source CFD Toolbox           |
|  \\    /   O peration     | Version:  v1806                                 |
|   \\  /    A nd           | Web:      www.OpenFOAM.com                      |
|    \\/     M anipulation  |                                                 |
\*---------------------------------------------------------------------------*/
FoamFile
{
    version     2.0;
    format      ascii;
    class       volScalarField;
    location    "0.0995";
    object      p;
}
// * * * * * * * * * * * * * * * * * * * * * * * * * * * * * * * * * * * * * //

dimensions      [0 2 -2 0 0 0 0];


internalField   nonuniform List<scalar> 
64000
(
-0.00015321
-0.126146
-0.311957
-0.436769
-0.53054
-0.610235
-0.684693
-0.755411
-0.829675
-0.90847
-0.99183
-1.05767
-1.20192
-1.3391
-1.43602
-1.58718
-1.6431
-1.83785
-1.82453
-2.16513
-1.98937
-2.53404
-2.48281
-2.6379
-2.57024
-2.58524
-2.5035
-2.49237
-2.4599
-2.47226
-2.49886
-2.567
-2.64686
-2.71147
-2.77512
-2.80362
-2.84436
-2.86149
-2.88353
-2.88701
-0.116017
-0.241332
-0.361105
-0.456512
-0.541534
-0.610262
-0.67714
-0.738995
-0.811749
-0.884966
-0.945859
-1.05657
-1.15703
-1.27797
-1.36788
-1.49477
-1.6146
-1.78489
-1.77306
-2.03568
-1.95435
-2.44693
-2.46865
-2.58984
-2.52193
-2.54037
-2.47568
-2.47583
-2.45209
-2.47709
-2.50321
-2.5421
-2.63058
-2.68432
-2.75375
-2.78644
-2.83063
-2.8514
-2.88092
-2.88874
-0.266054
-0.324085
-0.400836
-0.47985
-0.551055
-0.611136
-0.671371
-0.732588
-0.77434
-0.87716
-0.953362
-1.07014
-1.16706
-1.35055
-1.45372
-1.61707
-1.67609
-1.86406
-1.86913
-2.17335
-2.15979
-2.71139
-2.81192
-2.97844
-2.95224
-3.00094
-2.95544
-2.9566
-2.90536
-2.87828
-2.85019
-2.83965
-2.84231
-2.83991
-2.86519
-2.87107
-2.89789
-2.91115
-2.93319
-2.94164
-0.344769
-0.373896
-0.422149
-0.486849
-0.540606
-0.59167
-0.652543
-0.697077
-0.78886
-0.881062
-0.985204
-1.12247
-1.2693
-1.42352
-1.54115
-1.70911
-1.82024
-2.02923
-2.08712
-2.41524
-2.43394
-3.03747
-3.19424
-3.38509
-3.38593
-3.44161
-3.39777
-3.38111
-3.30634
-3.2409
-3.16042
-3.0784
-3.02718
-2.98241
-2.97546
-2.9643
-2.99522
-2.99099
-3.00517
-3.01264
-0.375998
-0.377152
-0.4285
-0.472928
-0.540727
-0.588413
-0.666643
-0.725888
-0.829458
-0.950375
-1.08515
-1.24936
-1.38963
-1.57063
-1.73517
-1.94269
-2.07267
-2.30174
-2.37083
-2.71768
-2.75616
-3.39741
-3.564
-3.77042
-3.78366
-3.84082
-3.79268
-3.76458
-3.68046
-3.59782
-3.48897
-3.37674
-3.25575
-3.17243
-3.13219
-3.09651
-3.09143
-3.08746
-3.09379
-3.09642
-0.385828
-0.391667
-0.423783
-0.47984
-0.53465
-0.596833
-0.689182
-0.785711
-0.922583
-1.06368
-1.21362
-1.3778
-1.55348
-1.75081
-1.92219
-2.1409
-2.28174
-2.49965
-2.64401
-2.94012
-2.99951
-3.66504
-3.83584
-4.02113
-4.04073
-4.09512
-4.04891
-4.02762
-3.93368
-3.85756
-3.73572
-3.61677
-3.48811
-3.38997
-3.32542
-3.2199
-3.19867
-3.18106
-3.1842
-3.18833
-0.395764
-0.382074
-0.431709
-0.484054
-0.575777
-0.65082
-0.784985
-0.872442
-1.00948
-1.16337
-1.33446
-1.54153
-1.73529
-1.96216
-2.14856
-2.36341
-2.51891
-2.75292
-2.85865
-3.17545
-3.21723
-3.8594
-4.04577
-4.21272
-4.2424
-4.29632
-4.26135
-4.24201
-4.1618
-4.08414
-3.95472
-3.82785
-3.66168
-3.54168
-3.45625
-3.33199
-3.28096
-3.26555
-3.26611
-3.27288
-0.394698
-0.383635
-0.435197
-0.5068
-0.601336
-0.708816
-0.839185
-0.916215
-1.10954
-1.29037
-1.48804
-1.71334
-1.92814
-2.14495
-2.34561
-2.56491
-2.73287
-2.9562
-3.09243
-3.36711
-3.46687
-3.88485
-4.21708
-4.37447
-4.42502
-4.47714
-4.45004
-4.43969
-4.36513
-4.2947
-4.17614
-4.03696
-3.87715
-3.71483
-3.62889
-3.46513
-3.3937
-3.36579
-3.36638
-3.37671
-0.397679
-0.376261
-0.446844
-0.529584
-0.653438
-0.789578
-0.904988
-1.08067
-1.21283
-1.45781
-1.65165
-1.89318
-2.09264
-2.33321
-2.53263
-2.75035
-2.92931
-3.14894
-3.31441
-3.5367
-3.68388
-3.89482
-4.37143
-4.54426
-4.60987
-4.66314
-4.6433
-4.6283
-4.56979
-4.50222
-4.37318
-4.22601
-4.05215
-3.87022
-3.74702
-3.60787
-3.48768
-3.45853
-3.44941
-3.46505
-0.420705
-0.412143
-0.483221
-0.590499
-0.730428
-0.855575
-1.02125
-1.20701
-1.39409
-1.60636
-1.76301
-2.04271
-2.24869
-2.47443
-2.68312
-2.89231
-3.06912
-3.26877
-3.43509
-3.6596
-3.82831
-3.95194
-4.48304
-4.72655
-4.80507
-4.85769
-4.84756
-4.83616
-4.78194
-4.69705
-4.58701
-4.44144
-4.26126
-4.06988
-3.91232
-3.77234
-3.62896
-3.58466
-3.56953
-3.58919
-0.443087
-0.430391
-0.518185
-0.634534
-0.788127
-0.923023
-1.109
-1.31912
-1.51867
-1.75117
-1.94784
-2.1889
-2.32354
-2.61115
-2.80385
-3.0231
-3.19987
-3.38644
-3.5322
-3.74701
-3.90995
-4.04374
-4.6003
-4.92367
-4.99965
-5.0707
-5.04838
-5.0523
-4.98249
-4.91877
-4.78861
-4.64031
-4.45562
-4.2391
-4.0497
-3.90503
-3.75622
-3.68042
-3.66437
-3.68405
-0.510656
-0.501615
-0.589614
-0.720452
-0.861273
-1.02962
-1.21764
-1.4411
-1.65418
-1.8826
-2.08734
-2.32889
-2.53432
-2.68198
-2.9461
-3.13634
-3.32864
-3.51643
-3.65226
-3.88083
-4.03621
-4.18144
-4.79713
-5.13345
-5.21901
-5.28114
-5.2845
-5.27551
-5.22771
-5.13798
-5.01168
-4.85163
-4.61999
-4.41955
-4.20254
-4.08113
-3.9159
-3.84701
-3.81226
-3.83737
-0.558814
-0.545965
-0.641781
-0.765094
-0.931513
-1.10348
-1.32146
-1.53287
-1.74691
-1.97873
-2.19496
-2.43067
-2.62688
-2.87284
-2.99912
-3.26111
-3.4504
-3.64402
-3.76182
-4.02855
-4.16984
-4.3377
-5.06413
-5.35072
-5.43588
-5.49689
-5.49839
-5.49434
-5.43511
-5.35619
-5.20842
-5.01055
-4.86944
-4.65968
-4.42672
-4.20621
-4.06
-3.95346
-3.91503
-3.93677
-0.651917
-0.637554
-0.72753
-0.859734
-1.02605
-1.20765
-1.42397
-1.64361
-1.85913
-2.08956
-2.30391
-2.54777
-2.77092
-2.98289
-3.22163
-3.34298
-3.59071
-3.78026
-3.91031
-4.17356
-4.30351
-4.56271
-5.28608
-5.5166
-5.62618
-5.70972
-5.72426
-5.72539
-5.68126
-5.56481
-5.40221
-5.29154
-5.10656
-4.89802
-4.66374
-4.4558
-4.23785
-4.15349
-4.09123
-4.11914
-0.715483
-0.699374
-0.796201
-0.930983
-1.1121
-1.28655
-1.50642
-1.70905
-1.92574
-2.15466
-2.37899
-2.61343
-2.84688
-3.09379
-3.3299
-3.53896
-3.71989
-3.93919
-4.09008
-4.32508
-4.47949
-4.93024
-5.39183
-5.60501
-5.81465
-5.90632
-5.9402
-5.94526
-5.86522
-5.7295
-5.6419
-5.49351
-5.31006
-5.09628
-4.8627
-4.6244
-4.43052
-4.24002
-4.20117
-4.2199
-0.799232
-0.781996
-0.871217
-1.00591
-1.18301
-1.35782
-1.56792
-1.77275
-1.99593
-2.23016
-2.47191
-2.72751
-2.98718
-3.25573
-3.47604
-3.76367
-3.90376
-4.15386
-4.32053
-4.51187
-4.82751
-5.20919
-5.47459
-5.71173
-5.93254
-6.08934
-6.15364
-6.16013
-6.05763
-6.01857
-5.90574
-5.75177
-5.57161
-5.36315
-5.12662
-4.89099
-4.65608
-4.5353
-4.39074
-4.41836
-0.848172
-0.848977
-0.945607
-1.08751
-1.26841
-1.45814
-1.65573
-1.85028
-2.06204
-2.29574
-2.54801
-2.80857
-3.10373
-3.39007
-3.65018
-3.90391
-4.16232
-4.36485
-4.60824
-4.89693
-5.17661
-5.40259
-5.60134
-5.788
-5.99139
-6.22824
-6.31914
-6.28443
-6.28744
-6.18501
-6.05146
-5.88493
-5.70569
-5.50276
-5.27714
-5.03599
-4.80802
-4.657
-4.51552
-4.55557
-0.895488
-0.877663
-0.955011
-1.0767
-1.24181
-1.41057
-1.61209
-1.81244
-2.06093
-2.32507
-2.62303
-2.91695
-3.23939
-3.55598
-3.83738
-4.14778
-4.4594
-4.84475
-5.10632
-5.41699
-5.50597
-5.67622
-5.80851
-5.93652
-6.10537
-6.34753
-6.53684
-6.5881
-6.57318
-6.46211
-6.30651
-6.11931
-5.93941
-5.74091
-5.52742
-5.28399
-5.04069
-4.83978
-4.69473
-4.67237
-0.907523
-0.911799
-1.00268
-1.12343
-1.31111
-1.48239
-1.67607
-1.85921
-2.08209
-2.39193
-2.77759
-3.2129
-3.63775
-3.993
-4.32223
-4.59684
-4.96346
-5.28859
-5.57663
-5.75748
-5.91208
-5.98732
-6.09057
-6.17368
-6.26763
-6.38543
-6.57944
-6.62164
-6.58365
-6.45962
-6.30576
-6.12266
-5.977
-5.81084
-5.63646
-5.34072
-5.18165
-5.04116
-4.93506
-4.92474
-1.08666
-1.04092
-1.0916
-1.16861
-1.31111
-1.4355
-1.57836
-1.765
-2.1338
-2.5286
-2.98294
-3.46502
-3.93506
-4.30288
-4.61205
-4.9538
-5.27978
-5.62245
-5.94708
-6.09353
-6.25195
-6.29416
-6.37805
-6.42657
-6.4886
-6.57838
-6.70069
-6.8565
-6.87585
-6.72437
-6.49666
-6.24971
-6.03705
-5.82748
-5.61642
-5.45597
-5.19769
-5.00073
-4.80059
-4.80309
-1.1726
-1.19502
-1.24728
-1.35886
-1.51631
-1.66825
-1.8158
-1.93459
-2.22107
-2.56301
-3.00024
-3.50475
-3.99613
-4.39903
-4.78932
-5.1601
-5.51968
-5.9273
-6.21956
-6.45549
-6.56489
-6.58532
-6.64507
-6.64458
-6.70588
-6.68728
-6.68173
-6.67458
-6.57765
-6.34791
-6.2228
-6.11491
-6.11993
-6.10195
-6.02099
-5.81338
-5.64218
-5.43485
-5.29146
-5.19224
-1.21547
-1.21569
-1.25286
-1.33095
-1.45498
-1.586
-1.73603
-1.84653
-2.16029
-2.55317
-3.04584
-3.61383
-4.12413
-4.55723
-4.98303
-5.39355
-5.77691
-6.13922
-6.48835
-6.70749
-6.82749
-6.82376
-6.84337
-6.83961
-6.80254
-6.74107
-6.72873
-6.65242
-6.60492
-6.38806
-6.16872
-5.86229
-5.57371
-5.26595
-5.07338
-4.96452
-4.88096
-4.82152
-4.78755
-4.79671
-1.31971
-1.32807
-1.36018
-1.43357
-1.56661
-1.6825
-1.81316
-1.9129
-2.18332
-2.56982
-3.07505
-3.66549
-4.15407
-4.60859
-5.07024
-5.50674
-5.93459
-6.29518
-6.64327
-6.89759
-7.03047
-6.99444
-7.04539
-6.91707
-6.88314
-6.76756
-6.70851
-6.57825
-6.50015
-6.33374
-6.16951
-5.9383
-5.77803
-5.50729
-5.23094
-4.94163
-4.72992
-4.49581
-4.39078
-4.43452
-1.38982
-1.38789
-1.42325
-1.47086
-1.58492
-1.70183
-1.82373
-1.93859
-2.15999
-2.56669
-3.09955
-3.65077
-4.13919
-4.6019
-5.08702
-5.54762
-5.99439
-6.36859
-6.67386
-6.97502
-7.08806
-7.03584
-6.99846
-6.93124
-6.86987
-6.72684
-6.64302
-6.48678
-6.38757
-6.19623
-6.0494
-5.78403
-5.57147
-5.26803
-5.07378
-4.84017
-4.66723
-4.44964
-4.30516
-4.39164
-1.49683
-1.47509
-1.51497
-1.54883
-1.64669
-1.75884
-1.86927
-1.96279
-2.16934
-2.53505
-3.07742
-3.6131
-4.08578
-4.5441
-5.02248
-5.47839
-5.92708
-6.32258
-6.60517
-7.01439
-7.15215
-7.03225
-7.04596
-6.8595
-6.83325
-6.67202
-6.58145
-6.39916
-6.31811
-6.1264
-6.03198
-5.82342
-5.70617
-5.4623
-5.3225
-5.08072
-4.93069
-4.67906
-4.49274
-4.51184
-1.57677
-1.53153
-1.58162
-1.5964
-1.67444
-1.77419
-1.89156
-1.98339
-2.18293
-2.53702
-3.01948
-3.46617
-3.91669
-4.33404
-4.80876
-5.25232
-5.75676
-6.1746
-6.48649
-6.88276
-7.10234
-6.95495
-6.9654
-6.8222
-6.75396
-6.48881
-6.44106
-6.23836
-6.13684
-5.92316
-5.78775
-5.52101
-5.36191
-5.07714
-4.94996
-4.7194
-4.61665
-4.4457
-4.30873
-4.36324
-1.69271
-1.65062
-1.6846
-1.69698
-1.75615
-1.83055
-1.93667
-2.02559
-2.23478
-2.56249
-2.99389
-3.40763
-3.83077
-4.23538
-4.66435
-5.07254
-5.45451
-5.77199
-6.27511
-6.74591
-6.88107
-6.86453
-6.83726
-6.71255
-6.63527
-6.45678
-6.29274
-6.15036
-6.08551
-5.87304
-5.84588
-5.68398
-5.67157
-5.47012
-5.40457
-5.14731
-5.00157
-4.71284
-4.48582
-4.30354
-1.76314
-1.72341
-1.77482
-1.75841
-1.792
-1.85132
-1.92535
-2.02631
-2.24264
-2.52915
-2.90979
-3.27701
-3.68155
-4.05932
-4.48794
-4.88601
-5.2495
-5.63718
-5.94881
-6.37305
-6.65662
-6.72312
-6.69113
-6.56703
-6.47867
-6.31837
-6.20366
-5.98892
-5.96022
-5.8266
-5.79005
-5.56955
-5.51239
-5.28745
-5.30821
-5.14671
-5.19928
-5.07195
-5.08699
-5.12446
-1.89352
-1.86418
-1.86962
-1.8804
-1.91115
-1.95466
-2.00686
-2.0893
-2.2972
-2.55356
-2.89013
-3.21843
-3.5845
-3.93999
-4.32769
-4.65451
-5.09393
-5.42839
-5.68858
-6.06725
-6.40671
-6.48459
-6.51702
-6.43766
-6.35129
-6.22474
-6.10419
-5.91242
-5.88491
-5.71295
-5.63172
-5.37822
-5.3187
-5.04936
-5.0563
-4.83631
-4.86113
-4.63871
-4.63391
-4.48063
-1.93852
-1.91422
-1.91167
-1.91329
-1.94343
-1.93977
-2.00503
-2.08328
-2.28971
-2.51157
-2.82309
-3.11552
-3.46976
-3.79575
-4.13665
-4.54002
-4.88869
-5.17742
-5.47307
-5.73248
-6.10575
-6.18116
-6.24174
-6.1728
-6.12764
-6.0341
-5.92509
-5.73512
-5.68578
-5.50541
-5.36765
-5.09413
-5.04767
-4.73784
-4.77454
-4.48921
-4.5444
-4.25107
-4.23411
-4.09764
-2.09601
-2.0854
-2.07392
-2.10104
-2.09073
-2.06
-2.11447
-2.17703
-2.36313
-2.56746
-2.83554
-3.09818
-3.41659
-3.69893
-4.06977
-4.39857
-4.66092
-4.99348
-5.22177
-5.44354
-5.80901
-5.93676
-5.96501
-5.95866
-5.85781
-5.88724
-5.68622
-5.57111
-5.46325
-5.34359
-5.19404
-4.92165
-4.9235
-4.54147
-4.62138
-4.26598
-4.29918
-3.9069
-3.81716
-3.57788
-2.10824
-2.09253
-2.09683
-2.06122
-2.13436
-2.0606
-2.11413
-2.15772
-2.338
-2.50813
-2.77072
-3.01623
-3.31469
-3.61182
-3.95393
-4.20563
-4.46475
-4.75116
-4.94743
-5.13768
-5.51208
-5.67897
-5.67917
-5.68689
-5.60455
-5.64544
-5.38725
-5.39073
-5.22257
-5.07261
-4.97289
-4.74007
-4.70346
-4.30623
-4.36811
-3.91423
-4.01912
-3.48419
-3.38582
-2.95618
-2.29004
-2.28877
-2.27431
-2.2428
-2.2462
-2.21111
-2.25223
-2.27654
-2.42082
-2.5662
-2.80463
-3.00207
-3.30244
-3.58894
-3.86036
-4.11575
-4.3398
-4.5842
-4.75648
-4.92749
-5.30489
-5.49731
-5.46171
-5.46994
-5.36701
-5.44845
-5.16652
-5.24363
-5.01452
-4.88332
-4.83953
-4.51599
-4.63484
-4.15347
-4.28762
-3.72265
-3.80281
-3.17733
-2.97816
-2.3024
-2.26053
-2.23755
-2.25228
-2.18916
-2.20895
-2.14171
-2.2266
-2.22231
-2.37084
-2.50113
-2.71221
-2.92113
-3.21427
-3.46567
-3.7498
-3.97311
-4.1734
-4.40611
-4.54785
-4.69099
-5.04457
-5.2949
-5.20211
-5.21997
-5.14281
-5.18353
-4.95297
-5.07799
-4.7932
-4.74115
-4.63445
-4.3362
-4.41001
-3.96921
-4.11191
-3.45483
-3.56082
-2.62074
-2.50983
-1.38305
-2.47256
-2.48655
-2.45674
-2.41446
-2.4022
-2.31027
-2.36019
-2.35044
-2.46655
-2.54925
-2.75275
-2.9363
-3.18926
-3.42475
-3.66871
-3.90449
-4.08635
-4.29736
-4.44027
-4.55111
-4.89851
-5.17401
-5.02992
-5.03375
-4.98643
-4.94633
-4.772
-4.91343
-4.66175
-4.54491
-4.57632
-4.19109
-4.38055
-3.80157
-4.10247
-3.36783
-3.56318
-2.31995
-2.14791
-0.43758
-2.42114
-2.34062
-2.3789
-2.26411
-2.30068
-2.17778
-2.25707
-2.25147
-2.35439
-2.44796
-2.64668
-2.81584
-3.05861
-3.2707
-3.51644
-3.74674
-3.9294
-4.15763
-4.28867
-4.37853
-4.73879
-4.99095
-4.85129
-4.8148
-4.75064
-4.68715
-4.61591
-4.73947
-4.55074
-4.40437
-4.44215
-4.00107
-4.25851
-3.61409
-3.90061
-3.07243
-3.35772
-1.67927
-1.56381
1.26775
-2.64615
-2.7244
-2.61296
-2.57289
-2.46296
-2.38835
-2.34293
-2.31973
-2.40221
-2.48254
-2.65729
-2.81026
-3.02712
-3.22138
-3.44378
-3.65879
-3.86936
-4.0838
-4.24239
-4.30586
-4.6532
-4.89712
-4.77055
-4.67966
-4.61026
-4.48338
-4.50856
-4.57873
-4.42897
-4.28669
-4.39996
-3.93559
-4.22434
-3.52313
-3.99762
-2.93498
-3.50676
-1.44139
-1.12346
3.02196
-2.94158
-2.49981
-2.60309
-2.28013
-2.30934
-2.12786
-2.14119
-2.14211
-2.23352
-2.32888
-2.51443
-2.66342
-2.88856
-3.08045
-3.31069
-3.53238
-3.75629
-3.97765
-4.12127
-4.19837
-4.48343
-4.71936
-4.58891
-4.48238
-4.42927
-4.27933
-4.43539
-4.43865
-4.45356
-4.19248
-4.34446
-3.80935
-4.07735
-3.26955
-3.73079
-2.34779
-2.83584
-0.187402
0.349878
7.58277
-2.80053
-3.06648
-2.86067
-2.83998
-2.40283
-2.33687
-2.18286
-2.1469
-2.21797
-2.29989
-2.46196
-2.6043
-2.81366
-2.99748
-3.21913
-3.44084
-3.68102
-3.89329
-4.12363
-4.14556
-4.448
-4.65863
-4.52555
-4.37743
-4.33904
-4.12313
-4.35817
-4.29372
-4.25814
-4.10557
-4.28653
-3.77044
-4.12935
-3.26754
-3.8148
-2.38436
-2.9868
0.623101
2.25418
11.8177
-5.3324
-2.57715
-2.8654
-2.43781
-2.32211
-2.07514
-2.0546
-2.02266
-2.11825
-2.21565
-2.4067
-2.54701
-2.75854
-2.93615
-3.15845
-3.37993
-3.65676
-3.87454
-4.09287
-4.07911
-4.29818
-4.48794
-4.28147
-4.16397
-4.23031
-4.10289
-4.48944
-4.43182
-4.39713
-4.13702
-4.26551
-3.64395
-3.94636
-3.04995
-3.38953
-1.52979
-1.23917
4.76863
9.79778
24.9024
-0.124574
-0.247306
-0.363846
-0.460903
-0.544867
-0.616904
-0.685004
-0.753866
-0.829829
-0.921753
-0.965274
-1.108
-1.20639
-1.34775
-1.43902
-1.59945
-1.65374
-1.84942
-1.88507
-2.16089
-2.08589
-2.5527
-2.60581
-2.71999
-2.66531
-2.6875
-2.62185
-2.61971
-2.58418
-2.5933
-2.59821
-2.62737
-2.70597
-2.74311
-2.79454
-2.81127
-2.84089
-2.85646
-2.875
-2.88009
-0.240242
-0.311099
-0.395803
-0.47752
-0.549572
-0.618597
-0.67473
-0.746031
-0.780083
-0.886328
-0.942382
-1.0808
-1.16214
-1.29266
-1.37592
-1.52885
-1.59917
-1.78602
-1.77875
-2.07134
-2.10885
-2.53739
-2.62169
-2.74743
-2.70186
-2.74471
-2.69217
-2.70177
-2.67017
-2.6658
-2.66912
-2.69496
-2.70328
-2.73622
-2.78634
-2.80957
-2.84633
-2.86012
-2.88219
-2.88131
-0.326279
-0.363244
-0.423831
-0.489109
-0.556465
-0.613458
-0.673286
-0.716693
-0.804695
-0.893528
-0.969702
-1.08212
-1.18567
-1.33607
-1.45063
-1.63138
-1.69507
-1.88241
-1.90546
-2.23983
-2.34999
-2.83612
-3.01657
-3.18896
-3.1713
-3.23064
-3.18801
-3.18981
-3.13299
-3.08202
-3.00877
-2.94814
-2.92497
-2.91164
-2.90086
-2.89173
-2.91461
-2.92072
-2.93729
-2.93947
-0.377611
-0.399727
-0.443115
-0.497801
-0.549147
-0.603208
-0.654016
-0.719581
-0.791957
-0.889857
-0.988342
-1.12521
-1.26098
-1.43716
-1.55881
-1.74754
-1.8461
-2.06437
-2.12713
-2.48921
-2.66767
-3.21107
-3.42774
-3.61083
-3.60141
-3.65453
-3.59941
-3.56777
-3.47626
-3.38708
-3.28094
-3.16658
-3.07977
-3.01286
-3.00822
-2.98625
-3.01232
-3.00104
-3.0119
-3.01358
-0.39009
-0.407357
-0.445936
-0.491718
-0.560784
-0.587973
-0.66043
-0.740038
-0.840955
-0.958467
-1.0885
-1.25586
-1.40807
-1.59425
-1.75561
-1.97191
-2.10209
-2.33604
-2.445
-2.78179
-2.95536
-3.52538
-3.7582
-3.92967
-3.9155
-3.97323
-3.91077
-3.87526
-3.76353
-3.65441
-3.51884
-3.40452
-3.28358
-3.18993
-3.14083
-3.10872
-3.10451
-3.09622
-3.09715
-3.09959
-0.40692
-0.416506
-0.45429
-0.508567
-0.550291
-0.588231
-0.680255
-0.784595
-0.920619
-1.05935
-1.21021
-1.38142
-1.56152
-1.77276
-1.95275
-2.18248
-2.33903
-2.55405
-2.65818
-2.97995
-3.17598
-3.76139
-3.99128
-4.16203
-4.16002
-4.18815
-4.13181
-4.07312
-3.99771
-3.88261
-3.75343
-3.60361
-3.48463
-3.39182
-3.31729
-3.23904
-3.21771
-3.19667
-3.1907
-3.19557
-0.4109
-0.416322
-0.462194
-0.507637
-0.580468
-0.623598
-0.751521
-0.879502
-0.99937
-1.15671
-1.33036
-1.54235
-1.74502
-1.96317
-2.15936
-2.36973
-2.54225
-2.7679
-2.88082
-3.15248
-3.33602
-3.89869
-4.13818
-4.30577
-4.31132
-4.34942
-4.30187
-4.26711
-4.16302
-4.07368
-3.93527
-3.78924
-3.64109
-3.51912
-3.45587
-3.34377
-3.29694
-3.27746
-3.26953
-3.27688
-0.413667
-0.420619
-0.470516
-0.5317
-0.609494
-0.677707
-0.827851
-0.917153
-1.098
-1.28544
-1.484
-1.71111
-1.92385
-2.14753
-2.33943
-2.56488
-2.73408
-2.94778
-3.08087
-3.30553
-3.49179
-3.93226
-4.24891
-4.43311
-4.47161
-4.51282
-4.48132
-4.45043
-4.37391
-4.26352
-4.13305
-3.99921
-3.83936
-3.70144
-3.60557
-3.4902
-3.41677
-3.39131
-3.37648
-3.38578
-0.413949
-0.418014
-0.481379
-0.554257
-0.651723
-0.761546
-0.880677
-1.05859
-1.2143
-1.43357
-1.63732
-1.86506
-2.08458
-2.31377
-2.51123
-2.72347
-2.89972
-3.1106
-3.26664
-3.46127
-3.63501
-3.9428
-4.35671
-4.58027
-4.64495
-4.6969
-4.67275
-4.64884
-4.54866
-4.45427
-4.33393
-4.15221
-4.01725
-3.80275
-3.72003
-3.58547
-3.50864
-3.46461
-3.45815
-3.46756
-0.436417
-0.443119
-0.514671
-0.622617
-0.722356
-0.815312
-1.00103
-1.18391
-1.36629
-1.59056
-1.77743
-2.0313
-2.23923
-2.46303
-2.65862
-2.85948
-3.0264
-3.21844
-3.38648
-3.58941
-3.76021
-3.9881
-4.47058
-4.74187
-4.84485
-4.89063
-4.89059
-4.84336
-4.76802
-4.61653
-4.50436
-4.43741
-4.26235
-4.12412
-3.89344
-3.76319
-3.63813
-3.60658
-3.58018
-3.59735
-0.45714
-0.462109
-0.553066
-0.658052
-0.797657
-0.891313
-1.08525
-1.27358
-1.46352
-1.70011
-1.92992
-2.17446
-2.3645
-2.59953
-2.79803
-2.99607
-3.15681
-3.32724
-3.47422
-3.66348
-3.83902
-4.07358
-4.60548
-4.9478
-5.05415
-5.11312
-5.08821
-5.0626
-4.90509
-4.88121
-4.78189
-4.60722
-4.44477
-4.21792
-4.05938
-3.86554
-3.7417
-3.69409
-3.67185
-3.68586
-0.525351
-0.533832
-0.628832
-0.753485
-0.866832
-1.02613
-1.18399
-1.40043
-1.60283
-1.8257
-1.97917
-2.33389
-2.51599
-2.72492
-2.93675
-3.1358
-3.29619
-3.45889
-3.59715
-3.78306
-3.95908
-4.21008
-4.78758
-5.16015
-5.27252
-5.32571
-5.31683
-5.25883
-5.19888
-5.1247
-4.96347
-4.83882
-4.66056
-4.5183
-4.29843
-4.11258
-3.88727
-3.84181
-3.82264
-3.8418
-0.576369
-0.578479
-0.683597
-0.795405
-0.951584
-1.10658
-1.30516
-1.48898
-1.66582
-1.92936
-2.13818
-2.37448
-2.54727
-2.86246
-3.05151
-3.27965
-3.44174
-3.59827
-3.72795
-3.91605
-4.10152
-4.38027
-5.05456
-5.38703
-5.49773
-5.54462
-5.52615
-5.43914
-5.42956
-5.3126
-5.24395
-5.09497
-4.89352
-4.64607
-4.43684
-4.25405
-4.08039
-3.90722
-3.92511
-3.93351
-0.666573
-0.663492
-0.762465
-0.887963
-1.04551
-1.2176
-1.41499
-1.61801
-1.81756
-2.04572
-2.2063
-2.50639
-2.70318
-2.89531
-3.21801
-3.43474
-3.60186
-3.75082
-3.87783
-4.06343
-4.25364
-4.60674
-5.22936
-5.54486
-5.67746
-5.75962
-5.6866
-5.72863
-5.66246
-5.61407
-5.49354
-5.33086
-5.12858
-4.91626
-4.65281
-4.46026
-4.29053
-4.13866
-4.07919
-4.13031
-0.734314
-0.727604
-0.83225
-0.964967
-1.13821
-1.31202
-1.5155
-1.70199
-1.90605
-2.13158
-2.34417
-2.57667
-2.75904
-3.04663
-3.26975
-3.60265
-3.76694
-3.92
-4.05131
-4.23375
-4.46579
-4.90041
-5.36993
-5.64727
-5.87559
-5.95935
-5.99394
-5.96562
-5.8901
-5.82834
-5.69452
-5.53463
-5.3368
-5.10519
-4.84068
-4.61819
-4.40917
-4.30489
-4.13969
-4.23056
-0.807434
-0.801172
-0.90436
-1.04142
-1.22006
-1.39722
-1.58185
-1.77478
-1.98788
-2.21519
-2.44036
-2.7097
-2.96106
-3.23934
-3.29697
-3.84578
-3.95623
-4.12924
-4.27402
-4.4818
-4.79631
-5.17007
-5.48583
-5.76946
-5.98326
-6.15572
-6.198
-6.17143
-6.17121
-6.07285
-5.94903
-5.7907
-5.60041
-5.38298
-5.11821
-4.87162
-4.62881
-4.52308
-4.37023
-4.42102
-0.8862
-0.88607
-0.989947
-1.13552
-1.32544
-1.48223
-1.67918
-1.86042
-2.06713
-2.29021
-2.53602
-2.78966
-3.07401
-3.37907
-3.61512
-3.88183
-4.17918
-4.36586
-4.58672
-4.87503
-5.1661
-5.40574
-5.64231
-5.86087
-6.05971
-6.29722
-6.41439
-6.45069
-6.37158
-6.25243
-6.10871
-5.93728
-5.75352
-5.53854
-5.29228
-5.03756
-4.80386
-4.63899
-4.52095
-4.52706
-0.888736
-0.897045
-0.982942
-1.12677
-1.29437
-1.4611
-1.64026
-1.83478
-2.06449
-2.32572
-2.62001
-2.92873
-3.24738
-3.58323
-3.83896
-4.16322
-4.52105
-4.82154
-5.08717
-5.35564
-5.5299
-5.69959
-5.8648
-6.01988
-6.23188
-6.48754
-6.68275
-6.68188
-6.63106
-6.5032
-6.34954
-6.16908
-5.98881
-5.79112
-5.55125
-5.31218
-5.01586
-4.85977
-4.73681
-4.68587
-0.951396
-0.990001
-1.06341
-1.20915
-1.36519
-1.53548
-1.69127
-1.8725
-2.09536
-2.39333
-2.76776
-3.17591
-3.58743
-3.93876
-4.27091
-4.56676
-5.04664
-5.33886
-5.53119
-5.74182
-5.89943
-6.01019
-6.12321
-6.22319
-6.47788
-6.57693
-6.71056
-6.75669
-6.70163
-6.56199
-6.40016
-6.20914
-6.04794
-5.87118
-5.67558
-5.46109
-5.22381
-4.99003
-4.95434
-4.94239
-1.0632
-1.06084
-1.11348
-1.21804
-1.35175
-1.47865
-1.58828
-1.77147
-2.11233
-2.49435
-2.9374
-3.43061
-3.90831
-4.29399
-4.59589
-4.95304
-5.30093
-5.73217
-5.97202
-6.10972
-6.24505
-6.3315
-6.40104
-6.46782
-6.64674
-6.68684
-6.80157
-6.84
-6.80661
-6.6606
-6.48646
-6.27397
-6.1078
-5.93843
-5.72342
-5.53457
-5.23109
-4.99005
-4.84637
-4.82407
-1.21426
-1.18802
-1.24612
-1.34925
-1.51946
-1.64156
-1.76339
-1.8929
-2.18164
-2.52931
-2.96802
-3.48186
-3.98682
-4.40217
-4.81197
-5.19667
-5.58775
-5.98452
-6.33298
-6.48961
-6.58831
-6.62861
-6.68216
-6.7619
-6.72848
-6.75963
-6.79152
-6.77069
-6.64498
-6.3986
-6.20604
-6.0489
-5.99583
-5.96478
-5.91377
-5.73711
-5.52874
-5.33015
-5.21513
-5.26117
-1.22157
-1.20235
-1.25329
-1.33081
-1.49695
-1.59184
-1.72471
-1.83793
-2.1355
-2.52444
-3.01568
-3.58633
-4.11751
-4.56576
-5.00153
-5.42566
-5.82868
-6.23634
-6.56978
-6.80528
-6.85026
-6.8864
-6.87545
-6.87783
-6.86397
-6.81764
-6.79485
-6.72281
-6.62441
-6.37869
-6.15839
-5.87445
-5.62083
-5.32481
-5.09509
-4.95715
-4.84674
-4.73865
-4.71668
-4.85794
-1.32152
-1.31405
-1.35725
-1.43576
-1.56315
-1.70016
-1.81449
-1.91136
-2.15417
-2.53569
-3.03671
-3.63185
-4.14918
-4.61918
-5.09263
-5.54391
-5.99438
-6.37497
-6.76245
-6.98592
-7.12894
-7.05274
-7.13504
-7.00977
-6.95145
-6.83661
-6.76687
-6.63099
-6.53748
-6.33712
-6.15085
-5.90564
-5.72259
-5.45029
-5.17043
-4.90274
-4.69467
-4.48412
-4.31653
-4.35106
-1.3809
-1.37745
-1.41594
-1.47422
-1.58715
-1.74827
-1.82016
-1.91444
-2.11725
-2.50371
-3.03812
-3.61631
-4.13367
-4.60943
-5.09852
-5.57616
-6.04991
-6.45427
-6.81528
-7.10854
-7.19274
-7.16767
-7.08332
-7.03321
-6.95166
-6.80728
-6.69132
-6.52508
-6.41346
-6.20594
-6.04874
-5.76895
-5.53951
-5.22069
-5.01284
-4.78266
-4.60797
-4.39598
-4.18729
-4.27724
-1.49132
-1.47566
-1.51538
-1.56139
-1.65175
-1.76212
-1.85796
-1.94612
-2.1257
-2.48499
-3.00947
-3.55092
-4.0535
-4.52246
-5.01375
-5.50293
-5.9947
-6.41725
-6.76201
-7.10855
-7.27384
-7.17972
-7.14363
-6.98767
-6.87904
-6.74248
-6.63242
-6.42481
-6.32789
-6.12466
-6.01847
-5.79889
-5.66153
-5.41246
-5.27184
-5.04256
-4.89099
-4.64195
-4.41664
-4.42911
-1.57255
-1.53655
-1.57552
-1.60298
-1.67768
-1.7615
-1.8602
-1.93636
-2.11352
-2.44488
-2.9229
-3.41622
-3.89844
-4.34444
-4.83779
-5.32144
-5.82084
-6.231
-6.60168
-6.89042
-7.10948
-7.1856
-7.04041
-6.92659
-6.78891
-6.6483
-6.40627
-6.29663
-6.1491
-5.92097
-5.76497
-5.49085
-5.32979
-5.03739
-4.91404
-4.67167
-4.57121
-4.34037
-4.18114
-4.24326
-1.68754
-1.65463
-1.67879
-1.70032
-1.75409
-1.82309
-1.92495
-1.96566
-2.14446
-2.4471
-2.88468
-3.32931
-3.75822
-4.17943
-4.63982
-5.09608
-5.54536
-5.94432
-6.33666
-6.60673
-6.98977
-6.95248
-6.92342
-6.78628
-6.71235
-6.47358
-6.38473
-6.10108
-6.05767
-5.83162
-5.79077
-5.6232
-5.5991
-5.40508
-5.3601
-5.11382
-4.99341
-4.7243
-4.49819
-4.34406
-1.76772
-1.72264
-1.74494
-1.75089
-1.78593
-1.82549
-1.91262
-1.95515
-2.1494
-2.43661
-2.82029
-3.18833
-3.58757
-3.9794
-4.42392
-4.85234
-5.2885
-5.71671
-6.05339
-6.4694
-6.72569
-6.72994
-6.76237
-6.65077
-6.53672
-6.42769
-6.14879
-6.03258
-5.89589
-5.80241
-5.74163
-5.52659
-5.48374
-5.25748
-5.29157
-5.10374
-5.16433
-5.03462
-4.99062
-5.00959
-1.89641
-1.86333
-1.87241
-1.87485
-1.90146
-1.91739
-1.98079
-2.04008
-2.23868
-2.47833
-2.80442
-3.12369
-3.48782
-3.85265
-4.26359
-4.67263
-5.10078
-5.50664
-5.77455
-6.13019
-6.5318
-6.50122
-6.54626
-6.48376
-6.40781
-6.26665
-6.12966
-5.96514
-5.77633
-5.69882
-5.60093
-5.3943
-5.33979
-5.08108
-5.12216
-4.88816
-4.93007
-4.67475
-4.62013
-4.50935
-1.94809
-1.91034
-1.91903
-1.90868
-1.93433
-1.92128
-1.97998
-2.03014
-2.21578
-2.44208
-2.73431
-3.02233
-3.36731
-3.70617
-4.10544
-4.50636
-4.93047
-5.22006
-5.5342
-5.81572
-6.10404
-6.1769
-6.26013
-6.21684
-6.16426
-6.0612
-5.90522
-5.73106
-5.66079
-5.52737
-5.32336
-5.08168
-5.07206
-4.76987
-4.82614
-4.5252
-4.62882
-4.2583
-4.28015
-4.06889
-2.10595
-2.08209
-2.08118
-2.07622
-2.0808
-2.04944
-2.09446
-2.13649
-2.30963
-2.48828
-2.76048
-3.01584
-3.32492
-3.63268
-3.98951
-4.35173
-4.71069
-5.012
-5.28918
-5.55225
-5.76817
-5.93447
-5.98312
-5.96691
-5.91084
-5.85942
-5.6667
-5.59205
-5.41953
-5.24407
-5.22646
-4.96146
-4.93969
-4.54781
-4.70013
-4.31686
-4.44506
-3.97615
-3.94934
-3.58899
-2.1204
-2.0941
-2.10129
-2.06862
-2.09709
-2.0503
-2.0979
-2.13768
-2.2942
-2.45785
-2.71095
-2.94091
-3.23812
-3.53207
-3.86981
-4.15786
-4.42743
-4.79881
-4.96037
-5.20033
-5.48651
-5.67495
-5.69399
-5.69611
-5.64237
-5.63074
-5.44315
-5.38798
-5.17823
-5.02885
-4.95884
-4.72063
-4.77448
-4.32045
-4.41401
-3.99876
-4.22192
-3.62939
-3.66373
-3.10671
-2.30822
-2.30785
-2.28265
-2.25643
-2.24659
-2.20674
-2.24143
-2.26264
-2.39253
-2.53595
-2.7568
-2.99826
-3.2353
-3.5222
-3.76918
-4.06251
-4.3703
-4.59172
-4.75305
-4.96656
-5.26947
-5.48069
-5.47641
-5.47943
-5.41125
-5.44025
-5.23165
-5.21931
-5.00943
-4.84976
-4.81796
-4.51993
-4.64215
-4.16012
-4.43272
-3.81747
-4.0788
-3.4482
-3.49614
-2.66057
-2.27947
-2.2657
-2.27773
-2.1823
-2.22534
-2.13687
-2.2235
-2.21215
-2.36183
-2.45538
-2.69096
-2.8967
-3.20259
-3.45888
-3.71697
-3.9446
-4.20294
-4.41935
-4.55267
-4.71846
-5.02125
-5.26546
-5.23417
-5.23761
-5.17211
-5.22332
-5.02615
-5.02531
-4.81859
-4.68435
-4.62567
-4.31499
-4.39993
-4.00479
-4.17704
-3.67204
-3.91035
-3.01298
-3.34329
-2.00825
-2.49419
-2.5157
-2.48685
-2.44922
-2.38842
-2.33241
-2.35989
-2.35537
-2.46182
-2.54808
-2.73335
-2.93536
-3.16215
-3.40211
-3.63415
-3.90241
-4.0993
-4.29618
-4.43913
-4.5818
-4.8889
-5.13952
-5.06951
-5.06222
-4.98262
-4.97256
-4.83964
-4.86303
-4.69307
-4.53381
-4.57334
-4.16262
-4.38734
-3.81225
-4.17902
-3.50683
-4.01111
-3.00289
-3.20652
-1.39598
-2.43268
-2.38896
-2.42343
-2.28459
-2.34322
-2.17929
-2.27509
-2.25712
-2.38268
-2.47407
-2.6958
-2.82826
-3.07611
-3.2767
-3.50565
-3.74956
-3.93753
-4.17078
-4.30315
-4.40493
-4.69378
-4.96692
-4.88076
-4.8525
-4.77316
-4.69599
-4.65409
-4.6523
-4.55123
-4.37474
-4.46076
-4.00846
-4.26362
-3.60789
-4.04186
-3.15865
-3.81881
-2.4509
-3.14449
0.0741999
-2.64877
-2.75062
-2.64258
-2.62569
-2.50941
-2.43731
-2.3846
-2.38326
-2.45341
-2.53845
-2.69894
-2.86003
-3.07235
-3.27173
-3.49336
-3.71524
-3.92897
-4.13751
-4.29448
-4.3869
-4.69775
-4.89581
-4.80168
-4.73218
-4.61425
-4.45866
-4.51707
-4.46259
-4.40942
-4.24042
-4.3966
-3.9428
-4.27155
-3.56134
-4.12027
-3.08647
-3.87754
-2.16432
-3.04051
1.93489
-2.87548
-2.48263
-2.61271
-2.3192
-2.34551
-2.1978
-2.19586
-2.19915
-2.30208
-2.39979
-2.59126
-2.73397
-2.96537
-3.16171
-3.40306
-3.64635
-3.85268
-4.0968
-4.2601
-4.30385
-4.58576
-4.81475
-4.6288
-4.5122
-4.46454
-4.26404
-4.42328
-4.35597
-4.40559
-4.14185
-4.34658
-3.80104
-4.14735
-3.33777
-3.87757
-2.54751
-3.16877
-0.733107
-0.580377
7.22255
-2.56944
-3.0279
-2.8977
-2.91001
-2.60789
-2.39537
-2.30437
-2.25445
-2.30997
-2.38905
-2.54261
-2.70309
-2.92476
-3.11355
-3.34341
-3.58827
-3.85552
-4.02067
-4.30816
-4.34368
-4.61864
-4.81926
-4.58938
-4.42503
-4.37103
-4.1104
-4.33049
-4.18567
-4.22273
-4.07834
-4.30088
-3.78583
-4.16359
-3.25931
-3.87396
-2.42833
-2.91501
0.671096
2.80939
14.3994
-5.17903
-2.45455
-2.73233
-2.36736
-2.29877
-2.11188
-2.08692
-2.06198
-2.16641
-2.26983
-2.45888
-2.59617
-2.81258
-3.01562
-3.27405
-3.54237
-3.84382
-4.10963
-4.2984
-4.22854
-4.4453
-4.60106
-4.32733
-4.16767
-4.22444
-4.05367
-4.45465
-4.34091
-4.34188
-4.11168
-4.29495
-3.63702
-3.95415
-3.00837
-3.3727
-1.44022
-0.846683
5.3558
12.8591
31.2164
-0.264204
-0.322514
-0.395314
-0.470704
-0.546646
-0.617033
-0.686931
-0.748554
-0.828132
-0.87912
-0.994272
-1.10259
-1.21136
-1.346
-1.44599
-1.58645
-1.68308
-1.85681
-1.84616
-2.12533
-2.02407
-2.59678
-2.64515
-2.77079
-2.70968
-2.70393
-2.62023
-2.59199
-2.54371
-2.54359
-2.56537
-2.60577
-2.64806
-2.73097
-2.78768
-2.81638
-2.84607
-2.85273
-2.87009
-2.86688
-0.322348
-0.356176
-0.417194
-0.475599
-0.553234
-0.608411
-0.670729