/*--------------------------------*- C++ -*----------------------------------*\
| =========                 |                                                 |
| \\      /  F ield         | OpenFOAM: The Open Source CFD Toolbox           |
|  \\    /   O peration     | Version:  v1806                                 |
|   \\  /    A nd           | Web:      www.OpenFOAM.com                      |
|    \\/     M anipulation  |                                                 |
\*---------------------------------------------------------------------------*/
FoamFile
{
    version     2.0;
    format      ascii;
    class       volVectorField;
    location    "0.0995";
    object      U;
}
// * * * * * * * * * * * * * * * * * * * * * * * * * * * * * * * * * * * * * //

dimensions      [0 1 -1 0 0 0 0];


internalField   nonuniform List<vector> 
64000
(
(-0.0105943 -0.0127685 -0.00903588)
(0.0167051 -0.0123314 -0.00656328)
(0.0237354 -0.00419102 3.83062e-05)
(0.0289127 -0.00336444 0.000956212)
(0.0304778 -0.00232562 0.001305)
(0.0311818 -0.00282954 0.00174545)
(0.0310615 -0.00383611 0.00184501)
(0.0284452 -0.00437454 0.00232157)
(0.0275148 -0.00530622 0.00357217)
(0.0214852 -0.00536917 0.00384154)
(0.0153807 -0.00571316 0.00402279)
(0.00516674 -0.00690441 0.00779055)
(-0.00963037 -0.012397 0.00553703)
(-0.0348411 -0.0172139 0.0037178)
(-0.0612215 -0.0179093 0.00426838)
(-0.0974637 -0.0176446 0.00232159)
(-0.122863 -7.72056e-05 0.000930823)
(-0.168125 -0.00455437 -0.00329979)
(-0.163699 -0.00943119 0.00407421)
(-0.226076 -0.0272135 -0.0147346)
(-0.194452 -0.019289 -0.0194249)
(-0.0937233 -0.0219699 -0.0378856)
(-0.106526 -0.00583905 -0.0241463)
(-0.105881 -0.00173939 -0.037035)
(-0.126049 0.00432032 -0.0480391)
(-0.120602 0.0123981 -0.0578873)
(-0.109618 0.0226114 -0.0624224)
(-0.0731125 0.0330473 -0.0591459)
(-0.0389426 0.0404045 -0.0544608)
(0.00482729 0.0512144 -0.0410219)
(0.0490537 0.0495228 -0.0322856)
(0.0863448 0.0391901 -0.025605)
(0.102368 0.0290681 -0.0129414)
(0.0996819 0.0152353 -0.00566539)
(0.085958 0.00653303 0.00063866)
(0.067946 -0.00141013 0.00321227)
(0.0494649 -0.00555079 0.00401354)
(0.0297667 -0.00515329 0.00479979)
(0.0159563 -0.00378486 0.00513086)
(0.00223905 -0.00242681 0.0032457)
(-0.0075677 0.00276571 -0.00545509)
(0.00949826 -0.0167446 -0.00511391)
(0.0257147 -0.0106929 -0.00235941)
(0.0369703 -0.00690426 -0.00119507)
(0.0430116 -0.00238014 -0.00170645)
(0.0435481 -0.000657942 -0.00196278)
(0.042642 0.00309796 -0.00360772)
(0.0362045 0.00464134 -0.00304603)
(0.0291846 0.00925166 -0.0079306)
(0.0127638 0.0158667 -0.00371018)
(-0.00937013 0.0241578 -0.00852354)
(-0.0457863 0.0332293 0.000841877)
(-0.091041 0.0420115 -0.00420822)
(-0.143396 0.0619375 -0.00688555)
(-0.200731 0.0752273 -0.0116836)
(-0.257843 0.0842603 -0.0180505)
(-0.33261 0.0928172 -0.0447078)
(-0.438495 0.0946711 -0.0594978)
(-0.481927 0.101118 -0.0771918)
(-0.568838 0.100979 -0.0972643)
(-0.517784 0.130412 -0.0922737)
(-0.388506 0.145499 -0.125393)
(-0.382912 0.19227 -0.133877)
(-0.369166 0.215074 -0.144841)
(-0.362663 0.239367 -0.156843)
(-0.324094 0.260583 -0.163266)
(-0.277188 0.281537 -0.164743)
(-0.204768 0.296574 -0.153138)
(-0.130628 0.302859 -0.133537)
(-0.0570258 0.306085 -0.109958)
(0.00607471 0.291494 -0.0771161)
(0.069404 0.260447 -0.0465628)
(0.107289 0.21301 -0.0391637)
(0.119766 0.160853 -0.0261893)
(0.1149 0.110684 -0.0130378)
(0.09652 0.0709939 -0.00553097)
(0.0774082 0.0425861 -0.00122543)
(0.0533299 0.0276045 -0.000245306)
(0.0319404 0.0177074 0.00109497)
(0.00775222 0.00932679 0.00104527)
(-0.000220084 -0.00424657 0.00139647)
(0.0162308 -0.0223375 -0.00230042)
(0.0338164 -0.0172893 -0.00334669)
(0.0450975 -0.00527852 -0.0047116)
(0.0475879 0.00396605 -0.00626976)
(0.0459074 0.0148926 -0.00757046)
(0.039264 0.0297201 -0.00856102)
(0.0249698 0.0435779 -0.0102791)
(0.0103421 0.0678071 -0.00168524)
(-0.0186819 0.0895466 -0.00501366)
(-0.0560896 0.116081 -0.00830285)
(-0.108199 0.148351 -0.0131895)
(-0.161178 0.182132 -0.0177221)
(-0.238855 0.211281 -0.032845)
(-0.333077 0.231755 -0.036395)
(-0.429114 0.24596 -0.042922)
(-0.510844 0.250725 -0.0600231)
(-0.598979 0.270128 -0.07917)
(-0.637537 0.301566 -0.0970846)
(-0.709581 0.337375 -0.115955)
(-0.64384 0.375387 -0.102966)
(-0.487678 0.407624 -0.124353)
(-0.459155 0.464624 -0.124229)
(-0.434245 0.494458 -0.123244)
(-0.418769 0.526475 -0.126679)
(-0.375793 0.547579 -0.125375)
(-0.328415 0.562068 -0.120698)
(-0.262086 0.564694 -0.105214)
(-0.197311 0.554569 -0.0828368)
(-0.130942 0.533836 -0.0595648)
(-0.0761951 0.501385 -0.0400119)
(-0.0309827 0.453455 -0.0280633)
(0.0020009 0.380922 -0.017658)
(0.0245617 0.308008 -0.00893167)
(0.0384949 0.228976 -0.0107252)
(0.044962 0.164546 -0.011041)
(0.0458557 0.117646 -0.00747736)
(0.0372452 0.0809073 -0.00531376)
(0.026634 0.0546992 -0.00176114)
(0.00772493 0.0287006 0.00088765)
(0.00121725 -0.00840098 0.00183849)
(0.0185081 -0.023649 -0.00152395)
(0.0397624 -0.0111366 -0.00414066)
(0.0478006 0.00542264 -0.00739533)
(0.0460589 0.0292817 -0.00811897)
(0.0425945 0.053347 -0.00949061)
(0.0301092 0.0884984 -0.00947296)
(0.0125318 0.121235 -0.00593583)
(-0.0132846 0.166441 -0.0107922)
(-0.0584863 0.206117 -0.0130864)
(-0.103726 0.250202 -0.0176076)
(-0.167365 0.288154 -0.0250875)
(-0.248788 0.31757 -0.028139)
(-0.339055 0.334253 -0.029659)
(-0.423583 0.356186 -0.0326516)
(-0.502478 0.379494 -0.0371626)
(-0.568769 0.410641 -0.0528646)
(-0.643803 0.439822 -0.0632482)
(-0.668657 0.483486 -0.0732013)
(-0.72798 0.530076 -0.0783281)
(-0.650593 0.562384 -0.0442215)
(-0.47312 0.586449 -0.0459333)
(-0.431236 0.627787 -0.0389514)
(-0.406215 0.63332 -0.0294472)
(-0.391654 0.646527 -0.0278272)
(-0.357634 0.646415 -0.0230477)
(-0.321985 0.639101 -0.0196019)
(-0.272264 0.61976 -0.0117657)
(-0.225129 0.593775 0.000194979)
(-0.179385 0.560304 0.00744806)
(-0.148968 0.518656 0.0122381)
(-0.122904 0.47298 0.0109499)
(-0.0987723 0.412571 0.00499686)
(-0.0757332 0.350535 -0.00285829)
(-0.0517901 0.271658 -0.00629776)
(-0.0214626 0.204607 -0.0109286)
(-0.000581811 0.150326 -0.0112206)
(0.00798606 0.114156 -0.00845256)
(0.0161567 0.081163 -0.00392803)
(0.00607724 0.0417487 0.000644309)
(0.00119021 -0.00897316 0.000367036)
(0.0240941 -0.0128977 -0.00409245)
(0.0469715 0.00385719 -0.00818028)
(0.0561824 0.0374121 -0.00909489)
(0.0538932 0.0744208 -0.00890841)
(0.0483819 0.119796 -0.0159817)
(0.0310679 0.174374 -0.0141878)
(0.00374472 0.233797 -0.00680473)
(-0.0282891 0.289905 -0.00835029)
(-0.0806253 0.337495 -0.0106242)
(-0.139114 0.375654 -0.0136396)
(-0.21628 0.396751 -0.0162663)
(-0.289636 0.419494 -0.0167715)
(-0.363309 0.444349 -0.0218454)
(-0.433855 0.475043 -0.021931)
(-0.501873 0.508147 -0.0226319)
(-0.55553 0.537629 -0.0272343)
(-0.612235 0.571917 -0.0255686)
(-0.617409 0.622847 -0.0193295)
(-0.661905 0.670811 -0.0265811)
(-0.585359 0.697406 0.00782546)
(-0.401548 0.705512 0.0169766)
(-0.356103 0.717233 0.0295869)
(-0.340533 0.688672 0.0366783)
(-0.338168 0.672287 0.0363276)
(-0.32336 0.645526 0.0420855)
(-0.307511 0.613886 0.0430702)
(-0.276443 0.57657 0.0468092)
(-0.250003 0.535179 0.039927)
(-0.224172 0.494771 0.0313825)
(-0.205238 0.449245 0.0211163)
(-0.19496 0.415522 0.0141818)
(-0.185501 0.376847 0.00686766)
(-0.176577 0.345547 -0.00508812)
(-0.15297 0.282164 -0.0145031)
(-0.103825 0.212778 -0.0153003)
(-0.0525786 0.164747 -0.0144024)
(-0.0173149 0.134395 -0.0121488)
(0.00258717 0.100457 -0.00670253)
(0.003155 0.0522437 0.000654181)
(0.00589406 -0.00320335 -0.000219103)
(0.0289169 0.00244 -0.00697767)
(0.0604171 0.0291189 -0.00691767)
(0.0724472 0.0800351 -0.0103318)
(0.067414 0.137494 -0.0153709)
(0.0645021 0.200662 -0.0194052)
(0.048532 0.275135 -0.0148113)
(0.0157737 0.33002 -0.00647613)
(-0.0351531 0.375294 -0.00651904)
(-0.103763 0.41016 -0.00881982)
(-0.171981 0.440547 -0.0109155)
(-0.236542 0.468361 -0.0110045)
(-0.294298 0.502472 -0.00934487)
(-0.3523 0.531345 -0.00616996)
(-0.400757 0.561707 -0.000726705)
(-0.453163 0.590667 0.00505057)
(-0.485046 0.621365 0.00867631)
(-0.51789 0.652609 0.00838104)
(-0.516285 0.702679 0.00891284)
(-0.549046 0.739754 0.00955802)
(-0.475342 0.761492 0.0422285)
(-0.309519 0.716254 0.0540043)
(-0.281727 0.698211 0.0657266)
(-0.287913 0.638435 0.0760731)
(-0.300021 0.599095 0.0772014)
(-0.304359 0.555933 0.0761992)
(-0.304426 0.51376 0.0733242)
(-0.293505 0.471076 0.0664481)
(-0.280249 0.423954 0.0642724)
(-0.268474 0.384682 0.0425934)
(-0.259259 0.34064 0.030818)
(-0.248121 0.309771 0.0150884)
(-0.233758 0.282993 0.00491681)
(-0.238547 0.271152 -0.00672304)
(-0.240596 0.246476 -0.0181903)
(-0.175714 0.197358 -0.0154729)
(-0.0934293 0.165848 -0.0160507)
(-0.0408929 0.140209 -0.0125644)
(-0.0051303 0.108587 -0.00750435)
(0.00220226 0.0562506 0.00116874)
(0.00601728 0.00265219 -0.00160198)
(0.0379289 0.0163308 -0.0102619)
(0.0809888 0.0567494 -0.0108618)
(0.105396 0.111566 -0.0130519)
(0.101332 0.177781 -0.0184584)
(0.0985209 0.24983 -0.0214251)
(0.0619635 0.318402 -0.0155161)
(-0.000336695 0.345935 -3.67201e-07)
(-0.0507672 0.390183 -0.00505804)
(-0.106702 0.428029 -0.00567163)
(-0.15395 0.472828 -0.00561204)
(-0.203655 0.51613 -0.00358645)
(-0.248983 0.557099 0.000118491)
(-0.295492 0.591114 0.00474438)
(-0.334418 0.624955 0.013173)
(-0.369599 0.650241 0.0183118)
(-0.390285 0.678961 0.025022)
(-0.409527 0.691781 0.0281757)
(-0.394436 0.717014 0.0273608)
(-0.415986 0.730306 0.0174775)
(-0.40266 0.749262 0.0383994)
(-0.268283 0.640127 0.0572152)
(-0.229003 0.596967 0.0631136)
(-0.253106 0.533034 0.073869)
(-0.276152 0.492465 0.0730724)
(-0.297786 0.453818 0.071716)
(-0.314039 0.419213 0.0674255)
(-0.320006 0.384103 0.0595121)
(-0.319816 0.34685 0.0458112)
(-0.320403 0.311965 0.0293126)
(-0.317462 0.278418 0.0157181)
(-0.30941 0.249861 0.00238685)
(-0.294024 0.228734 -0.00516691)
(-0.286774 0.213161 -0.0127424)
(-0.289319 0.223018 -0.0208589)
(-0.227851 0.197965 -0.0219749)
(-0.12823 0.172236 -0.0226942)
(-0.0562229 0.151649 -0.0175916)
(-0.0103574 0.118363 -0.0114085)
(0.0021639 0.0618711 -0.000570989)
(0.00704019 0.00906214 -0.00415569)
(0.0455548 0.0353736 -0.0140649)
(0.0994403 0.0841113 -0.01419)
(0.12586 0.140225 -0.0122365)
(0.128701 0.199623 -0.0132756)
(0.118825 0.272043 -0.0152407)
(0.0590003 0.306015 -0.00536068)
(0.00907117 0.351926 0.00319401)
(-0.0197868 0.397933 -0.00133151)
(-0.0688874 0.453024 0.000375533)
(-0.10928 0.498264 0.000925348)
(-0.151032 0.537328 0.00732878)
(-0.186966 0.571561 0.0129466)
(-0.218747 0.599335 0.0213872)
(-0.244512 0.626356 0.0257496)
(-0.273317 0.641895 0.0304665)
(-0.290003 0.655096 0.0337083)
(-0.307982 0.652584 0.0330836)
(-0.303333 0.65083 0.0303519)
(-0.316506 0.623276 0.0147146)
(-0.353423 0.631625 0.0189541)
(-0.268808 0.540332 0.0384307)
(-0.210949 0.470028 0.0410751)
(-0.239894 0.427875 0.0522714)
(-0.271004 0.394155 0.0549659)
(-0.303699 0.368597 0.0556819)
(-0.330285 0.34348 0.056091)
(-0.348154 0.316773 0.0480756)
(-0.359508 0.289182 0.0377406)
(-0.366469 0.258399 0.0151132)
(-0.367923 0.226475 0.00537655)
(-0.358187 0.201049 -0.00412027)
(-0.342584 0.187903 -0.0114446)
(-0.322371 0.177317 -0.0150102)
(-0.328159 0.197802 -0.0245009)
(-0.277742 0.201827 -0.0218769)
(-0.162605 0.178106 -0.0233417)
(-0.0749239 0.16132 -0.0180623)
(-0.0155491 0.125937 -0.0110035)
(0.00306841 0.0661174 0.000227511)
(0.00558 0.0235747 -0.0070796)
(0.0539873 0.0676196 -0.0181273)
(0.11983 0.123618 -0.0197442)
(0.152439 0.179797 -0.014336)
(0.161129 0.240491 -0.0148963)
(0.132559 0.294405 -0.0154807)
(0.0791475 0.327462 -0.00573262)
(0.0389591 0.387665 0.00194323)
(0.0139701 0.425393 0.0084426)
(-0.0182902 0.467509 0.00755379)
(-0.0570236 0.502939 0.0121033)
(-0.0880197 0.532587 0.0171302)
(-0.113546 0.555452 0.0253659)
(-0.137599 0.569821 0.0314423)
(-0.160484 0.575824 0.0339455)
(-0.185727 0.572388 0.0345647)
(-0.206419 0.567114 0.0334532)
(-0.23227 0.549716 0.0288479)
(-0.252021 0.536314 0.0226545)
(-0.266275 0.500356 0.00881457)
(-0.316815 0.492932 -0.000782943)
(-0.291217 0.45505 0.0133718)
(-0.224775 0.365573 0.0210442)
(-0.237697 0.34936 0.0286282)
(-0.274542 0.325457 0.03592)
(-0.31202 0.3101 0.039778)
(-0.348177 0.292665 0.0445447)
(-0.373837 0.270524 0.0396052)
(-0.395231 0.24715 0.0231744)
(-0.412331 0.213383 0.00645724)
(-0.4142 0.187736 -0.00311795)
(-0.400912 0.164333 -0.0105128)
(-0.384867 0.150617 -0.0146863)
(-0.354822 0.150196 -0.0243548)
(-0.343154 0.162486 -0.0271523)
(-0.308117 0.197773 -0.0309838)
(-0.198555 0.181839 -0.0269495)
(-0.0904476 0.171671 -0.0253035)
(-0.0207597 0.13689 -0.0141687)
(0.00398988 0.0733505 -0.00199515)
(0.00781889 0.0398912 -0.00968093)
(0.0631909 0.105554 -0.0258894)
(0.13866 0.165801 -0.0248841)
(0.177931 0.2199 -0.0154824)
(0.181336 0.274538 -0.0165858)
(0.152034 0.30843 -0.016585)
(0.11118 0.354636 -0.00683044)
(0.079538 0.402544 0.00442802)
(0.0506195 0.442974 0.0115071)
(0.0249523 0.469453 0.0221959)
(0.0013144 0.493865 0.0211368)
(-0.0263663 0.507711 0.0303707)
(-0.0504514 0.513921 0.0360464)
(-0.0726291 0.507831 0.0416007)
(-0.0949774 0.493466 0.0417845)
(-0.121863 0.47084 0.0385985)
(-0.148451 0.448384 0.0331448)
(-0.178687 0.421396 0.0255319)
(-0.209046 0.403649 0.0169393)
(-0.237262 0.384035 0.00324636)
(-0.290613 0.368867 -0.00982121)
(-0.315383 0.366352 -0.00489992)
(-0.251693 0.301656 0.0102501)
(-0.233525 0.296857 0.0132844)
(-0.275297 0.279267 0.0247523)
(-0.31376 0.271034 0.0310826)
(-0.35568 0.252363 0.0404085)
(-0.389352 0.236002 0.0331252)
(-0.419579 0.205958 0.0238637)
(-0.434609 0.178764 0.00664558)
(-0.43975 0.150163 0.00726744)
(-0.433407 0.126985 0.0150709)
(-0.413438 0.10772 0.0110153)
(-0.385797 0.108173 0.00779017)
(-0.364222 0.120777 -0.0162037)
(-0.331602 0.168182 -0.0265703)
(-0.229142 0.179139 -0.026361)
(-0.108829 0.171918 -0.0220243)
(-0.0267392 0.144682 -0.0134608)
(0.00483506 0.0779112 -0.000863871)
(0.00883445 0.0643299 -0.0123396)
(0.072379 0.150067 -0.0321614)
(0.156785 0.213782 -0.0313935)
(0.202391 0.263372 -0.0197593)
(0.201597 0.302673 -0.0126135)
(0.177023 0.336387 -0.0166142)
(0.151815 0.376946 -0.00601961)
(0.121938 0.415587 0.00102184)
(0.097998 0.445545 0.00875925)
(0.0708393 0.46794 0.0243564)
(0.044019 0.476563 0.0340575)
(0.0240782 0.476638 0.0442464)
(0.00378751 0.465851 0.0477418)
(-0.021595 0.441273 0.0482619)
(-0.0499169 0.415616 0.0472409)
(-0.0808888 0.38307 0.0405774)
(-0.11357 0.354552 0.0318048)
(-0.149419 0.326952 0.0223147)
(-0.182755 0.308353 0.013679)
(-0.219397 0.296743 0.000682093)
(-0.27017 0.285105 -0.0093114)
(-0.309185 0.289565 -0.00973614)
(-0.253996 0.271065 0.00382407)
(-0.225297 0.26231 0.00538794)
(-0.264065 0.249388 0.0183394)
(-0.305349 0.237365 0.0261552)
(-0.352773 0.222506 0.0348947)
(-0.39071 0.199887 0.0314683)
(-0.424741 0.174068 0.0185813)
(-0.447994 0.143296 0.0277938)
(-0.462087 0.107775 0.0296162)
(-0.462066 0.0786239 0.0154872)
(-0.446674 0.0605923 0.0110939)
(-0.411633 0.0575528 0.00193286)
(-0.37247 0.0711349 -0.00280515)
(-0.340717 0.120806 -0.025505)
(-0.253942 0.159119 -0.0294409)
(-0.12643 0.16966 -0.0243299)
(-0.0301996 0.14989 -0.0154406)
(0.00416306 0.0840476 -0.00256093)
(0.0101776 0.0835638 -0.0130933)
(0.0784134 0.190003 -0.0361968)
(0.170853 0.2565 -0.0347881)
(0.216199 0.29575 -0.0189504)
(0.220936 0.324166 -0.0115345)
(0.206847 0.357524 -0.00901101)
(0.186812 0.390373 -0.0079997)
(0.162349 0.415367 0.00400132)
(0.136724 0.43677 0.00967183)
(0.112987 0.446212 0.0205989)
(0.09145 0.450983 0.0307075)
(0.06436 0.440958 0.0493514)
(0.0360524 0.419784 0.053399)
(0.0144957 0.384711 0.0556085)
(-0.013739 0.350134 0.0478174)
(-0.0504537 0.318906 0.0394155)
(-0.0866514 0.29349 0.027558)
(-0.125349 0.271063 0.0173567)
(-0.160316 0.259999 0.0092982)
(-0.202099 0.251457 -0.00273684)
(-0.251232 0.245983 -0.00912514)
(-0.285861 0.247184 -0.0102558)
(-0.23704 0.251249 0.000654901)
(-0.206824 0.237003 0.000733111)
(-0.244507 0.221361 0.0135197)
(-0.283215 0.205414 0.0221017)
(-0.333431 0.18917 0.0297045)
(-0.374845 0.165493 0.0230719)
(-0.413589 0.137825 0.0366919)
(-0.446436 0.101805 0.0432497)
(-0.467488 0.0657718 0.0357468)
(-0.470669 0.0376438 0.045525)
(-0.462235 0.0165268 0.037625)
(-0.439417 0.0122589 0.0356982)
(-0.398134 0.020514 0.0246304)
(-0.35461 0.065529 0.00175388)
(-0.267492 0.12199 -0.0265857)
(-0.140624 0.156619 -0.0260194)
(-0.0366 0.148162 -0.0150409)
(0.00524244 0.0867346 -0.00248599)
(0.0107219 0.105687 -0.0121088)
(0.0836303 0.231591 -0.038464)
(0.177423 0.299167 -0.0376749)
(0.22846 0.32894 -0.019893)
(0.243979 0.352217 -0.00707558)
(0.238279 0.376556 -0.00154873)
(0.21995 0.400488 0.00228565)
(0.196629 0.41581 0.00312024)
(0.176996 0.426395 0.0114209)
(0.154663 0.429305 0.0230221)
(0.129407 0.421352 0.0319609)
(0.103084 0.40325 0.0392579)
(0.0718287 0.376623 0.0507205)
(0.038083 0.343791 0.0535035)
(0.0105459 0.303332 0.0497812)
(-0.022317 0.273283 0.0359171)
(-0.0634944 0.252405 0.022669)
(-0.10211 0.235557 0.012941)
(-0.137655 0.229941 0.00501197)
(-0.180515 0.221741 -0.0035437)
(-0.224884 0.221021 -0.00815267)
(-0.2486 0.219705 -0.00776193)
(-0.204286 0.237833 -0.000558284)
(-0.18377 0.214888 -0.00173808)
(-0.215146 0.194411 0.0101517)
(-0.252546 0.173817 0.0178807)
(-0.301539 0.151087 0.0222606)
(-0.34599 0.128287 0.0312775)
(-0.391912 0.0956478 0.0444526)
(-0.431753 0.0599694 0.044573)
(-0.456188 0.0278155 0.0654079)
(-0.476397 -0.00939808 0.0488442)
(-0.480804 -0.0468212 0.033393)
(-0.465047 -0.0677705 0.0108219)
(-0.423158 -0.0568747 0.00376133)
(-0.374545 -0.0121883 0.00702931)
(-0.287906 0.0707971 -0.00407004)
(-0.15669 0.128713 -0.0319762)
(-0.0417566 0.142703 -0.0149578)
(0.00496743 0.0908371 -0.0040979)
(0.0104483 0.112856 -0.0113931)
(0.0824092 0.255141 -0.0409525)
(0.178172 0.325791 -0.041723)
(0.235121 0.353135 -0.0229859)
(0.261387 0.36814 -0.00489502)
(0.263261 0.381124 0.004806)
(0.247533 0.393969 0.0107353)
(0.226071 0.403038 0.0136972)
(0.20704 0.408947 0.0167214)
(0.18545 0.404333 0.0210598)
(0.163121 0.39066 0.0250921)
(0.132927 0.367467 0.0372904)
(0.0992756 0.336928 0.0383393)
(0.0633819 0.304839 0.0451318)
(0.0290432 0.274054 0.0454706)
(-0.000593898 0.241267 0.0327665)
(-0.0387522 0.225729 0.0181455)
(-0.0757409 0.211699 0.00955873)
(-0.111087 0.207655 0.00219115)
(-0.151168 0.2006 -0.00339967)
(-0.189824 0.199615 -0.00617575)
(-0.195678 0.203845 -0.00326377)
(-0.161958 0.22612 -0.00119584)
(-0.158089 0.194107 -0.000629274)
(-0.184459 0.168829 0.00625909)
(-0.21794 0.139896 0.0138142)
(-0.262361 0.117213 0.0154495)
(-0.306424 0.0881546 0.0337556)
(-0.356288 0.0565589 0.0402952)
(-0.39434 0.0260428 0.0630716)
(-0.439023 -0.0140656 0.0481009)
(-0.479812 -0.0658631 0.0385396)
(-0.496531 -0.112515 0.0233603)
(-0.482969 -0.145443 0.0117614)
(-0.440904 -0.148054 -0.00873269)
(-0.380393 -0.108702 -0.00747899)
(-0.295435 -0.00976751 -0.000720492)
(-0.173463 0.0845686 -0.0179021)
(-0.0470206 0.126792 -0.0205979)
(0.0064681 0.0899346 -0.00250389)
(0.00936339 0.122857 -0.00893013)
(0.0819079 0.279345 -0.0399445)
(0.179116 0.354873 -0.0428377)
(0.242537 0.379567 -0.0236904)
(0.275864 0.386922 -0.0032154)
(0.283202 0.387185 0.0109783)
(0.273074 0.390073 0.0204421)
(0.256701 0.392814 0.0230012)
(0.240012 0.392958 0.0254356)
(0.217741 0.38386 0.0277144)
(0.192604 0.367673 0.029034)
(0.162822 0.340063 0.0279626)
(0.127633 0.311235 0.026942)
(0.0905666 0.276785 0.0294236)
(0.0506508 0.250512 0.0341681)
(0.0198468 0.223795 0.0275469)
(-0.0128026 0.203092 0.0131498)
(-0.0489236 0.194053 0.00684968)
(-0.0804568 0.18935 0.000180883)
(-0.117497 0.180838 -0.00286381)
(-0.142932 0.181101 -0.00283651)
(-0.134804 0.201323 0.00179071)
(-0.120341 0.20144 0.000344417)
(-0.137126 0.169758 0.00185094)
(-0.157053 0.140472 0.00590692)
(-0.183165 0.108211 0.00999795)
(-0.222108 0.0823286 0.0220409)
(-0.266064 0.0512473 0.0296846)
(-0.30666 0.0235888 0.0483791)
(-0.357363 -0.0120989 0.0437045)
(-0.41476 -0.0641926 0.0400122)
(-0.462948 -0.11687 0.0294791)
(-0.492953 -0.169122 0.017935)
(-0.49477 -0.211008 0.0019655)
(-0.459511 -0.230372 -0.0143034)
(-0.391876 -0.201576 -0.021329)
(-0.302524 -0.112458 -0.0190821)
(-0.185242 0.0293423 0.00155049)
(-0.0552858 0.106269 -0.0275871)
(0.0051787 0.0925449 -0.00381494)
(0.00709173 0.104741 -0.00966272)
(0.0758133 0.274613 -0.0404228)
(0.173524 0.356296 -0.0424075)
(0.241755 0.381975 -0.0231861)
(0.282276 0.384239 0.000267109)
(0.297451 0.380682 0.0148789)
(0.294808 0.378479 0.0210791)
(0.280764 0.373655 0.0247776)
(0.26385 0.365876 0.0268432)
(0.24333 0.354258 0.0275532)
(0.218659 0.335612 0.0267466)
(0.187118 0.312515 0.0243867)
(0.14975 0.28341 0.0199015)
(0.111239 0.254655 0.0130513)
(0.0743203 0.228224 0.0153144)
(0.0384391 0.212165 0.0161424)
(0.00997313 0.191883 0.00998824)
(-0.0149427 0.18272 0.00311694)
(-0.0489702 0.173439 -0.00232757)
(-0.0787095 0.171384 -0.00120437)
(-0.0816576 0.181026 0.00210513)
(-0.0825972 0.188844 0.00325805)
(-0.0948159 0.170415 0.00422034)
(-0.113931 0.142536 0.00550524)
(-0.13416 0.117173 0.00556041)
(-0.15535 0.0830835 0.00882987)
(-0.187747 0.0552916 0.0157299)
(-0.22147 0.0232292 0.031275)
(-0.265087 -0.0069519 0.0344936)
(-0.319498 -0.054664 0.0359948)
(-0.376507 -0.104179 0.0315595)
(-0.430191 -0.162116 0.0266345)
(-0.468619 -0.221361 0.0159551)
(-0.484396 -0.276983 0.00213445)
(-0.461896 -0.310736 -0.0156972)
(-0.401781 -0.300803 -0.0280688)
(-0.296389 -0.222853 -0.0316781)
(-0.186757 -0.069092 -0.0191607)
(-0.0650102 0.0616108 -0.0195364)
(0.00653962 0.0828423 -0.00744082)
(0.00841325 0.109645 -0.00305534)
(0.0761911 0.286189 -0.0336419)
(0.172704 0.371692 -0.0385973)
(0.247065 0.394736 -0.0183808)
(0.297133 0.390937 0.00677973)
(0.321011 0.378289 0.0152807)
(0.320179 0.369007 0.0234464)
(0.306597 0.358459 0.0250897)
(0.292392 0.350213 0.0241869)
(0.272364 0.335961 0.0214448)
(0.248988 0.316764 0.0182693)
(0.217975 0.291045 0.0136152)
(0.179211 0.264018 0.00956219)
(0.139221 0.235732 0.0064095)
(0.102382 0.214188 0.0035317)
(0.0685559 0.198861 0.00489515)
(0.0369304 0.190298 0.00218559)
(0.0107407 0.18691 9.7267e-06)
(-0.0108911 0.180315 -0.000664535)
(-0.0247801 0.183475 0.000803)
(-0.0365735 0.182633 0.00379778)
(-0.0534293 0.164971 0.00635897)
(-0.0712772 0.144836 0.00794465)
(-0.0916713 0.119034 0.00834238)
(-0.113016 0.09646 0.00939391)
(-0.133439 0.0652026 0.00862549)
(-0.159766 0.0341471 0.018405)
(-0.193313 0.00232594 0.0220103)
(-0.234813 -0.0378972 0.0244927)
(-0.286736 -0.0812568 0.0250466)
(-0.341628 -0.130355 0.0260415)
(-0.394532 -0.188148 0.0233517)
(-0.437349 -0.251269 0.0169751)
(-0.4624 -0.317637 0.00453576)
(-0.452381 -0.367657 -0.0122631)
(-0.402232 -0.382303 -0.0291219)
(-0.306928 -0.319346 -0.0416596)
(-0.191683 -0.174339 -0.0316257)
(-0.0622823 0.0157054 -0.00968514)
(0.00619983 0.076836 -0.0130762)
(-0.00163992 0.0837814 -0.0152216)
(0.0553931 0.268347 -0.0404793)
(0.153678 0.364603 -0.0464172)
(0.235912 0.390393 -0.025899)
(0.295723 0.389423 -0.00348542)
(0.331689 0.370069 0.0103046)
(0.342918 0.353591 0.0161327)
(0.334458 0.334916 0.0167847)
(0.319543 0.32174 0.0147103)
(0.297281 0.313017 0.0110581)
(0.270746 0.304263 0.00784963)
(0.237929 0.291652 0.00517022)
(0.198675 0.273649 0.00235537)
(0.160477 0.254347 0.0013192)
(0.128653 0.235294 0.000744819)
(0.0988663 0.224907 0.00409034)
(0.0787194 0.223287 -0.000939569)
(0.0557933 0.222358 -0.00290551)
(0.0300897 0.213924 -0.00127321)
(0.00817715 0.201532 0.0016389)
(-0.0140207 0.177361 0.00653314)
(-0.0331547 0.152267 0.00914979)
(-0.053079 0.127622 0.0103693)
(-0.0729564 0.102746 0.0117872)
(-0.0950603 0.0789554 0.0126065)
(-0.118326 0.0532677 0.0095439)
(-0.141462 0.0199186 0.00826302)
(-0.171623 -0.0139697 0.00987857)
(-0.209055 -0.0562596 0.0118238)
(-0.25198 -0.103973 0.0147941)
(-0.30023 -0.15599 0.0163623)
(-0.350192 -0.21997 0.0162637)
(-0.394878 -0.290152 0.0119854)
(-0.426765 -0.368239 0.00258893)
(-0.42993 -0.434033 -0.0129615)
(-0.390295 -0.468743 -0.0294325)
(-0.300891 -0.424456 -0.054498)
(-0.188387 -0.292528 -0.0471302)
(-0.060462 -0.063286 -0.0143262)
(0.00416084 0.0598229 -0.00270992)
(-0.00192924 0.1483 -0.00469318)
(0.0520738 0.347691 -0.0191718)
(0.144218 0.446858 -0.0306288)
(0.230135 0.468355 -0.01109)
(0.298895 0.457049 -0.00361811)
(0.340051 0.424353 0.0124875)
(0.355549 0.38772 0.0153178)
(0.351234 0.373095 0.0179846)
(0.351143 0.383681 0.0150736)
(0.341445 0.391665 0.0105607)
(0.320006 0.391625 0.00474424)
(0.284129 0.381533 -0.000140797)
(0.239927 0.359828 -0.00365677)
(0.195352 0.333424 -0.00468782)
(0.161502 0.305501 -0.00301823)
(0.140163 0.282596 0.000106113)
(0.11536 0.265632 0.00290054)
(0.0817398 0.245736 -0.00556585)
(0.049548 0.227858 -0.00341727)
(0.0204066 0.199143 -0.00165645)
(-0.00451786 0.173586 0.00603074)
(-0.022745 0.142292 0.00869201)
(-0.0408736 0.117133 0.0103677)
(-0.0596934 0.0909257 0.0121741)
(-0.0791061 0.0666765 0.012095)
(-0.10399 0.0428569 0.00891815)
(-0.12996 0.0146159 0.00577071)
(-0.160077 -0.0195103 0.00038243)
(-0.198511 -0.0568833 0.00105542)
(-0.237813 -0.101142 0.00360682)
(-0.280934 -0.148729 0.00805652)
(-0.324178 -0.210165 0.0113811)
(-0.365036 -0.281191 0.0118637)
(-0.397907 -0.367219 0.00574436)
(-0.406077 -0.450403 -0.00810794)
(-0.375187 -0.516514 -0.0275438)
(-0.304519 -0.517908 -0.0595088)
(-0.191902 -0.39298 -0.05882)
(-0.0533716 -0.177463 -0.0333183)
(0.00699558 0.0229144 -0.00375214)
(-0.017735 0.230808 -0.0243128)
(0.0205938 0.470245 -0.0418501)
(0.11168 0.579777 -0.0502609)
(0.197908 0.61844 -0.0345126)
(0.270449 0.608515 -0.0230055)
(0.319521 0.577369 -0.00570586)
(0.36503 0.531237 0.00279485)
(0.409136 0.504702 0.00354667)
(0.419289 0.499681 -0.00374779)
(0.389785 0.485008 -0.00874076)
(0.349588 0.463034 -0.0115003)
(0.298555 0.433532 -0.0121136)
(0.244351 0.397478 -0.0116872)
(0.198364 0.359077 -0.00986311)
(0.165945 0.324919 -0.00741182)
(0.142626 0.290489 -0.00278218)
(0.123201 0.258475 0.00191967)
(0.098218 0.231165 0.00502915)
(0.0623367 0.212236 -0.00169447)
(0.0317835 0.185529 0.000996303)
(0.0053564 0.161741 0.00413607)
(-0.0150524 0.12953 0.00889151)
(-0.0306817 0.104311 0.0097963)
(-0.0493309 0.0780064 0.0122497)
(-0.0667807 0.0522803 0.00912968)
(-0.0896093 0.024453 0.00973515)
(-0.115809 0.000642435 0.00812749)
(-0.143682 -0.0271703 0.00312195)
(-0.174666 -0.0588078 -0.00292236)
(-0.205049 -0.107424 -0.00760373)
(-0.241826 -0.163138 -0.0107724)
(-0.28082 -0.236238 -0.0129056)
(-0.319463 -0.316657 -0.0142637)
(-0.355984 -0.416737 -0.0172062)
(-0.38131 -0.514498 -0.0257344)
(-0.38023 -0.612246 -0.0433013)
(-0.310972 -0.640239 -0.0665347)
(-0.229188 -0.538794 -0.0808815)
(-0.0896397 -0.255592 -0.039025)
(0.0134123 0.0134372 -0.00228799)
(0.000919213 0.205385 0.000322392)
(0.0400907 0.449955 -0.0373331)
(0.116186 0.575715 -0.0500452)
(0.203118 0.633524 -0.0461991)
(0.275404 0.639448 -0.0372451)
(0.325778 0.621641 -0.026584)
(0.365265 0.586024 -0.0199733)
(0.403281 0.541011 -0.00967867)
(0.415529 0.498693 -0.011272)
(0.390003 0.463263 -0.0104827)
(0.35513 0.430886 -0.00998543)
(0.307379 0.400072 -0.00773208)
(0.255393 0.36444 -0.00543169)
(0.212058 0.332707 -0.00235262)
(0.180172 0.30273 -0.000491233)
(0.158071 0.272741 0.00247576)
(0.137336 0.241902 0.00561747)
(0.114615 0.211434 0.00856015)
(0.0807801 0.191004 0.0106172)
(0.0441979 0.171038 0.00282808)
(0.0116563 0.14597 0.00546015)
(-0.009656 0.117431 0.00933079)
(-0.0228148 0.0911888 0.010775)
(-0.0418875 0.0630197 0.0123751)
(-0.0609234 0.0363593 0.00774064)
(-0.0802548 0.00723129 0.0112699)
(-0.0999917 -0.0136119 0.0124703)
(-0.128202 -0.0371832 0.00822307)
(-0.172487 -0.0580292 0.00460191)
(-0.213475 -0.0950023 0.00546674)
(-0.250511 -0.141387 0.00665108)
(-0.28139 -0.212344 0.0060178)
(-0.308586 -0.303856 0.0025328)
(-0.327426 -0.441662 -0.00729721)
(-0.34525 -0.590212 -0.0162948)
(-0.343011 -0.731006 -0.0268729)
(-0.289658 -0.801955 -0.0504746)
(-0.179615 -0.764785 -0.0647499)
(-0.0579416 -0.471583 -0.0677948)
(-0.000722969 -0.102955 0.00792459)
(0.000929604 0.21813 -0.00236638)
(0.0381865 0.437596 -0.0334463)
(0.107107 0.561265 -0.0444197)
(0.186826 0.617704 -0.0426488)
(0.257651 0.624513 -0.0272347)
(0.311997 0.602999 -0.0217903)
(0.356799 0.565773 -0.0130832)
(0.400002 0.524044 -0.00535485)
(0.419469 0.480329 -0.00575553)
(0.400077 0.448049 -0.00474887)
(0.365123 0.418108 -0.00381445)
(0.313581 0.384746 -0.00193848)
(0.261221 0.349029 0.000723878)
(0.222216 0.316857 0.00263168)
(0.19118 0.287343 0.00405964)
(0.165751 0.256378 0.00632969)
(0.143548 0.224656 0.00924921)
(0.126069 0.188553 0.0134214)
(0.0974669 0.163801 0.0138115)
(0.0592526 0.144062 0.0141357)
(0.0216578 0.125087 0.00792242)
(-0.00173839 0.0990578 0.0102811)
(-0.0177994 0.0720164 0.0119547)
(-0.0366093 0.0444375 0.0108886)
(-0.053537 0.0191837 0.0102885)
(-0.0675445 -0.0056673 0.0126889)
(-0.0829352 -0.0270602 0.0126307)
(-0.102454 -0.0522633 0.012022)
(-0.134083 -0.0687115 0.00812066)
(-0.17049 -0.0857071 0.00524398)
(-0.212122 -0.106389 0.00496023)
(-0.25756 -0.152717 0.0063924)
(-0.319094 -0.217083 0.0104531)
(-0.370179 -0.330986 0.0161761)
(-0.382815 -0.467435 0.0142085)
(-0.372472 -0.629662 0.00757062)
(-0.326822 -0.751442 -0.00744435)
(-0.226591 -0.777799 -0.031206)
(-0.0635127 -0.561439 -0.0430633)
(0.0218817 -0.12876 -0.0170655)
(0.00706854 0.196592 -0.00274901)
(0.0462454 0.395933 -0.0271023)
(0.108798 0.52757 -0.0369588)
(0.185352 0.589298 -0.03622)
(0.253049 0.606572 -0.0244245)
(0.305279 0.589924 -0.0155654)
(0.351451 0.553876 -0.00702398)
(0.392069 0.511258 -0.000458586)
(0.414901 0.459088 -0.00101481)
(0.404181 0.420843 -0.000656134)
(0.368894 0.38493 5.74055e-05)
(0.317585 0.347191 0.00313661)
(0.269578 0.313865 0.00566495)
(0.234466 0.283461 0.00744107)
(0.204411 0.255006 0.00803563)
(0.1796 0.225753 0.00956636)
(0.15204 0.196997 0.0117266)
(0.133371 0.162391 0.0158582)
(0.112252 0.129771 0.0205342)
(0.0777621 0.111087 0.0189185)
(0.0359307 0.0978064 0.0179566)
(0.00468238 0.0752607 0.0140821)
(-0.0108953 0.0500549 0.0171721)
(-0.0279183 0.0256857 0.0139563)
(-0.0429616 0.00433868 0.0129703)
(-0.0561028 -0.0172652 0.0126171)
(-0.0721234 -0.0386576 0.0120716)
(-0.0884372 -0.0648364 0.0118475)
(-0.112897 -0.0862976 0.0114281)