/*--------------------------------*- C++ -*----------------------------------*\
| =========                 |                                                 |
| \\      /  F ield         | OpenFOAM: The Open Source CFD Toolbox           |
|  \\    /   O peration     | Version:  v1806                                 |
|   \\  /    A nd           | Web:      www.OpenFOAM.com                      |
|    \\/     M anipulation  |                                                 |
\*---------------------------------------------------------------------------*/
FoamFile
{
    version     2.0;
    format      ascii;
    class       volVectorField;
    location    "0.0525";
    object      U;
}
// * * * * * * * * * * * * * * * * * * * * * * * * * * * * * * * * * * * * * //

dimensions      [0 1 -1 0 0 0 0];


internalField   nonuniform List<vector> 
64000
(
(-0.00736533 -0.00857329 -0.00457337)
(0.0146751 -0.0092945 -0.00220701)
(0.022863 -0.00426805 0.00165731)
(0.0240382 -0.00381556 0.00184366)
(0.0228944 -0.00297821 0.00265835)
(0.0225595 -0.00304433 0.00346404)
(0.0213684 -0.0035506 0.00354933)
(0.0179833 -0.00406713 0.0036123)
(0.0160335 -0.00521567 0.00486115)
(0.00947586 -0.00438521 0.0042945)
(0.00286797 -0.00622964 0.00618303)
(-0.0119655 -0.00901423 0.00665141)
(-0.0325664 -0.0132313 0.00676792)
(-0.0571433 -0.0178832 0.00431569)
(-0.0902837 -0.0177271 0.00530923)
(-0.124631 -0.0131859 0.00327254)
(-0.16059 0.00202892 0.0025811)
(-0.200735 -0.0036893 -0.000406927)
(-0.213049 -0.0102505 0.00599075)
(-0.263209 -0.0291498 -0.0156768)
(-0.232872 -0.0271521 -0.0291637)
(-0.112259 -0.026441 -0.0398904)
(-0.0960095 -0.0135062 -0.0292026)
(-0.0938933 -0.00554729 -0.0372567)
(-0.0997394 0.00132764 -0.0483287)
(-0.0990597 0.0102919 -0.0567436)
(-0.082936 0.0198543 -0.0619543)
(-0.0527989 0.0318016 -0.0565213)
(-0.0208563 0.037696 -0.0517313)
(0.0216696 0.0543142 -0.0316765)
(0.0722333 0.0434002 -0.0314769)
(0.103535 0.0362582 -0.0220306)
(0.118657 0.0252933 -0.0105385)
(0.113892 0.0112496 -0.00344228)
(0.0989196 0.00353634 0.0025271)
(0.0781184 -0.0048881 0.00496057)
(0.055769 -0.00768009 0.00718868)
(0.0335568 -0.00652576 0.00800131)
(0.0175616 -0.00478209 0.00817032)
(0.00285642 -0.00324233 0.00620623)
(-0.00547249 -0.00291147 -0.00175908)
(0.0115768 -0.0174485 -0.00142636)
(0.0297249 -0.014238 6.04699e-05)
(0.0366219 -0.00947893 -0.000651418)
(0.0391087 -0.0048001 0.000234194)
(0.0387011 -0.00161234 -0.00085071)
(0.0362625 0.0027214 -0.0025286)
(0.0286178 0.00483018 -0.00227312)
(0.021599 0.0103894 -0.00704321)
(0.00402887 0.0167751 -0.00423453)
(-0.0209303 0.0242844 -0.00799218)
(-0.0586284 0.0319784 0.000175096)
(-0.107243 0.0437972 -0.00399799)
(-0.158945 0.0661606 -0.00671443)
(-0.219083 0.0779492 -0.0104351)
(-0.27813 0.0865159 -0.0185924)
(-0.367649 0.0929509 -0.0426907)
(-0.468689 0.0958915 -0.0574894)
(-0.529646 0.101253 -0.0752275)
(-0.603286 0.0981617 -0.0996194)
(-0.565393 0.122005 -0.106764)
(-0.422257 0.138334 -0.127979)
(-0.386909 0.180859 -0.141475)
(-0.372372 0.209904 -0.148564)
(-0.350568 0.235043 -0.159504)
(-0.317231 0.257987 -0.165167)
(-0.261287 0.27768 -0.166563)
(-0.194783 0.294461 -0.154947)
(-0.115646 0.299981 -0.134426)
(-0.0486766 0.309368 -0.1099)
(0.0192108 0.289225 -0.0744772)
(0.0851638 0.259269 -0.0476581)
(0.118886 0.206829 -0.0386224)
(0.131338 0.15877 -0.0271189)
(0.124962 0.107775 -0.0130161)
(0.104382 0.0676161 -0.0053127)
(0.083272 0.039476 -0.000847942)
(0.0568668 0.0248288 0.000385922)
(0.0336599 0.015111 0.0020792)
(0.00882427 0.00644516 0.00338953)
(-0.000210419 -0.011205 0.0018979)
(0.0164259 -0.0245909 -0.000612844)
(0.0373865 -0.0204679 -0.0010028)
(0.046098 -0.00858883 -0.00129828)
(0.0452044 0.00460405 -0.00338305)
(0.0424792 0.015637 -0.00536309)
(0.0339919 0.03174 -0.00689696)
(0.0197781 0.0455528 -0.00899137)
(0.00375954 0.069292 -0.00184775)
(-0.0266562 0.0903931 -0.00457923)
(-0.0656694 0.118891 -0.00828767)
(-0.118426 0.152627 -0.0130901)
(-0.173543 0.184907 -0.0168796)
(-0.254293 0.209504 -0.0314997)
(-0.358382 0.227482 -0.0338914)
(-0.45369 0.240483 -0.0425431)
(-0.545689 0.246313 -0.058138)
(-0.62893 0.268578 -0.074864)
(-0.683376 0.296759 -0.0927119)
(-0.741421 0.328996 -0.114925)
(-0.690019 0.367302 -0.114416)
(-0.521836 0.394908 -0.123374)
(-0.461992 0.449758 -0.128886)
(-0.437288 0.485525 -0.123777)
(-0.406577 0.516466 -0.125376)
(-0.369397 0.539883 -0.122953)
(-0.313183 0.552826 -0.118622)
(-0.251397 0.557016 -0.104693)
(-0.181258 0.546967 -0.0834652)
(-0.118589 0.527843 -0.0599838)
(-0.0618014 0.500995 -0.0396569)
(-0.0215902 0.452426 -0.027666)
(0.0137033 0.380074 -0.0138247)
(0.0381779 0.307025 -0.00783511)
(0.0461268 0.228715 -0.0108062)
(0.0510976 0.162731 -0.0105763)
(0.0496876 0.113442 -0.00686025)
(0.0398398 0.0755798 -0.00449183)
(0.0278766 0.0494981 -0.000646048)
(0.00864597 0.0221028 0.00253696)
(0.000405118 -0.0170671 0.00217575)
(0.0186732 -0.0284887 -0.00195491)
(0.042664 -0.0161096 -0.00168225)
(0.0517905 0.00223718 -0.00585116)
(0.046836 0.0278163 -0.00594997)
(0.0399184 0.0545413 -0.0077362)
(0.0260024 0.0896699 -0.00794365)
(0.00586889 0.123627 -0.00460545)
(-0.0201337 0.169367 -0.00988313)
(-0.0641406 0.210026 -0.0121248)
(-0.110758 0.250557 -0.0163199)
(-0.17969 0.279764 -0.0231199)
(-0.270461 0.306248 -0.0259051)
(-0.361585 0.321491 -0.0282408)
(-0.448117 0.344775 -0.0299005)
(-0.526453 0.372085 -0.0374993)
(-0.603553 0.402192 -0.0502577)
(-0.673485 0.433122 -0.0582741)
(-0.712659 0.470714 -0.0670656)
(-0.754885 0.512154 -0.0754556)
(-0.691087 0.546435 -0.0573102)
(-0.503185 0.56535 -0.0473511)
(-0.429211 0.606069 -0.0448438)
(-0.405555 0.61991 -0.0300944)
(-0.377334 0.630898 -0.0259374)
(-0.349703 0.633657 -0.0198742)
(-0.305941 0.624716 -0.0165319)
(-0.261136 0.607006 -0.00966386)
(-0.209007 0.581865 0.0016665)
(-0.164689 0.549787 0.00895121)
(-0.131208 0.511725 0.014576)
(-0.108082 0.468146 0.0133633)
(-0.087972 0.417837 0.00842595)
(-0.0646207 0.352242 0.000335177)
(-0.0435839 0.274955 -0.00390672)
(-0.0184381 0.202824 -0.00944094)
(0.0011568 0.146053 -0.00996168)
(0.0102987 0.108976 -0.00716007)
(0.0179173 0.0749183 -0.00290081)
(0.00710275 0.0331239 0.0021284)
(0.00129146 -0.0186318 0.000909789)
(0.0245892 -0.0206957 -0.00488276)
(0.05175 -0.00173559 -0.00458334)
(0.0609204 0.0317525 -0.00642472)
(0.0563285 0.0744357 -0.00578435)
(0.0484331 0.122668 -0.0141025)
(0.0281431 0.182997 -0.0109693)
(0.00153367 0.237086 -0.00460442)
(-0.0325372 0.286304 -0.00703255)
(-0.0915275 0.322474 -0.00914772)
(-0.161395 0.351935 -0.0122248)
(-0.238699 0.371017 -0.0145568)
(-0.308323 0.397031 -0.0164791)
(-0.38228 0.427533 -0.0207571)
(-0.457688 0.461394 -0.0182334)
(-0.524028 0.493765 -0.0205837)
(-0.58595 0.525961 -0.0219599)
(-0.635294 0.561453 -0.0180353)
(-0.655677 0.601057 -0.0160951)
(-0.686266 0.643156 -0.024381)
(-0.623001 0.671505 -0.00480848)
(-0.429397 0.680644 0.0128821)
(-0.351962 0.691928 0.021486)
(-0.336934 0.67622 0.0363605)
(-0.320603 0.65586 0.0382774)
(-0.311858 0.632595 0.0451653)
(-0.289511 0.599243 0.0460245)
(-0.262591 0.563987 0.049807)
(-0.231448 0.523593 0.0434789)
(-0.207769 0.484633 0.0363114)
(-0.186363 0.441218 0.0267913)
(-0.174693 0.406172 0.0193853)
(-0.167603 0.372271 0.0116036)
(-0.164632 0.340713 0.000109292)
(-0.148859 0.279649 -0.0114286)
(-0.105041 0.206315 -0.0124794)
(-0.0521191 0.159049 -0.0125497)
(-0.016576 0.127741 -0.0108003)
(0.00315434 0.0928676 -0.00510215)
(0.00419061 0.041337 0.00212238)
(0.00513906 -0.0167745 0.000704446)
(0.0312653 -0.00785801 -0.00391287)
(0.0651138 0.017955 -0.00442835)
(0.0822811 0.066396 -0.00807646)
(0.0771908 0.120802 -0.0116616)
(0.0711589 0.187419 -0.0188558)
(0.04527 0.255885 -0.0133531)
(-0.00347539 0.300616 -0.000572638)
(-0.0608337 0.340545 -0.00468243)
(-0.130243 0.37428 -0.00618147)
(-0.190316 0.407828 -0.00832375)
(-0.25027 0.444064 -0.00854199)
(-0.309688 0.481013 -0.00665512)
(-0.366629 0.51075 -0.00343458)
(-0.421424 0.542982 0.0033529)
(-0.46896 0.573097 0.00860776)
(-0.510229 0.605594 0.00702487)
(-0.544667 0.638766 0.0102975)
(-0.557106 0.681471 0.0106933)
(-0.578822 0.713271 0.00848732)
(-0.514161 0.738577 0.0283074)
(-0.33549 0.692951 0.0470196)
(-0.27539 0.67245 0.0545417)
(-0.280217 0.627086 0.0711659)
(-0.281019 0.582382 0.0752907)
(-0.289542 0.542648 0.0768545)
(-0.284409 0.498532 0.0740035)
(-0.277657 0.458305 0.069168)
(-0.261785 0.411516 0.0664786)
(-0.252037 0.37382 0.0473906)
(-0.243136 0.332096 0.0369501)
(-0.232408 0.30077 0.0237031)
(-0.220437 0.276197 0.011182)
(-0.22438 0.259673 0.00153193)
(-0.23342 0.237013 -0.0129321)
(-0.175022 0.191082 -0.0126756)
(-0.0911465 0.159557 -0.0143195)
(-0.0397199 0.132986 -0.0114277)
(-0.00383481 0.10075 -0.00628586)
(0.00323765 0.0440763 0.00244168)
(0.00842651 -0.0142984 0.000251898)
(0.0395134 0.00380776 -0.00925318)
(0.0821666 0.0413148 -0.00911499)
(0.104715 0.0949687 -0.00906015)
(0.104048 0.150199 -0.0104998)
(0.0959299 0.226035 -0.0132072)
(0.0428175 0.267532 -0.0022584)
(-0.0182758 0.310168 0.00370695)
(-0.0617809 0.356186 -0.000568715)
(-0.117012 0.405369 -0.00185458)
(-0.166754 0.45418 -0.00233325)
(-0.216325 0.497673 -0.000608219)
(-0.263065 0.535791 0.00192915)
(-0.309198 0.570958 0.00819221)
(-0.350672 0.603262 0.0137748)
(-0.384457 0.631364 0.0202031)
(-0.413417 0.655629 0.0256087)
(-0.427523 0.675619 0.0295496)
(-0.432168 0.701726 0.0243343)
(-0.452092 0.717375 0.0174519)
(-0.444918 0.734284 0.0266938)
(-0.30347 0.641048 0.0488841)
(-0.227702 0.578037 0.0522387)
(-0.248038 0.526335 0.0666237)
(-0.258905 0.478717 0.0688711)
(-0.282283 0.442953 0.0694833)
(-0.293563 0.405768 0.0656575)
(-0.302628 0.371828 0.0601021)
(-0.300297 0.335094 0.0484722)
(-0.301503 0.301016 0.0349923)
(-0.299422 0.268879 0.0221567)
(-0.290028 0.241477 0.011363)
(-0.280113 0.222726 0.000579662)
(-0.277163 0.207749 -0.00514533)
(-0.280526 0.213265 -0.015129)
(-0.225183 0.193472 -0.0197017)
(-0.127056 0.164801 -0.020997)
(-0.056065 0.144357 -0.0164455)
(-0.00972464 0.109324 -0.00969559)
(0.00330523 0.0482542 0.000890431)
(0.0090874 -0.00464329 -0.000176522)
(0.0470789 0.0239457 -0.0128434)
(0.0996228 0.0726891 -0.0136095)
(0.12403 0.126427 -0.0099471)
(0.130745 0.185276 -0.0115292)
(0.103604 0.248898 -0.00948142)
(0.042805 0.278898 0.00164376)
(0.00349722 0.336929 0.00594909)
(-0.0348183 0.38395 0.00253691)
(-0.082238 0.437701 0.00382946)
(-0.123469 0.48106 0.00541676)
(-0.165071 0.518209 0.0108448)
(-0.200119 0.550525 0.017422)
(-0.229826 0.578588 0.0232191)
(-0.260234 0.602517 0.0279409)
(-0.286755 0.619406 0.0323395)
(-0.310554 0.630571 0.0344784)
(-0.325403 0.636798 0.0351404)
(-0.334612 0.631923 0.0289768)
(-0.355125 0.622242 0.017302)
(-0.392557 0.617257 0.0139224)
(-0.310425 0.558896 0.0318004)
(-0.22463 0.455748 0.0333303)
(-0.236781 0.422977 0.0440212)
(-0.256866 0.382195 0.0489202)
(-0.287542 0.358641 0.0510279)
(-0.310252 0.331086 0.0515942)
(-0.329491 0.304453 0.0464649)
(-0.337849 0.275125 0.038547)
(-0.346078 0.244376 0.0180889)
(-0.348627 0.212825 0.0116293)
(-0.339677 0.188183 0.00247854)
(-0.32667 0.173591 -0.00488018)
(-0.311335 0.168044 -0.00900188)
(-0.318522 0.18637 -0.0180599)
(-0.273825 0.19572 -0.0203662)
(-0.160778 0.170709 -0.0220862)
(-0.073885 0.153162 -0.0177647)
(-0.0146296 0.116944 -0.00993692)
(0.00455615 0.0514089 0.00140431)
(0.00679681 0.00606171 -0.00504675)
(0.0535464 0.0543743 -0.019248)
(0.117873 0.109917 -0.0187824)
(0.148209 0.163968 -0.0129925)
(0.153257 0.223462 -0.0143463)
(0.116754 0.264585 -0.00759354)
(0.0643093 0.312106 -0.00050116)
(0.0312426 0.367241 0.00634484)
(0.00300851 0.406439 0.0126029)
(-0.0312965 0.447654 0.0122369)
(-0.0708905 0.485136 0.0165107)
(-0.10098 0.512353 0.0219567)
(-0.126065 0.534495 0.0285595)
(-0.150842 0.54654 0.0332302)
(-0.175775 0.550746 0.0349391)
(-0.19977 0.548846 0.035968)
(-0.223953 0.541287 0.0350555)
(-0.248718 0.532716 0.0320501)
(-0.273947 0.520463 0.0253305)
(-0.301728 0.500661 0.0116669)
(-0.351646 0.483972 0.00181215)
(-0.332614 0.467009 0.00861943)
(-0.252447 0.367443 0.0161993)
(-0.235333 0.343022 0.0207099)
(-0.263031 0.317622 0.0283158)
(-0.296033 0.300647 0.0333216)
(-0.328881 0.28235 0.0375158)
(-0.355465 0.257025 0.0364269)
(-0.37325 0.23199 0.0233118)
(-0.39019 0.197547 0.0105963)
(-0.394217 0.172712 0.000722621)
(-0.382245 0.149777 -0.00438022)
(-0.367279 0.135576 -0.0107568)
(-0.341771 0.138251 -0.0171188)
(-0.329543 0.148477 -0.0207004)
(-0.300474 0.188551 -0.0266938)
(-0.196989 0.172621 -0.0261638)
(-0.0899175 0.162066 -0.0241854)
(-0.019948 0.126537 -0.0131432)
(0.00519022 0.0569275 -0.000552934)
(0.00827174 0.0221326 -0.00829025)
(0.0616355 0.0944852 -0.0269146)
(0.135062 0.15447 -0.0264417)
(0.171496 0.207173 -0.0163998)
(0.168934 0.25341 -0.0139356)
(0.136215 0.288068 -0.0103787)
(0.100572 0.339894 -0.0022271)
(0.0695816 0.385898 0.0123907)
(0.0382456 0.422804 0.0177704)
(0.0146014 0.449635 0.0272138)
(-0.0116146 0.470351 0.0251983)
(-0.0407732 0.484127 0.0340581)
(-0.0636384 0.490546 0.0388799)
(-0.0856832 0.482675 0.0425897)
(-0.110353 0.467771 0.0404358)
(-0.136477 0.447106 0.0371209)
(-0.164067 0.422561 0.0322171)
(-0.190457 0.402907 0.0266026)
(-0.225269 0.391208 0.0174375)
(-0.268939 0.376366 0.00614777)
(-0.321759 0.368573 -0.00440297)
(-0.345209 0.373996 -0.00540253)
(-0.285164 0.32556 0.00615207)
(-0.239817 0.293523 0.00583144)
(-0.265242 0.276821 0.0150247)
(-0.299612 0.263696 0.0230177)
(-0.338389 0.243118 0.0303523)
(-0.372157 0.222717 0.0296565)
(-0.397501 0.190783 0.0228717)
(-0.413689 0.162882 0.00911821)
(-0.418579 0.133839 0.0112731)
(-0.415847 0.112696 0.0178355)
(-0.396421 0.0930209 0.0157543)
(-0.374238 0.0945851 0.00906141)
(-0.351845 0.108561 -0.0115432)
(-0.321926 0.154738 -0.0233803)
(-0.226131 0.171122 -0.0239752)
(-0.106313 0.161367 -0.0216731)
(-0.0253719 0.134604 -0.0123802)
(0.00642302 0.0606033 0.000465506)
(0.00865967 0.0413537 -0.0111373)
(0.0687688 0.135034 -0.0330456)
(0.151236 0.199682 -0.0315895)
(0.187797 0.243296 -0.0171041)
(0.185557 0.278692 -0.0129049)
(0.165659 0.315587 -0.0113352)
(0.138737 0.358291 -0.00142135)
(0.109066 0.39386 0.00661967)
(0.0842635 0.422784 0.0144813)
(0.0569887 0.442809 0.0292227)
(0.0295071 0.448675 0.0378821)
(0.0126791 0.448976 0.0467844)
(-0.00951594 0.435882 0.0474231)
(-0.0374555 0.414096 0.0487925)
(-0.0648525 0.387465 0.04289)
(-0.0965456 0.357813 0.0345878)
(-0.127673 0.326442 0.0266379)
(-0.155474 0.306327 0.0184694)
(-0.195508 0.289588 0.00851415)
(-0.239911 0.280974 0.00353509)
(-0.287605 0.2859 -0.00385063)
(-0.324161 0.30464 -0.00755935)
(-0.291678 0.308514 8.08467e-05)
(-0.246852 0.275905 -0.00084897)
(-0.25817 0.250706 0.00672169)
(-0.296446 0.233455 0.0160589)
(-0.338206 0.212455 0.0230425)
(-0.377512 0.1882 0.0253645)
(-0.406649 0.15925 0.0159623)
(-0.42897 0.1278 0.0299402)
(-0.442537 0.0927768 0.0310543)
(-0.444439 0.0638013 0.0195689)
(-0.432415 0.0507386 0.0139959)
(-0.399405 0.04652 0.0081942)
(-0.360817 0.0627814 0.000820274)
(-0.328162 0.104003 -0.0199024)
(-0.248511 0.150359 -0.028123)
(-0.125097 0.157713 -0.0232058)
(-0.0281538 0.138242 -0.0150401)
(0.00489915 0.064475 -0.000864191)
(0.00920535 0.0633062 -0.0117705)
(0.0743296 0.179086 -0.0369263)
(0.159911 0.24429 -0.0347673)
(0.199947 0.277937 -0.018147)
(0.207401 0.308704 -0.0103644)
(0.19544 0.339919 -0.00564291)
(0.174378 0.37124 -0.00473417)
(0.148093 0.395021 0.00964455)
(0.122197 0.413627 0.0132716)
(0.0989068 0.421944 0.0261125)
(0.0767684 0.424025 0.0357275)
(0.0499006 0.412848 0.0523017)
(0.023786 0.386861 0.0545104)
(0.000964421 0.353472 0.0544219)
(-0.0293979 0.321398 0.0422855)
(-0.0668438 0.290822 0.0296484)
(-0.0998245 0.262168 0.0192192)
(-0.130267 0.24612 0.00856817)
(-0.172057 0.229404 0.000617797)
(-0.21052 0.227987 -0.0013736)
(-0.246874 0.238407 -0.00240739)
(-0.276562 0.269588 -0.00345385)
(-0.268512 0.292225 -0.000209274)
(-0.247978 0.269447 -0.00164035)
(-0.254269 0.230283 0.00180726)
(-0.28118 0.203551 0.0098912)
(-0.324153 0.178045 0.0158917)
(-0.364694 0.152796 0.0145432)
(-0.399557 0.123653 0.0339991)
(-0.431091 0.0876923 0.0430241)
(-0.451608 0.0534309 0.0413731)
(-0.45283 0.0272336 0.0522701)
(-0.445018 0.00307167 0.0412677)
(-0.430851 -0.00129174 0.0331943)
(-0.394768 0.00939579 0.0248878)
(-0.346393 0.0540063 0.00298561)
(-0.259197 0.107988 -0.0244447)
(-0.138269 0.146666 -0.0245889)
(-0.0339961 0.136048 -0.0140649)
(0.00620197 0.0680904 -0.000972644)
(0.00872617 0.0779179 -0.0122846)
(0.0747356 0.213405 -0.0404508)
(0.162609 0.280822 -0.038975)
(0.210361 0.310236 -0.0203509)
(0.228031 0.332862 -0.00706052)
(0.223302 0.354192 0.000323442)
(0.204334 0.376611 0.00464072)
(0.179841 0.38937 0.00637642)
(0.159572 0.399377 0.0153395)
(0.137301 0.401166 0.0262438)
(0.111652 0.392542 0.0346822)
(0.0857534 0.374658 0.0418261)
(0.0544774 0.346704 0.0530595)
(0.0245301 0.311867 0.0532183)
(-0.00355781 0.270856 0.0412107)
(-0.0424681 0.244348 0.0232187)
(-0.0765377 0.21906 0.0124518)
(-0.108979 0.207363 0.000634418)
(-0.147939 0.192226 -0.0045355)
(-0.173801 0.197163 -0.00367471)
(-0.190882 0.213894 0.00039134)
(-0.213004 0.241254 0.0013366)
(-0.228929 0.262809 0.00282919)
(-0.237876 0.246263 0.000418319)
(-0.246242 0.207649 0.000629143)
(-0.264625 0.165881 0.00544046)
(-0.29927 0.136669 0.0102984)
(-0.339489 0.111542 0.0221688)
(-0.38081 0.0788182 0.0362512)
(-0.417354 0.0473643 0.0430025)
(-0.438621 0.0141771 0.064177)
(-0.462952 -0.0244572 0.0469243)
(-0.470928 -0.0668917 0.0359976)
(-0.451936 -0.0885734 0.0169869)
(-0.412273 -0.0759626 0.00331988)
(-0.366416 -0.0265022 0.0115576)
(-0.280674 0.0576178 -0.00314219)
(-0.151177 0.114504 -0.0311504)
(-0.0389798 0.128232 -0.0144291)
(0.00689228 0.067721 -0.00267551)
(0.00764243 0.0911395 -0.0110968)
(0.0741966 0.244523 -0.0427322)
(0.164459 0.316503 -0.0437393)
(0.218103 0.342311 -0.023787)
(0.244813 0.355818 -0.00506275)
(0.247819 0.363928 0.00646332)
(0.231973 0.374632 0.0115492)
(0.209548 0.382501 0.0156839)
(0.191305 0.387352 0.0177142)
(0.169351 0.38126 0.0219318)
(0.146866 0.36631 0.0250284)
(0.115906 0.341873 0.0365412)
(0.081425 0.309703 0.037631)
(0.0449246 0.276029 0.0426962)
(0.0147088 0.241558 0.0352453)
(-0.019557 0.20932 0.0154489)
(-0.0530531 0.194833 0.00644731)
(-0.085643 0.180538 -0.00548426)
(-0.117501 0.174635 -0.00589094)
(-0.124849 0.185044 -0.00246114)
(-0.134997 0.196709 0.00280528)
(-0.153795 0.20582 0.00826596)
(-0.181937 0.214963 0.00907831)
(-0.212767 0.208252 0.00564317)
(-0.23596 0.181008 0.00219005)
(-0.245021 0.134286 0.0026411)
(-0.264077 0.100939 0.00555078)
(-0.302466 0.070939 0.0227404)
(-0.342984 0.0394763 0.0330286)
(-0.379704 0.00906461 0.0551666)
(-0.425634 -0.0344836 0.0425047)
(-0.466859 -0.0894169 0.0368135)
(-0.484517 -0.133767 0.0245444)
(-0.473521 -0.166724 0.0140494)
(-0.432727 -0.170302 -0.00304138)
(-0.368977 -0.127992 -0.00703448)
(-0.287014 -0.0254083 0.000769804)
(-0.170603 0.0747934 -0.016824)
(-0.0434234 0.116529 -0.0189775)
(0.00679966 0.0701281 -0.00183252)
(0.00505082 0.0900788 -0.0116734)
(0.0696245 0.260114 -0.0438645)
(0.161572 0.337115 -0.045865)
(0.221895 0.361439 -0.0254381)
(0.254934 0.367561 -0.00496067)
(0.262831 0.365399 0.00948978)
(0.255752 0.367842 0.017262)
(0.239063 0.370302 0.0199852)
(0.220807 0.36816 0.0222978)
(0.197213 0.357415 0.0235278)
(0.170771 0.340427 0.0239949)
(0.140084 0.313623 0.0210023)
(0.10423 0.283123 0.0201728)
(0.0689126 0.248495 0.020396)
(0.0322059 0.221878 0.0223494)
(0.00065861 0.189568 0.00892725)
(-0.0266538 0.176857 -0.00129494)
(-0.0575134 0.165894 -0.00840047)
(-0.0729505 0.174246 -0.00475104)
(-0.077266 0.182982 -0.00111983)
(-0.0894024 0.181339 0.00711701)
(-0.107837 0.176952 0.0140425)
(-0.132362 0.170073 0.0176313)
(-0.170392 0.164775 0.0117062)
(-0.209815 0.151238 0.00574907)
(-0.225368 0.119016 0.00531482)
(-0.233876 0.0699148 0.012151)
(-0.263711 0.038587 0.0232649)
(-0.298403 0.00560821 0.0410294)
(-0.346825 -0.0353924 0.0362362)
(-0.401168 -0.0906494 0.0356962)
(-0.446402 -0.144718 0.0270499)
(-0.475628 -0.199624 0.0172051)
(-0.479158 -0.241661 0.00327582)
(-0.445969 -0.261541 -0.0111839)
(-0.38065 -0.229033 -0.018676)
(-0.287751 -0.14086 -0.0196296)
(-0.173335 0.00724173 0.000119698)
(-0.0522634 0.0883049 -0.0273404)
(0.00658146 0.0671585 -0.0038198)
(0.0050013 0.0889246 -0.00573473)
(0.0676818 0.271399 -0.0401055)
(0.15915 0.353118 -0.0426749)
(0.2243 0.374639 -0.0231026)
(0.263709 0.373021 -0.000206529)
(0.281117 0.365113 0.0122853)
(0.280387 0.363014 0.0173907)
(0.263657 0.358394 0.019349)
(0.245567 0.353117 0.0196738)
(0.224526 0.338973 0.0186846)
(0.200678 0.318045 0.0158014)
(0.166444 0.289 0.0118662)
(0.12711 0.254426 0.00817436)
(0.0898639 0.223518 0.00277158)
(0.0526708 0.20179 0.00682508)
(0.021547 0.191157 -0.00166167)
(0.00139832 0.186216 -0.00489507)
(-0.0129768 0.188406 -0.0047041)
(-0.0232621 0.197062 -0.000729157)
(-0.0354859 0.188327 0.00390232)
(-0.0532097 0.17641 0.0110739)
(-0.0724993 0.159288 0.015481)
(-0.0960987 0.143225 0.0177876)
(-0.128259 0.126885 0.0168575)
(-0.170999 0.120268 0.00907227)
(-0.20685 0.0985589 0.00899076)
(-0.214714 0.0553109 0.010963)
(-0.225461 0.0100994 0.0194347)
(-0.263624 -0.026971 0.0226261)
(-0.313218 -0.0776265 0.0267254)
(-0.366937 -0.127445 0.0253353)
(-0.417739 -0.185221 0.0223283)
(-0.454149 -0.244973 0.0143898)
(-0.469286 -0.299939 0.00205863)
(-0.446196 -0.332588 -0.0134386)
(-0.387813 -0.321381 -0.0288774)
(-0.286266 -0.239576 -0.0326286)
(-0.173726 -0.0863934 -0.0212664)
(-0.0549612 0.0493848 -0.018619)
(0.00852668 0.0609488 -0.00936214)
(-0.000618957 0.0936327 -0.0125442)
(0.0565244 0.28105 -0.0436575)
(0.14869 0.368501 -0.0478062)
(0.220063 0.390086 -0.0273967)
(0.269809 0.386231 -0.00242774)
(0.297846 0.372046 0.00856314)
(0.303905 0.358581 0.0139544)
(0.291545 0.344957 0.0139649)
(0.272671 0.330108 0.0112275)
(0.245575 0.310654 0.00786802)
(0.216842 0.293524 0.00556446)
(0.181299 0.276053 0.00257829)
(0.145407 0.260219 0.00100844)
(0.117671 0.245943 0.000326165)
(0.0922934 0.238875 0.00344613)
(0.0692177 0.236205 -0.00819458)
(0.0495682 0.228605 -0.00631534)
(0.0319466 0.221839 -0.00557512)
(0.00834326 0.208906 -0.00285205)
(-0.0126649 0.187715 0.0041761)
(-0.0294952 0.163494 0.00949554)
(-0.0491897 0.140412 0.0135251)
(-0.070156 0.119009 0.0151665)
(-0.0949775 0.098814 0.0178288)
(-0.134886 0.0862719 0.0111461)
(-0.179112 0.0725781 0.00271928)
(-0.200897 0.0470508 0.00338851)
(-0.21118 0.00119828 0.00368921)
(-0.236543 -0.0466909 0.00848254)
(-0.279678 -0.094506 0.0135181)
(-0.32718 -0.152907 0.0160184)
(-0.376025 -0.217583 0.0139151)
(-0.415832 -0.288487 0.00808596)
(-0.439211 -0.35998 -0.002899)
(-0.429933 -0.412028 -0.0187341)
(-0.38083 -0.422588 -0.0354734)
(-0.289794 -0.356168 -0.0545054)
(-0.177905 -0.198916 -0.0386366)
(-0.0549162 -0.00132678 -0.00983118)
(0.00731862 0.0571337 -0.010636)
(-0.00720573 0.0961859 -0.0140631)
(0.0433848 0.296205 -0.0380636)
(0.136847 0.391708 -0.0453018)
(0.21509 0.413203 -0.0268943)
(0.272578 0.406103 -0.00982929)
(0.305675 0.383087 0.00195076)
(0.316198 0.361867 0.00761681)
(0.302925 0.35014 0.00914466)
(0.286221 0.358954 0.00953978)
(0.272818 0.36693 0.00721032)
(0.260285 0.368837 0.00399221)
(0.233297 0.357912 -0.00058375)
(0.197758 0.343322 -0.0020033)
(0.164599 0.319907 -0.00374291)
(0.132184 0.295717 0.000115386)
(0.0948457 0.27198 -0.00848724)
(0.067407 0.25002 -0.0098482)
(0.0479606 0.219242 -0.00776055)
(0.025379 0.193631 -0.00425517)
(0.00390807 0.170204 0.00124434)
(-0.0144507 0.142915 0.00806732)
(-0.0298616 0.118074 0.0116032)
(-0.0497095 0.0959863 0.0123713)
(-0.0710248 0.0744951 0.015781)
(-0.103879 0.0577594 0.00732023)
(-0.146092 0.0436547 -0.000702167)
(-0.176231 0.0291403 0.00193734)
(-0.196081 -0.00158964 -0.000285787)
(-0.219247 -0.0460745 -0.00428037)
(-0.25924 -0.0989734 -0.00356654)
(-0.307199 -0.150805 0.00234564)
(-0.353676 -0.213196 0.00570819)
(-0.393486 -0.286149 0.00550015)
(-0.416647 -0.364581 -0.00158236)
(-0.408678 -0.432165 -0.0145774)
(-0.365089 -0.466263 -0.0342455)
(-0.272338 -0.435887 -0.0574976)
(-0.157685 -0.299146 -0.0608731)
(-0.0398544 -0.0908496 -0.0256826)
(0.0108016 0.0312341 -0.00862907)
(-0.0114171 0.218351 -0.016785)
(0.0326123 0.439489 -0.0335289)
(0.119567 0.541136 -0.0421155)
(0.198083 0.568736 -0.0235957)
(0.262968 0.558595 -0.0111742)
(0.306753 0.531441 0.00370436)
(0.337338 0.497754 0.00986611)
(0.361194 0.484483 0.00963758)
(0.366195 0.490495 0.00296485)
(0.337486 0.486822 -0.00366745)
(0.296887 0.467561 -0.00830889)
(0.251018 0.431605 -0.0107555)
(0.204764 0.390127 -0.01106)
(0.164357 0.344693 -0.00818063)
(0.13264 0.301846 -0.00510242)
(0.107266 0.261906 -0.000533883)
(0.0783308 0.233789 -0.00635906)
(0.0563696 0.204071 -0.00656948)
(0.0409689 0.174608 -0.00436104)
(0.0183766 0.148192 -0.00160261)
(-0.000347278 0.125853 0.00520806)
(-0.0152579 0.0991509 0.00957954)
(-0.0329776 0.0767681 0.0103064)
(-0.0515762 0.0561773 0.0146512)
(-0.0814671 0.0336094 0.00529516)
(-0.118052 0.0196092 0.00518835)
(-0.147731 0.00645321 0.0049686)
(-0.175544 -0.00887429 0.00520788)
(-0.205518 -0.0360018 0.00286053)
(-0.234019 -0.0793422 3.8383e-05)
(-0.263479 -0.136408 -0.00850399)
(-0.306639 -0.216744 -0.0158029)
(-0.348422 -0.310318 -0.0206167)
(-0.378911 -0.407861 -0.0280489)
(-0.385079 -0.490222 -0.0445872)
(-0.365046 -0.552459 -0.0726826)
(-0.295711 -0.539916 -0.0900122)
(-0.197225 -0.413803 -0.0873886)
(-0.0627608 -0.152592 -0.0489821)
(0.0136455 0.0362236 -0.00989555)
(-0.0148075 0.27304 -0.0152304)
(0.0222837 0.515772 -0.0423472)
(0.109585 0.629199 -0.0520343)
(0.192595 0.674813 -0.0418255)
(0.260587 0.671663 -0.0314084)
(0.305132 0.648088 -0.01898)
(0.341352 0.609708 -0.00972337)
(0.36968 0.577602 -0.00627164)
(0.366796 0.544012 -0.00808235)
(0.333279 0.505265 -0.00828857)
(0.293197 0.464502 -0.00770018)
(0.247798 0.420321 -0.00781949)
(0.204251 0.373715 -0.00631934)
(0.168088 0.329138 -0.00563877)
(0.137251 0.285937 -0.00359944)
(0.110317 0.2471 -0.00161173)
(0.090973 0.211886 0.00277108)
(0.0691659 0.184718 -0.00194613)
(0.0486572 0.157055 -0.00411587)
(0.0331933 0.130114 -0.00109085)
(0.0130055 0.106405 0.00121264)
(-0.00378297 0.0837297 0.00788652)
(-0.0180571 0.0578361 0.0085907)
(-0.0391235 0.0376045 0.0115635)
(-0.0630598 0.0158852 0.00748534)
(-0.091449 0.00174578 0.0087692)
(-0.115503 -0.0102604 0.0110827)
(-0.137894 -0.0205052 0.00879478)
(-0.172724 -0.0353865 0.00574482)
(-0.220051 -0.0598455 0.00407038)
(-0.277171 -0.10624 0.00528051)
(-0.324705 -0.176619 0.00600306)
(-0.348488 -0.268156 0.000862282)
(-0.349589 -0.4003 -0.0136946)
(-0.345695 -0.537769 -0.0288413)
(-0.325161 -0.655153 -0.0504956)
(-0.256288 -0.699418 -0.0788071)
(-0.148081 -0.603498 -0.0860873)
(-0.0355886 -0.324069 -0.0746818)
(0.0122923 -0.0238933 -0.00544902)
(0.000275363 0.246964 0.000523054)
(0.036812 0.483326 -0.0342431)
(0.107647 0.605929 -0.0440595)
(0.187161 0.658226 -0.0391745)
(0.253653 0.658764 -0.0260713)
(0.302151 0.63563 -0.0177028)
(0.341868 0.599111 -0.00837794)
(0.37248 0.560985 -0.00367165)
(0.37168 0.521239 -0.00396142)
(0.337793 0.484811 -0.00342095)
(0.295006 0.446197 -0.00290747)
(0.247247 0.404205 -0.00226684)
(0.202914 0.358623 -0.00208713)
(0.165813 0.314495 -0.000803965)
(0.137821 0.270393 -0.0013191)
(0.117605 0.231364 0.000719623)
(0.0974764 0.193982 0.000913881)
(0.0810194 0.162239 0.00304725)
(0.0638054 0.136863 0.003342)
(0.042752 0.112392 -0.00165531)
(0.0260913 0.0899699 0.00189075)
(0.00735425 0.0689828 0.00464239)
(-0.00876936 0.0460493 0.00944076)
(-0.0228458 0.0248602 0.0101877)
(-0.0445855 0.00637263 0.00805209)
(-0.0678416 -0.00831138 0.010907)
(-0.087135 -0.0193667 0.0118069)
(-0.10802 -0.0341226 0.0124949)
(-0.137538 -0.0492647 0.0104619)
(-0.176154 -0.0659578 0.00924318)
(-0.22263 -0.085248 0.00753431)
(-0.27777 -0.116907 0.00541681)
(-0.344792 -0.171057 0.00368609)
(-0.389361 -0.26989 0.00287441)
(-0.386003 -0.39252 -0.00285822)
(-0.360713 -0.53038 -0.0145871)
(-0.289029 -0.624797 -0.0284867)
(-0.175918 -0.612721 -0.0551107)
(-0.0244739 -0.377036 -0.0533335)
(0.0398108 -0.0173896 -0.0228368)
(0.00140468 0.253222 0.00289463)
(0.0386528 0.467036 -0.0258297)
(0.105965 0.590162 -0.0355715)
(0.180412 0.646299 -0.0333815)
(0.245557 0.652374 -0.018185)
(0.294529 0.629766 -0.0125022)
(0.3362 0.592156 -0.00271305)
(0.365883 0.550849 0.000824948)
(0.366137 0.503007 0.000751712)
(0.335759 0.46287 0.00117938)
(0.292831 0.421634 0.0014448)
(0.244172 0.379093 0.00160095)
(0.201313 0.336173 0.00165067)
(0.167492 0.295557 0.00133501)
(0.140784 0.25525 0.00132201)
(0.118658 0.216369 0.00272278)
(0.104057 0.177002 0.00515336)
(0.0913418 0.145055 0.00707303)
(0.0750649 0.116535 0.00730238)
(0.059612 0.0951286 0.00974935)
(0.0403513 0.0745588 0.00419669)
(0.0211975 0.0556884 0.00483365)
(0.00582539 0.0361215 0.00979665)
(-0.0105389 0.0183941 0.00842845)
(-0.0263902 -0.00323458 0.00875009)
(-0.0441659 -0.0160553 0.00948666)
(-0.0628804 -0.0319047 0.0107615)
(-0.0810449 -0.0476686 0.0119456)
(-0.104913 -0.0664159 0.0129167)
(-0.13687 -0.0859836 0.0131881)
(-0.180251 -0.107985 0.01335)
(-0.223809 -0.141658 0.0140997)
(-0.27282 -0.181338 0.0149473)
(-0.307423 -0.23723 0.0133877)
(-0.332559 -0.317397 0.00746849)
(-0.347882 -0.445385 -0.0002394)
(-0.321073 -0.544872 -0.015038)
(-0.225 -0.574876 -0.0388598)
(-0.0591795 -0.365901 -0.0518565)
(0.0256234 0.0132363 -0.0178075)
(0.00704594 0.229349 0.000685615)
(0.0444295 0.422748 -0.0221522)
(0.104317 0.551882 -0.0306209)
(0.176565 0.61142 -0.0294664)
(0.240182 0.625596 -0.01704)
(0.28929 0.605694 -0.00955241)
(0.333206 0.569533 -0.000745615)
(0.359904 0.526427 0.00309105)
(0.360535 0.476121 0.00377254)
(0.333742 0.433178 0.00414164)
(0.289991 0.390641 0.00482824)
(0.243311 0.350358 0.00539152)
(0.20379 0.311936 0.00503005)
(0.170936 0.274474 0.00493697)
(0.144819 0.23593 0.00484757)
(0.12438 0.199887 0.00629074)
(0.10909 0.164501 0.00767405)
(0.100561 0.131825 0.00900129)
(0.0904299 0.101161 0.00909116)
(0.0738387 0.0767961 0.00780841)
(0.0568114 0.0615788 0.00825416)
(0.0371554 0.0444113 0.00802188)
(0.0212131 0.0278981 0.00501687)
(0.00517558 0.0111213 0.00690099)
(-0.0104589 -0.00605852 0.00845601)