/*--------------------------------*- C++ -*----------------------------------*\
| =========                 |                                                 |
| \\      /  F ield         | OpenFOAM: The Open Source CFD Toolbox           |
|  \\    /   O peration     | Version:  v1806                                 |
|   \\  /    A nd           | Web:      www.OpenFOAM.com                      |
|    \\/     M anipulation  |                                                 |
\*---------------------------------------------------------------------------*/
FoamFile
{
    version     2.0;
    format      ascii;
    class       volVectorField;
    location    "0.0525";
    object      U_0;
}
// * * * * * * * * * * * * * * * * * * * * * * * * * * * * * * * * * * * * * //

dimensions      [0 1 -1 0 0 0 0];


internalField   nonuniform List<vector> 
64000
(
(-0.00733879 -0.00853041 -0.00452467)
(0.0146827 -0.00924869 -0.00217112)
(0.02304 -0.00429751 0.00167416)
(0.0241672 -0.00382885 0.00184221)
(0.0228902 -0.00298802 0.0026738)
(0.0225452 -0.00304456 0.0034831)
(0.0213308 -0.00355818 0.00356101)
(0.0179354 -0.00406536 0.00362623)
(0.015974 -0.00521857 0.00486812)
(0.00942121 -0.00437325 0.00430816)
(0.00278507 -0.00623885 0.00617325)
(-0.0121002 -0.00899977 0.00666424)
(-0.0327242 -0.0132371 0.00676973)
(-0.0573514 -0.0178654 0.00432453)
(-0.0905611 -0.0176893 0.00530966)
(-0.124898 -0.0130548 0.0032883)
(-0.161007 0.00208414 0.00259401)
(-0.201031 -0.00363126 -0.000327935)
(-0.213726 -0.0102316 0.0059684)
(-0.263509 -0.0290894 -0.0156299)
(-0.233525 -0.0272406 -0.0293264)
(-0.112675 -0.0264474 -0.0398738)
(-0.0957914 -0.0135921 -0.0292884)
(-0.0938714 -0.00554377 -0.037241)
(-0.0993443 0.00131818 -0.048337)
(-0.0988461 0.0103091 -0.056719)
(-0.0825658 0.019857 -0.0619389)
(-0.0526054 0.0318084 -0.0564851)
(-0.0205614 0.0377569 -0.051613)
(0.0219548 0.0543038 -0.0316064)
(0.0724421 0.0433696 -0.0314321)
(0.103753 0.0362165 -0.021987)
(0.118835 0.0252665 -0.0104891)
(0.114078 0.0112022 -0.0034086)
(0.0990693 0.00349905 0.00255453)
(0.0782281 -0.00492547 0.00498137)
(0.0558392 -0.00770137 0.00721951)
(0.0336047 -0.00653514 0.00803095)
(0.0175723 -0.00479053 0.00819367)
(0.00287076 -0.00325575 0.00623504)
(-0.00544082 -0.00299075 -0.00173431)
(0.011623 -0.017435 -0.00140819)
(0.029941 -0.0142902 8.505e-05)
(0.0368329 -0.00953857 -0.000663122)
(0.0391648 -0.0048091 0.000253366)
(0.038733 -0.00162462 -0.000839484)
(0.0362728 0.00272491 -0.00252083)
(0.0286269 0.00483984 -0.00226299)
(0.0216017 0.0103952 -0.00704846)
(0.00403164 0.0167944 -0.00422729)
(-0.020947 0.0242706 -0.00799394)
(-0.0586852 0.0320056 0.000176097)
(-0.107308 0.0438533 -0.00400663)
(-0.159015 0.0662457 -0.00671258)
(-0.219148 0.0779875 -0.0104219)
(-0.278282 0.0865378 -0.0186256)
(-0.368003 0.0929363 -0.0426675)
(-0.468896 0.0959014 -0.0574633)
(-0.530184 0.101239 -0.0752117)
(-0.603461 0.098183 -0.0995941)
(-0.566042 0.121858 -0.106977)
(-0.422761 0.138269 -0.127993)
(-0.386751 0.180651 -0.141589)
(-0.372391 0.20983 -0.14861)
(-0.350232 0.234924 -0.159543)
(-0.317054 0.257909 -0.16519)
(-0.260954 0.277568 -0.16659)
(-0.194555 0.294362 -0.154981)
(-0.115397 0.299943 -0.13444)
(-0.048507 0.309276 -0.109901)
(0.0193402 0.289161 -0.0744612)
(0.085319 0.259226 -0.0476561)
(0.118986 0.206736 -0.0386183)
(0.131446 0.158739 -0.02713)
(0.125062 0.107761 -0.0130295)
(0.104448 0.0675842 -0.00532258)
(0.0833186 0.0394604 -0.000858704)
(0.0568976 0.0248076 0.000382499)
(0.0336651 0.0150897 0.00207766)
(0.00884368 0.00641633 0.00341054)
(-0.000205978 -0.0112862 0.00189799)
(0.0164534 -0.0246002 -0.000605808)
(0.0375613 -0.0204789 -0.000978254)
(0.046327 -0.00864238 -0.00124909)
(0.0452957 0.00459333 -0.00335554)
(0.0425246 0.0156399 -0.00533001)
(0.0340272 0.0317281 -0.00687919)
(0.0197921 0.0455442 -0.00897387)
(0.0037727 0.0692815 -0.00183866)
(-0.026652 0.0904414 -0.00458379)
(-0.0656684 0.118977 -0.00829787)
(-0.11841 0.15275 -0.0130827)
(-0.173558 0.184952 -0.0168809)
(-0.25442 0.209471 -0.0314885)
(-0.358616 0.227424 -0.0338669)
(-0.453907 0.240392 -0.0425604)
(-0.546012 0.246271 -0.0581225)
(-0.629137 0.268567 -0.074815)
(-0.683881 0.296704 -0.0926618)
(-0.74159 0.328921 -0.114851)
(-0.690674 0.367188 -0.114583)
(-0.522409 0.394788 -0.123339)
(-0.4619 0.449545 -0.128965)
(-0.437393 0.485417 -0.123783)
(-0.406358 0.516308 -0.125376)
(-0.369337 0.539753 -0.122931)
(-0.312975 0.552665 -0.118607)
(-0.251258 0.556846 -0.104709)
(-0.181069 0.546808 -0.0834905)
(-0.118417 0.52766 -0.0600198)
(-0.0616459 0.500903 -0.0396465)
(-0.0214898 0.452352 -0.0276606)
(0.0138157 0.380052 -0.0137613)
(0.0383653 0.306979 -0.00781952)
(0.0462048 0.228739 -0.0107965)
(0.051138 0.162736 -0.0105642)
(0.0497127 0.113411 -0.00685916)
(0.0398501 0.0755485 -0.00448677)
(0.0278753 0.0494594 -0.000642088)
(0.00865943 0.0220481 0.00255323)
(0.000408323 -0.0171768 0.00215873)
(0.0187149 -0.028528 -0.00199064)
(0.0428359 -0.0161652 -0.00168486)
(0.0520074 0.00214708 -0.00586565)
(0.0469551 0.0277642 -0.00595752)
(0.0399586 0.0545754 -0.00770911)
(0.026014 0.0897027 -0.00791592)
(0.00589686 0.123731 -0.00459066)
(-0.0200525 0.16948 -0.00986014)
(-0.0640217 0.210129 -0.0121045)
(-0.110692 0.250497 -0.0162976)
(-0.179788 0.279544 -0.0230955)
(-0.270675 0.306045 -0.0258865)
(-0.36176 0.321244 -0.0282279)
(-0.448277 0.34462 -0.0298752)
(-0.526634 0.371985 -0.037529)
(-0.603872 0.402098 -0.0502407)
(-0.673703 0.433084 -0.0582329)
(-0.713151 0.470594 -0.0670099)
(-0.755018 0.512007 -0.07539)
(-0.691702 0.546259 -0.0575222)
(-0.503731 0.565204 -0.0473766)
(-0.429082 0.605797 -0.044963)
(-0.405641 0.619807 -0.0301383)
(-0.377124 0.630704 -0.0259575)
(-0.349651 0.633499 -0.0198736)
(-0.305764 0.62451 -0.0165372)
(-0.261013 0.606786 -0.00967943)
(-0.208849 0.581642 0.00163363)
(-0.1645 0.549532 0.00893079)
(-0.130979 0.5115 0.0145505)
(-0.107851 0.46793 0.0133798)
(-0.0878408 0.417807 0.00844106)
(-0.064462 0.35224 0.000378637)
(-0.0434351 0.275081 -0.00387975)
(-0.0184307 0.202837 -0.00942186)
(0.00116277 0.146023 -0.00996223)
(0.0103191 0.108933 -0.00714904)
(0.0179181 0.0748594 -0.00289929)
(0.00712416 0.033036 0.00213935)
(0.00131402 -0.0187635 0.000911812)
(0.0246245 -0.0207847 -0.0048808)
(0.0518712 -0.00182082 -0.00452229)
(0.0611563 0.0315704 -0.00635693)
(0.0565497 0.0743065 -0.00576647)
(0.0485736 0.122635 -0.0141027)
(0.0282627 0.18309 -0.0109823)
(0.00164072 0.237007 -0.00458015)
(-0.0325178 0.286023 -0.00702265)
(-0.0917021 0.321985 -0.0091364)
(-0.161722 0.351385 -0.0122284)
(-0.238837 0.370501 -0.014544)
(-0.308397 0.396668 -0.0165231)
(-0.382412 0.427291 -0.020731)
(-0.457823 0.46123 -0.0182037)
(-0.524186 0.493589 -0.02056)
(-0.586173 0.525931 -0.0218867)
(-0.635409 0.561356 -0.0179559)
(-0.656072 0.600855 -0.0160398)
(-0.686364 0.642874 -0.0242925)
(-0.623573 0.671219 -0.00498391)
(-0.429944 0.680448 0.0128669)
(-0.351853 0.691654 0.021361)
(-0.337006 0.676151 0.0363505)
(-0.320409 0.655724 0.0382787)
(-0.311787 0.632494 0.0451901)
(-0.28935 0.599119 0.0460358)
(-0.262483 0.563852 0.0498007)
(-0.231313 0.523461 0.0434876)
(-0.207625 0.484469 0.0363304)
(-0.18619 0.441066 0.0268184)
(-0.17442 0.405921 0.0194068)
(-0.167284 0.372074 0.0116504)
(-0.164282 0.340454 0.000174431)
(-0.14876 0.27964 -0.0113954)
(-0.105151 0.206223 -0.012439)
(-0.0521489 0.158983 -0.0125281)
(-0.0165938 0.127666 -0.0107831)
(0.00314673 0.0927937 -0.00508533)
(0.00421179 0.0412217 0.00213889)
(0.00515312 -0.0170034 0.000719086)
(0.0313218 -0.00809962 -0.00392914)
(0.0651903 0.017769 -0.00441599)
(0.082457 0.0661057 -0.00806175)
(0.0774626 0.120348 -0.0115576)
(0.0714291 0.186979 -0.0188756)
(0.0452381 0.255137 -0.0133081)
(-0.00382166 0.299849 -0.000507136)
(-0.0611659 0.339708 -0.00465659)
(-0.130401 0.373523 -0.00616068)
(-0.190301 0.407264 -0.00830688)
(-0.250231 0.443701 -0.00852562)
(-0.309662 0.480676 -0.00664273)
(-0.366613 0.510512 -0.00340326)
(-0.421497 0.542799 0.00339174)
(-0.468949 0.572989 0.00866349)
(-0.510418 0.605541 0.00697354)
(-0.544913 0.638766 0.0103359)
(-0.557533 0.68143 0.0107087)
(-0.579013 0.713184 0.00849326)
(-0.514755 0.7385 0.0281057)
(-0.335989 0.692966 0.0469734)
(-0.275234 0.6722 0.0543745)
(-0.280227 0.627093 0.0710849)
(-0.280795 0.582282 0.07523)
(-0.28943 0.542592 0.0768232)
(-0.284235 0.498456 0.0739608)
(-0.277536 0.458209 0.0691642)
(-0.261674 0.411436 0.0664569)
(-0.251906 0.373706 0.047431)
(-0.243039 0.332031 0.0369666)
(-0.232259 0.300662 0.0237414)
(-0.220341 0.276066 0.0111849)
(-0.224023 0.259391 0.00163602)
(-0.233092 0.236784 -0.0128735)
(-0.175063 0.19102 -0.0126539)
(-0.0911118 0.15947 -0.0143031)
(-0.0396997 0.132925 -0.0114244)
(-0.0038243 0.10066 -0.00628117)
(0.00326516 0.0439429 0.00244899)
(0.00840835 -0.014539 0.000245863)
(0.0395602 0.00360014 -0.00919998)
(0.0822372 0.0410746 -0.00911561)
(0.104689 0.0946734 -0.00900615)
(0.104121 0.149743 -0.0104304)
(0.0957844 0.225486 -0.0130907)
(0.0426103 0.26656 -0.00209574)
(-0.0182614 0.309506 0.00371498)
(-0.061766 0.355646 -0.000542261)
(-0.116955 0.405048 -0.00184154)
(-0.166724 0.453891 -0.00232977)
(-0.21625 0.49743 -0.000593265)
(-0.262998 0.535553 0.00192116)
(-0.309142 0.570774 0.00822184)
(-0.350628 0.603088 0.0137353)
(-0.384436 0.631306 0.0202035)
(-0.413473 0.655508 0.0256006)
(-0.427505 0.675734 0.0295495)
(-0.43248 0.701944 0.0242863)
(-0.452315 0.71759 0.0175164)
(-0.445484 0.734387 0.0265713)
(-0.304228 0.641748 0.0487909)
(-0.227752 0.577917 0.0521076)
(-0.248073 0.526523 0.0665054)
(-0.258769 0.478732 0.0687892)
(-0.282177 0.44302 0.0694136)
(-0.293434 0.405787 0.0655835)
(-0.302532 0.371813 0.0600626)
(-0.300205 0.335063 0.0484642)
(-0.301369 0.300987 0.0350521)
(-0.299281 0.268837 0.0221865)
(-0.28985 0.241462 0.0114203)
(-0.279981 0.222679 0.000617729)
(-0.276898 0.207777 -0.00508409)
(-0.280204 0.213045 -0.0150683)
(-0.225141 0.193481 -0.0196876)
(-0.127061 0.164742 -0.0209753)
(-0.0560761 0.144304 -0.0164436)
(-0.0097385 0.109247 -0.00966399)
(0.00334473 0.0481154 0.000907945)
(0.00909447 -0.00488922 -0.000142194)
(0.0470872 0.0238118 -0.0128531)
(0.0996085 0.0725122 -0.0136274)
(0.123993 0.126194 -0.00993128)
(0.130759 0.185075 -0.0115473)
(0.103371 0.248426 -0.00940189)
(0.0426338 0.278618 0.00166993)
(0.0035432 0.33667 0.00594445)
(-0.034837 0.383722 0.00254862)
(-0.0821671 0.437491 0.00383512)
(-0.123373 0.480871 0.00543662)
(-0.164956 0.518034 0.0108545)
(-0.199981 0.550347 0.0174402)
(-0.229686 0.578464 0.0231825)
(-0.260147 0.602398 0.0279117)
(-0.286654 0.619348 0.0323185)
(-0.31055 0.630553 0.0344573)
(-0.325287 0.636927 0.0351698)
(-0.334856 0.632175 0.0289059)
(-0.355506 0.6226 0.0174396)
(-0.392851 0.617387 0.0139376)
(-0.311299 0.55986 0.0317739)
(-0.225132 0.455978 0.0332177)
(-0.236806 0.423223 0.0438874)
(-0.256815 0.38237 0.0487964)
(-0.28745 0.358743 0.0509171)
(-0.310173 0.331186 0.051459)
(-0.329431 0.304457 0.0463911)
(-0.337746 0.275099 0.0384919)
(-0.345936 0.244319 0.0180727)
(-0.348503 0.212765 0.0116533)
(-0.339529 0.188106 0.00248468)
(-0.326529 0.173481 -0.004833)
(-0.311131 0.167995 -0.00897299)
(-0.318184 0.186146 -0.0179945)
(-0.273689 0.195688 -0.0203713)
(-0.160778 0.170674 -0.0220797)
(-0.073869 0.153093 -0.0177736)
(-0.0146284 0.116892 -0.00992991)
(0.0045907 0.051261 0.001412)
(0.00683409 0.00585154 -0.0050097)
(0.0535962 0.0542366 -0.0192788)
(0.117838 0.109749 -0.0187675)
(0.148151 0.163782 -0.0130008)
(0.153091 0.223162 -0.0143551)
(0.116508 0.264161 -0.00752471)
(0.064267 0.311916 -0.000475441)
(0.0312865 0.367041 0.00635273)
(0.00307039 0.406285 0.0126214)
(-0.0311991 0.447531 0.0122475)
(-0.0707987 0.484971 0.0165188)
(-0.100855 0.512218 0.0219674)
(-0.125913 0.53436 0.0285563)
(-0.150704 0.5464 0.0331759)
(-0.175653 0.550621 0.0348804)
(-0.199623 0.54876 0.0359139)
(-0.223848 0.541211 0.0350193)
(-0.248485 0.532852 0.0320715)
(-0.274044 0.520712 0.0252746)
(-0.302106 0.501096 0.0117995)
(-0.351763 0.484245 0.00194018)
(-0.333345 0.467742 0.0086439)
(-0.25329 0.368514 0.0162704)
(-0.23549 0.343331 0.0205954)
(-0.263077 0.31799 0.0281775)
(-0.296015 0.300834 0.0331726)
(-0.328851 0.282511 0.0373194)
(-0.355475 0.257065 0.0363282)
(-0.373165 0.23198 0.0232675)
(-0.390044 0.197495 0.0106059)
(-0.394078 0.172644 0.000725108)
(-0.382107 0.149708 -0.00437355)
(-0.36711 0.135485 -0.0107578)
(-0.341602 0.138189 -0.0170825)
(-0.329177 0.148306 -0.0206397)
(-0.300227 0.18843 -0.0266513)
(-0.197003 0.172599 -0.0261515)
(-0.0899253 0.161994 -0.0241728)
(-0.0199529 0.126484 -0.0131252)
(0.00521326 0.0567757 -0.000533514)
(0.00826201 0.0219478 -0.00830015)
(0.0615846 0.0943666 -0.0269645)
(0.134988 0.154338 -0.0264987)
(0.171318 0.206974 -0.0164147)
(0.168706 0.253047 -0.0139535)
(0.13606 0.287818 -0.010299)
(0.100583 0.339738 -0.00224343)
(0.0696579 0.385746 0.0124473)
(0.0383059 0.422681 0.0177976)
(0.0146692 0.449513 0.0272131)
(-0.0115069 0.470218 0.0252496)
(-0.0406052 0.484011 0.0340546)
(-0.0634753 0.490368 0.0388755)
(-0.0855143 0.482559 0.0425074)
(-0.110205 0.467674 0.0403238)
(-0.136341 0.44706 0.0369939)
(-0.163878 0.422452 0.0321058)
(-0.190084 0.403124 0.0265138)
(-0.225248 0.391312 0.0172732)
(-0.269279 0.376908 0.00624724)
(-0.321797 0.369349 -0.00420671)
(-0.345273 0.375011 -0.00520514)
(-0.28611 0.327565 0.00618813)
(-0.240548 0.294299 0.00575876)
(-0.265344 0.277289 0.0148055)
(-0.299737 0.263972 0.0228095)
(-0.338449 0.243281 0.0300766)
(-0.372233 0.222804 0.0295532)
(-0.397451 0.190814 0.0227919)
(-0.413603 0.162854 0.00909871)
(-0.418465 0.133787 0.0112724)
(-0.415734 0.11263 0.0178204)
(-0.396292 0.0929626 0.0157653)
(-0.374113 0.0944957 0.009038)
(-0.351559 0.108484 -0.0115127)
(-0.321622 0.154519 -0.0233689)
(-0.226067 0.171125 -0.0239547)
(-0.106301 0.161287 -0.021678)
(-0.0253567 0.134563 -0.0123752)
(0.00644225 0.0604378 0.000477593)
(0.00865249 0.0411153 -0.0111359)
(0.0687409 0.134917 -0.0330857)
(0.151101 0.199547 -0.0316111)
(0.187508 0.243017 -0.0171144)
(0.185329 0.278435 -0.0129485)
(0.16559 0.315373 -0.0113033)
(0.138764 0.358156 -0.00141439)
(0.109136 0.393693 0.00664406)
(0.0843488 0.422656 0.0144917)
(0.0570963 0.442674 0.0292374)
(0.029637 0.448596 0.037886)
(0.0127789 0.448862 0.0467609)
(-0.00935744 0.435772 0.0474366)
(-0.0372476 0.413941 0.0487074)
(-0.0646853 0.387393 0.042717)
(-0.0964329 0.357737 0.0343729)
(-0.127336 0.326358 0.0264589)
(-0.155079 0.306568 0.0181699)
(-0.19528 0.28937 0.00832043)
(-0.239584 0.281413 0.00355869)
(-0.287214 0.287192 -0.00366659)
(-0.323636 0.306621 -0.00721941)
(-0.29274 0.310795 0.000140836)
(-0.248546 0.277492 -0.000732199)
(-0.258747 0.251288 0.00649431)
(-0.296753 0.233832 0.0158153)
(-0.338357 0.212607 0.0227378)
(-0.37765 0.188324 0.0251786)
(-0.4067 0.159327 0.0158483)
(-0.428944 0.127795 0.0298919)
(-0.442468 0.0927628 0.0310237)
(-0.444344 0.063761 0.0195688)
(-0.432327 0.0507288 0.0139924)
(-0.3993 0.046477 0.00823005)
(-0.360605 0.062772 0.000831141)
(-0.327821 0.103794 -0.0198361)
(-0.248375 0.150343 -0.0281111)
(-0.12512 0.157662 -0.0231903)
(-0.0281401 0.138202 -0.0150355)
(0.00489012 0.0643157 -0.000835759)
(0.00918837 0.0631302 -0.011789)
(0.0742275 0.178991 -0.0369812)
(0.159652 0.24414 -0.0348038)
(0.199645 0.277746 -0.0181991)
(0.207227 0.308572 -0.010407)
(0.19539 0.339781 -0.00563864)
(0.174414 0.371111 -0.0047451)
(0.148163 0.394887 0.00965076)
(0.122294 0.413474 0.0132679)
(0.0990279 0.421814 0.026116)
(0.0769011 0.423906 0.0357168)
(0.0500595 0.412754 0.0522943)
(0.0239067 0.386826 0.0544682)
(0.00114 0.353436 0.0543623)
(-0.02919 0.321359 0.0420522)
(-0.0667443 0.290753 0.0293871)
(-0.099367 0.262091 0.0189701)
(-0.13004 0.246138 0.00808695)
(-0.171821 0.229009 0.000469824)
(-0.20931 0.228111 -0.00130373)
(-0.245306 0.239725 -0.00204256)
(-0.275611 0.271972 -0.00310138)
(-0.269821 0.293985 -6.94716e-05)
(-0.250423 0.271128 -0.0015325)
(-0.255612 0.231134 0.00158775)
(-0.281743 0.203813 0.0095689)
(-0.32447 0.178187 0.0156052)
(-0.364869 0.152857 0.0143352)
(-0.399691 0.123732 0.0338596)
(-0.431167 0.0877403 0.042939)
(-0.451617 0.0534528 0.0413952)
(-0.452801 0.0272159 0.0523036)
(-0.44495 0.00304574 0.0413072)
(-0.430793 -0.00135702 0.0331712)
(-0.39469 0.00936836 0.0248711)
(-0.346106 0.0538801 0.00295461)
(-0.258965 0.107852 -0.0244284)
(-0.138258 0.146623 -0.0245742)
(-0.0339733 0.135983 -0.0140597)
(0.00620169 0.0679324 -0.000954558)
(0.00866147 0.0776232 -0.0123308)
(0.0745688 0.213226 -0.0405181)
(0.162351 0.280667 -0.0390543)
(0.210085 0.310111 -0.0204326)
(0.22785 0.332753 -0.00712264)
(0.223228 0.354018 0.000295112)
(0.204353 0.376471 0.00461117)
(0.179879 0.389214 0.00637196)
(0.159655 0.399262 0.0152771)
(0.137436 0.401084 0.0262296)
(0.111814 0.392508 0.0346378)
(0.085928 0.374659 0.0417928)
(0.0546744 0.346714 0.0529767)
(0.0247193 0.311921 0.0531028)
(-0.00343872 0.270831 0.0409364)
(-0.0424261 0.244266 0.0229252)
(-0.0761426 0.219134 0.0121836)
(-0.108893 0.207196 0.000134383)
(-0.147579 0.192102 -0.00463216)
(-0.171717 0.197874 -0.00345276)
(-0.188178 0.214978 0.0007876)
(-0.21201 0.242118 0.00152662)
(-0.230676 0.263566 0.0030636)
(-0.240496 0.247541 0.00064117)
(-0.248266 0.208756 0.000646437)
(-0.265643 0.166006 0.00522848)
(-0.299637 0.136749 0.0100953)
(-0.339728 0.111564 0.0219339)
(-0.380939 0.0788449 0.0360465)
(-0.417463 0.0473944 0.0428696)
(-0.438704 0.0142096 0.064115)
(-0.462955 -0.024455 0.0469121)
(-0.470926 -0.066905 0.0360076)
(-0.451869 -0.0886046 0.0170459)
(-0.412177 -0.0759941 0.00329895)
(-0.366214 -0.0265325 0.0116178)
(-0.280452 0.0575295 -0.00314832)
(-0.151106 0.114471 -0.0311434)
(-0.0389607 0.128194 -0.014421)
(0.00689455 0.067548 -0.00265695)
(0.0075903 0.0910242 -0.0111439)
(0.0740537 0.244532 -0.0428217)
(0.164227 0.316526 -0.0438354)
(0.21785 0.342352 -0.0238864)
(0.244594 0.355858 -0.00514615)
(0.247737 0.363951 0.00642626)
(0.232027 0.374606 0.0114929)
(0.209642 0.382479 0.0156435)
(0.191469 0.387314 0.0176568)
(0.169542 0.38123 0.0218677)
(0.14706 0.366298 0.0248743)
(0.116084 0.341896 0.0364123)
(0.0815692 0.309749 0.0374407)
(0.0450432 0.276165 0.0424306)
(0.014772 0.241775 0.0348995)
(-0.0193856 0.209477 0.015178)
(-0.0526961 0.195195 0.00611636)
(-0.0855914 0.180249 -0.00593429)
(-0.116363 0.17556 -0.00580097)
(-0.122396 0.186095 -0.00231355)
(-0.133235 0.196873 0.00305941)
(-0.153154 0.204972 0.00867051)
(-0.18283 0.214588 0.00942243)
(-0.214879 0.209179 0.00584152)
(-0.23847 0.182247 0.00225425)
(-0.24663 0.135299 0.00248645)
(-0.264517 0.101086 0.00537818)
(-0.302738 0.0712423 0.0224935)
(-0.343163 0.0395106 0.0328473)
(-0.379825 0.00909676 0.0550174)
(-0.425678 -0.034501 0.0424259)
(-0.466859 -0.0894976 0.0367669)
(-0.484488 -0.133864 0.0245335)
(-0.473496 -0.166847 0.0140282)
(-0.432679 -0.170418 -0.00298782)
(-0.368797 -0.128115 -0.00704419)
(-0.286789 -0.0255499 0.000797709)
(-0.170523 0.0747169 -0.0168232)
(-0.0434096 0.116535 -0.0189493)
(0.0067777 0.0699874 -0.00182933)
(0.00495161 0.0895879 -0.0117697)
(0.0694051 0.259846 -0.0439808)
(0.161315 0.33689 -0.0459676)
(0.221639 0.361251 -0.0255413)
(0.254742 0.367382 -0.00506171)
(0.262707 0.365272 0.00934003)
(0.255735 0.367701 0.0171017)
(0.239094 0.370192 0.0198433)
(0.220885 0.368098 0.0221545)
(0.197362 0.357479 0.0233791)
(0.170959 0.340622 0.0237843)
(0.140277 0.31389 0.0207999)
(0.104505 0.283344 0.0198665)
(0.0692457 0.248734 0.0201377)
(0.0323377 0.222037 0.0219762)
(0.000833787 0.18988 0.00861361)
(-0.0267007 0.177545 -0.00173562)
(-0.0568393 0.166705 -0.00842324)
(-0.0712359 0.175816 -0.00474999)
(-0.0759132 0.183673 -0.000987064)
(-0.088579 0.180962 0.00742242)
(-0.107385 0.176176 0.0143791)
(-0.132337 0.169367 0.018045)
(-0.171406 0.165065 0.0118967)
(-0.21176 0.152301 0.00581489)
(-0.227497 0.120455 0.00551121)
(-0.234973 0.0703633 0.0120784)
(-0.264092 0.0388981 0.023242)
(-0.298838 0.0057735 0.0409191)
(-0.346991 -0.0353161 0.0361182)
(-0.401333 -0.0905881 0.0356232)
(-0.446447 -0.144739 0.0270156)
(-0.475606 -0.199692 0.0171819)
(-0.479073 -0.241763 0.00327483)
(-0.44588 -0.261648 -0.0111983)
(-0.380539 -0.229101 -0.01863)
(-0.287527 -0.14099 -0.0196474)
(-0.173114 0.00708678 0.000117617)
(-0.0521733 0.088221 -0.027339)
(0.00655831 0.066953 -0.0038375)
(0.00500281 0.0892645 -0.00567178)
(0.0676055 0.271807 -0.0401541)
(0.158976 0.353499 -0.0427407)
(0.22411 0.374982 -0.0231752)
(0.263564 0.373324 -0.000275346)
(0.281086 0.365424 0.0121203)
(0.280468 0.363265 0.0172494)
(0.263835 0.358665 0.0191906)
(0.245903 0.35336 0.0194576)
(0.224956 0.339137 0.0184086)
(0.201045 0.318157 0.0154516)
(0.166611 0.28902 0.0115527)
(0.12719 0.25453 0.00787702)
(0.0898955 0.223955 0.00259726)
(0.0527936 0.2028 0.00655479)
(0.0222449 0.19299 -0.00186706)
(0.00226263 0.188098 -0.00509047)
(-0.0120406 0.190973 -0.00456531)
(-0.0222371 0.198783 -0.000526495)
(-0.0349682 0.189229 0.00412031)
(-0.0529193 0.176707 0.0113488)
(-0.0721914 0.159357 0.0156482)
(-0.0959218 0.143111 0.0180111)
(-0.128598 0.12692 0.0170807)
(-0.172362 0.121016 0.00902152)
(-0.209075 0.0996361 0.00887947)
(-0.216301 0.0569132 0.0107474)
(-0.226029 0.0105445 0.0188769)
(-0.264043 -0.0266065 0.022371)
(-0.313437 -0.0774629 0.0265344)
(-0.367062 -0.127484 0.0251798)
(-0.41781 -0.18533 0.0222091)
(-0.454137 -0.24511 0.0143141)
(-0.469229 -0.300085 0.00200436)
(-0.446061 -0.332742 -0.013464)
(-0.387653 -0.321487 -0.0289679)
(-0.286193 -0.239644 -0.0326642)
(-0.17362 -0.0864057 -0.0212985)
(-0.054866 0.0493977 -0.0185901)
(0.00850887 0.0609156 -0.00937711)
(-0.000843316 0.0932642 -0.012822)
(0.0561121 0.280843 -0.0439422)
(0.14833 0.368388 -0.0480602)
(0.219728 0.390024 -0.0276783)
(0.269576 0.38623 -0.00269544)
(0.297661 0.372077 0.00823925)
(0.303834 0.358582 0.013688)
(0.291539 0.344916 0.0136663)
(0.272613 0.33003 0.0109515)
(0.245565 0.311054 0.00763644)
(0.216857 0.294584 0.00538855)
(0.181451 0.2778 0.00253013)
(0.146064 0.262557 0.00102696)
(0.118874 0.248745 0.00048076)
(0.0937931 0.241816 0.00343276)
(0.0702527 0.239096 -0.00842081)
(0.0502493 0.230835 -0.00635171)
(0.0324615 0.223849 -0.00565552)
(0.00840741 0.210263 -0.00285342)
(-0.0127335 0.1886 0.00425806)
(-0.0295035 0.164206 0.00960793)
(-0.0491408 0.140913 0.0135626)
(-0.0701531 0.119326 0.0152573)
(-0.0951196 0.0990014 0.0180156)
(-0.135778 0.0867387 0.0110496)
(-0.180375 0.0731631 0.0027436)
(-0.202621 0.0482133 0.00320831)
(-0.212791 0.00216316 0.00347302)
(-0.237244 -0.0461489 0.00811527)
(-0.280243 -0.0938547 0.013246)
(-0.3276 -0.152469 0.0158775)
(-0.376136 -0.217397 0.0138054)
(-0.415778 -0.288451 0.00796557)
(-0.439071 -0.360129 -0.00300939)
(-0.429746 -0.412305 -0.0188267)
(-0.380573 -0.422839 -0.0355712)
(-0.289484 -0.356415 -0.054672)
(-0.177655 -0.199153 -0.0387724)
(-0.0547287 -0.00150889 -0.00984512)
(0.00737175 0.0568433 -0.0106607)
(-0.0071853 0.097857 -0.0139773)
(0.0434056 0.298045 -0.0379463)
(0.136808 0.393517 -0.0452103)
(0.215003 0.414986 -0.0268363)
(0.272485 0.407791 -0.00984447)
(0.305589 0.384752 0.0019055)
(0.316139 0.363487 0.00755637)
(0.302969 0.352118 0.00912892)
(0.286966 0.361578 0.00956547)
(0.274357 0.369859 0.00713597)
(0.261959 0.371887 0.00383004)
(0.234692 0.361025 -0.000797795)
(0.198852 0.346388 -0.00220482)
(0.165209 0.322626 -0.0039081)
(0.132397 0.297876 2.07481e-06)
(0.0948434 0.273443 -0.00855552)
(0.0673994 0.251302 -0.00977397)
(0.0480396 0.220119 -0.00770018)
(0.0252838 0.194376 -0.00416619)
(0.00378233 0.170881 0.00137801)
(-0.014539 0.143463 0.00818591)
(-0.029941 0.118542 0.0116562)
(-0.0498347 0.0963621 0.0124347)
(-0.0711966 0.0747494 0.0159099)
(-0.104827 0.0580971 0.00721576)
(-0.147604 0.0440227 -0.000761119)
(-0.17741 0.0294775 0.00206627)
(-0.197249 -0.000667446 -0.000115539)
(-0.219956 -0.0448121 -0.00415105)
(-0.259531 -0.098227 -0.00394311)
(-0.307778 -0.150548 0.00191941)
(-0.35417 -0.212877 0.00538421)
(-0.39382 -0.285835 0.00527406)
(-0.416867 -0.364128 -0.00170637)
(-0.408625 -0.431665 -0.0146502)
(-0.364921 -0.465828 -0.0344086)
(-0.272279 -0.435628 -0.0576373)
(-0.157553 -0.298713 -0.0609706)
(-0.0397336 -0.090693 -0.0258653)
(0.0107718 0.0314074 -0.00863295)
(-0.0116449 0.220538 -0.0171715)
(0.0321871 0.441942 -0.0339673)
(0.119215 0.543667 -0.0424679)
(0.197717 0.571428 -0.0239874)
(0.262669 0.561349 -0.011457)
(0.306522 0.534302 0.0033554)
(0.337556 0.500666 0.00962741)
(0.362132 0.487501 0.00931942)
(0.367011 0.493539 0.00265096)
(0.337849 0.489358 -0.00393307)
(0.29707 0.469468 -0.00842891)
(0.251189 0.432942 -0.0107886)
(0.20503 0.391116 -0.0109879)
(0.164656 0.34535 -0.00805301)
(0.132888 0.302525 -0.00497152)
(0.107426 0.262543 -0.000394625)
(0.0784282 0.234566 -0.00624131)
(0.0563547 0.204767 -0.00649658)
(0.040837 0.17526 -0.00424905)
(0.0181169 0.148825 -0.00149388)
(-0.000557398 0.126355 0.00540744)
(-0.0153722 0.099544 0.00965196)
(-0.0331775 0.077092 0.0103787)
(-0.0517379 0.0565009 0.0147401)
(-0.0822246 0.0338738 0.00523811)
(-0.119297 0.0201605 0.00512104)
(-0.148882 0.00699136 0.00494793)
(-0.176214 -0.00831945 0.00541662)
(-0.206378 -0.0348977 0.00289265)
(-0.235576 -0.0781908 0.000413924)
(-0.264296 -0.134884 -0.00807798)
(-0.306634 -0.215376 -0.0158364)
(-0.348172 -0.309839 -0.0209181)
(-0.378496 -0.40827 -0.028687)
(-0.384767 -0.490841 -0.0453618)
(-0.364876 -0.553099 -0.0733266)
(-0.295359 -0.540541 -0.0904243)
(-0.197151 -0.41434 -0.0878508)
(-0.0627791 -0.152782 -0.0491442)
(0.0138107 0.0361125 -0.0100888)
(-0.014547 0.273378 -0.0148617)
(0.0226501 0.516194 -0.0421889)
(0.109837 0.629794 -0.0519213)
(0.192776 0.675568 -0.0417961)
(0.260689 0.672568 -0.0314029)
(0.30519 0.649088 -0.0190431)
(0.341397 0.610854 -0.00980594)
(0.369807 0.578518 -0.00630145)
(0.367037 0.54451 -0.00801951)
(0.333649 0.505674 -0.00816736)
(0.293634 0.464966 -0.00755245)
(0.248246 0.420882 -0.00766053)
(0.204646 0.374363 -0.0061529)
(0.168376 0.329764 -0.0054872)
(0.137441 0.28655 -0.00344727)
(0.110421 0.24766 -0.00147371)
(0.091034 0.212449 0.00290414)
(0.0691304 0.18524 -0.00181302)
(0.0485143 0.157593 -0.00401945)
(0.0329306 0.130592 -0.000963356)
(0.0126896 0.106935 0.00137919)
(-0.00402881 0.0840228 0.0080301)
(-0.0182385 0.0582603 0.00868809)
(-0.039336 0.0378669 0.0116893)
(-0.0637608 0.0160082 0.00740717)
(-0.0926663 0.00206316 0.00865715)
(-0.116663 -0.00994328 0.0111184)
(-0.138481 -0.0199806 0.0089892)
(-0.172823 -0.0350206 0.00589429)
(-0.219928 -0.0587355 0.00412712)
(-0.277572 -0.104489 0.00513494)
(-0.326297 -0.174794 0.00609306)
(-0.350638 -0.266273 0.00124266)
(-0.350896 -0.398294 -0.0132158)
(-0.345805 -0.53631 -0.0286049)
(-0.324838 -0.654035 -0.0502218)
(-0.255874 -0.698731 -0.0786736)
(-0.147361 -0.603239 -0.0859258)
(-0.0349684 -0.323877 -0.0748422)
(0.0123883 -0.0236087 -0.00545131)
(0.000297639 0.248095 0.000463583)
(0.0368438 0.484179 -0.0342306)
(0.107705 0.606691 -0.0439859)
(0.187162 0.6589 -0.0390788)
(0.253625 0.659378 -0.0258725)
(0.302123 0.636189 -0.0175452)
(0.341917 0.599693 -0.00815374)
(0.372671 0.56158 -0.00354957)
(0.371908 0.521837 -0.0038225)
(0.338074 0.48539 -0.00327668)
(0.295332 0.446724 -0.00275507)
(0.247611 0.404682 -0.00212279)
(0.203263 0.359054 -0.00194349)
(0.166094 0.314874 -0.000663708)
(0.138016 0.270779 -0.00116908)
(0.117727 0.231728 0.000869759)
(0.0975503 0.194357 0.001075)
(0.0809948 0.162584 0.00318484)
(0.0636445 0.137185 0.00347412)
(0.0425016 0.112727 -0.0015624)
(0.0257128 0.0902742 0.00204461)
(0.00714853 0.0693428 0.00481965)
(-0.00898563 0.0462136 0.00941882)
(-0.0232919 0.0250024 0.0102575)
(-0.045271 0.00642959 0.00806663)
(-0.0688727 -0.00809578 0.0109216)
(-0.0880583 -0.0188896 0.0118504)
(-0.108625 -0.0335296 0.0125683)
(-0.137801 -0.0488308 0.0106086)
(-0.176307 -0.0656336 0.00940493)
(-0.222711 -0.0851411 0.00770927)
(-0.277653 -0.116282 0.00552044)
(-0.344451 -0.169637 0.00361338)
(-0.389527 -0.267386 0.00262478)
(-0.386732 -0.389847 -0.00299617)
(-0.361427 -0.5276 -0.0146164)
(-0.289519 -0.622289 -0.028481)
(-0.176223 -0.61032 -0.0551027)
(-0.0242817 -0.375285 -0.0533437)
(0.0402206 -0.0158216 -0.0233112)
(0.00152072 0.253618 0.00299087)
(0.0388122 0.467337 -0.0257581)
(0.106127 0.590491 -0.0354642)
(0.180556 0.646637 -0.0332765)
(0.245657 0.652758 -0.0180393)
(0.294634 0.63014 -0.0123704)
(0.336301 0.592582 -0.00258495)
(0.366025 0.551225 0.000909569)
(0.366357 0.503323 0.000822939)
(0.336056 0.463174 0.00126287)
(0.29318 0.421925 0.00154528)
(0.244548 0.379381 0.00172167)
(0.201634 0.336418 0.00179802)
(0.167756 0.295753 0.0015033)
(0.140975 0.255411 0.00151079)
(0.118763 0.216519 0.00293495)
(0.104111 0.177182 0.00539563)
(0.091266 0.145289 0.00729687)
(0.0749283 0.116748 0.00751225)
(0.0593497 0.0954014 0.00989563)
(0.0400773 0.0747627 0.00428327)
(0.0208283 0.0559115 0.00497648)
(0.00544064 0.0361605 0.00996017)
(-0.0108434 0.0183866 0.00847868)
(-0.0270015 -0.00315201 0.00878034)
(-0.0449465 -0.0158275 0.00951819)
(-0.0636421 -0.0314373 0.0107777)
(-0.0816567 -0.0470866 0.0119838)
(-0.105268 -0.0658732 0.0129622)
(-0.137071 -0.0855077 0.0132937)
(-0.180366 -0.107597 0.0134503)
(-0.224103 -0.141261 0.014203)
(-0.273069 -0.181131 0.0150997)
(-0.307463 -0.237016 0.0135554)
(-0.332395 -0.316872 0.00760441)
(-0.34771 -0.444319 -0.000167341)
(-0.320992 -0.54359 -0.0150724)
(-0.225012 -0.573388 -0.0389071)
(-0.0593731 -0.364476 -0.0518996)
(0.0255471 0.0141194 -0.0176999)
(0.00709591 0.22994 0.000680968)
(0.0445178 0.423146 -0.0220909)
(0.104445 0.55228 -0.0305394)
(0.176692 0.611775 -0.0293777)
(0.240285 0.625938 -0.0169587)
(0.289386 0.606014 -0.00945193)
(0.333294 0.56984 -0.000670858)
(0.359996 0.526734 0.00315049)
(0.360693 0.476394 0.00383087)
(0.333996 0.433411 0.00421162)
(0.290308 0.390834 0.00492009)
(0.243645 0.350501 0.00551015)
(0.204066 0.312015 0.00519327)
(0.171152 0.274484 0.00514516)
(0.144984 0.235911 0.00510595)
(0.124532 0.199911 0.00655883)
(0.109256 0.164552 0.00787236)
(0.10058 0.131976 0.00912625)
(0.0903211 0.101158 0.00920123)
(0.0735954 0.0768617 0.00788168)
(0.056402 0.0616623 0.00835649)
(0.0368021 0.0445065 0.00811498)
(0.020782 0.0279688 0.00511077)
(0.00478744 0.0111343 0.00704604)
(-0.0108967 -0.00610495 0.00848413)