/*--------------------------------*- C++ -*----------------------------------*\
| =========                 |                                                 |
| \\      /  F ield         | OpenFOAM: The Open Source CFD Toolbox           |
|  \\    /   O peration     | Version:  v1806                                 |
|   \\  /    A nd           | Web:      www.OpenFOAM.com                      |
|    \\/     M anipulation  |                                                 |
\*---------------------------------------------------------------------------*/
FoamFile
{
    version     2.0;
    format      ascii;
    class       volScalarField;
    location    "0.121";
    object      p;
}
// * * * * * * * * * * * * * * * * * * * * * * * * * * * * * * * * * * * * * //

dimensions      [0 2 -2 0 0 0 0];


internalField   nonuniform List<scalar> 
64000
(
2.37722e-05
-0.103556
-0.211032
-0.237457
-0.211109
-0.158474
-0.0905809
-0.0152068
0.0740115
0.144195
0.224246
0.261332
0.320203
0.292809
0.292658
0.17562
0.11624
-0.166322
-0.289592
-0.790842
-0.951427
-1.84346
-1.94236
-2.35089
-2.52239
-2.80734
-2.99634
-3.22382
-3.44794
-3.55983
-3.91455
-4.29402
-4.63155
-4.97988
-5.29384
-5.54091
-5.73037
-5.88724
-5.99451
-6.04021
-0.167874
-0.257391
-0.290356
-0.281926
-0.241271
-0.169934
-0.0890025
-0.00183539
0.0907735
0.183791
0.246019
0.318705
0.395087
0.398744
0.409408
0.307943
0.251453
-0.0367418
-0.148726
-0.566697
-0.833406
-1.69821
-1.89763
-2.25821
-2.43455
-2.72359
-2.93137
-3.20711
-3.42063
-3.7062
-3.80753
-4.22852
-4.5784
-4.90127
-5.22359
-5.46889
-5.67887
-5.84691
-5.97436
-6.02425
-0.341627
-0.379126
-0.366514
-0.34512
-0.267807
-0.17915
-0.0956617
0.00065747
0.103003
0.229086
0.354367
0.420748
0.494948
0.474196
0.456735
0.344114
0.293539
0.0406104
-0.0902038
-0.55878
-0.884417
-1.84339
-2.12687
-2.52936
-2.74099
-3.05637
-3.27999
-3.56602
-3.77571
-4.01773
-4.19716
-4.45863
-4.63065
-4.98174
-5.2611
-5.47211
-5.6571
-5.82394
-5.94874
-6.02141
-0.525228
-0.515977
-0.469085
-0.392102
-0.299377
-0.185376
-0.058464
0.0498305
0.181585
0.313034
0.418133
0.472076
0.547792
0.548272
0.549644
0.442178
0.357097
0.0871661
-0.100316
-0.590878
-0.938972
-1.97732
-2.32301
-2.74828
-2.98509
-3.29566
-3.51142
-3.77218
-3.95419
-4.16072
-4.33147
-4.5271
-4.74531
-4.96574
-5.26285
-5.50394
-5.6252
-5.82385
-5.92785
-6.00263
-0.649198
-0.621138
-0.55694
-0.451193
-0.337022
-0.206546
-0.0587019
0.0410289
0.201217
0.328848
0.441235
0.504211
0.575299
0.570148
0.572402
0.448832
0.358687
0.0741514
-0.133685
-0.650633
-1.01595
-2.10114
-2.44622
-2.89731
-3.13991
-3.44006
-3.64043
-3.87317
-4.04197
-4.22505
-4.36857
-4.56555
-4.72531
-4.90013
-5.3157
-5.53049
-5.68823
-5.83294
-5.90504
-5.98958
-0.836632
-0.785858
-0.697605
-0.574114
-0.424965
-0.283716
-0.117643
0.0142456
0.149252
0.275904
0.396313
0.515217
0.600438
0.624861
0.633317
0.533467
0.443629
0.16966
-0.124877
-0.599003
-1.01351
-2.08298
-2.42713
-2.82711
-3.07902
-3.37225
-3.58018
-3.81744
-3.98322
-4.18748
-4.32605
-4.49591
-4.68108
-4.83809
-5.40748
-5.54423
-5.64955
-5.78957
-5.87394
-5.91981
-0.921266
-0.900825
-0.835322
-0.761306
-0.60831
-0.436391
-0.295484
-0.210943
-0.037688
0.165073
0.353771
0.506119
0.636417
0.694801
0.721401
0.653571
0.557878
0.244336
-0.000127278
-0.507839
-0.849666
-1.91991
-2.23691
-2.61011
-2.87467
-3.17756
-3.41312
-3.68351
-3.89007
-4.0948
-4.26515
-4.4108
-4.5881
-4.7192
-5.23957
-5.47026
-5.54091
-5.68912
-5.76932
-5.83687
-1.07924
-1.06311
-0.974494
-0.918832
-0.759013
-0.6614
-0.489564
-0.384014
-0.155087
0.0789797
0.302682
0.526824
0.707297
0.821651
0.904793
0.884004
0.808885
0.582984
0.310535
-0.109829
-0.478023
-1.37948
-1.88359
-2.23714
-2.56376
-2.88653
-3.1774
-3.4853
-3.73881
-3.98698
-4.16549
-4.33134
-4.50854
-4.64058
-5.05034
-5.40144
-5.45573
-5.56894
-5.68248
-5.73946
-1.2305
-1.19469
-1.13171
-1.07563
-0.952078
-0.910724
-0.669181
-0.471742
-0.364129
-0.0109985
0.29911
0.586264
0.830145
1.01965
1.18162
1.24379
1.24166
1.1001
0.846239
0.486303
0.0123095
-0.572076
-1.40705
-1.76905
-2.16052
-2.50859
-2.84916
-3.20051
-3.51264
-3.78754
-4.03389
-4.21947
-4.37991
-4.52263
-4.75544
-5.27646
-5.29754
-5.42056
-5.53336
-5.60052
-1.42769
-1.34842
-1.31522
-1.24573
-1.18601
-1.13093
-0.864569
-0.573666
-0.31195
-0.0672299
0.283777
0.692163
1.01709
1.30005
1.54083
1.70305
1.7807
1.75028
1.55518
1.31261
0.770809
0.327892
-0.872377
-1.22447
-1.69739
-2.08125
-2.47311
-2.89972
-3.25643
-3.60474
-3.89299
-4.11165
-4.28944
-4.44601
-4.65111
-5.07742
-5.23099
-5.28395
-5.38838
-5.46219
-1.61302
-1.53599
-1.50805
-1.46752
-1.43727
-1.31616
-1.05185
-0.707193
-0.370405
0.0532276
0.466994
0.747294
1.2169
1.63112
1.94903
2.19467
2.33947
2.36598
2.19306
2.00006
1.43061
1.05051
-0.261869
-0.608974
-1.1402
-1.54374
-2.01184
-2.47856
-2.944
-3.32442
-3.6564
-3.92058
-4.09262
-4.22623
-4.35395
-4.7994
-4.99297
-5.07964
-5.1955
-5.28035
-1.81698
-1.73701
-1.72071
-1.72292
-1.66459
-1.47797
-1.20167
-0.796484
-0.377101
0.110771
0.558393
1.10226
1.6056
1.88881
2.43212
2.76124
2.97482
3.06044
2.90232
2.75644
2.11503
1.71739
0.463294
0.0922461
-0.485461
-0.92348
-1.47228
-2.02952
-2.54704
-3.04675
-3.43539
-3.85464
-4.12112
-4.26779
-4.43592
-4.60417
-4.87499
-4.88615
-4.94428
-5.065
-2.04142
-1.9601
-1.97611
-1.98597
-1.89604
-1.68178
-1.2982
-0.895021
-0.374395
0.177429
0.751382
1.3656
1.94755
2.54031
2.86188
3.41757
3.69354
3.8244
3.69621
3.54278
2.91211
2.41032
1.32238
0.894535
0.280728
-0.22006
-0.827078
-1.43494
-2.06739
-2.63183
-3.23588
-3.4406
-3.65595
-3.87575
-4.00478
-4.30023
-4.5948
-4.68941
-4.75953
-4.87253
-2.25159
-2.19491
-2.20313
-2.19213
-2.09069
-1.8703
-1.41864
-0.910012
-0.338319
0.255176
0.943108
1.66747
2.38661
3.05099
3.588
4.08786
4.51335
4.67715
4.58372
4.41817
3.80471
3.19151
2.31609
1.81825
1.17251
0.601363
-0.12001
-0.756608
-1.64816
-2.32402
-2.64131
-3.0602
-3.39105
-3.62677
-3.82666
-3.93465
-4.29168
-4.2523
-4.35252
-4.49369
-2.50002
-2.45336
-2.45599
-2.41433
-2.27874
-2.04179
-1.55252
-1.01051
-0.350784
0.400519
1.18942
1.99461
2.83575
3.65076
4.39224
4.85092
5.35543
5.61168
5.57039
5.41596
4.80571
4.14178
3.43099
2.86625
2.1573
1.4165
0.520797
-0.358753
-0.87638
-1.40407
-2.02952
-2.54531
-2.97144
-3.29863
-3.53472
-3.7475
-3.89481
-4.32162
-4.19401
-4.3221
-2.76151
-2.69832
-2.67747
-2.61486
-2.46041
-2.2051
-1.71024
-1.09554
-0.345784
0.50793
1.43541
2.40426
3.36337
4.23769
5.12355
5.83086
6.25678
6.65784
6.72783
6.5271
5.97346
5.4124
4.71772
4.0459
3.10714
2.22706
1.55287
0.899635
0.19754
-0.605677
-1.32687
-1.9836
-2.5265
-2.93943
-3.22144
-3.42781
-3.53432
-3.68369
-3.8267
-3.85465
-2.94167
-2.90924
-2.88412
-2.80421
-2.63773
-2.36648
-1.84553
-1.18039
-0.351197
0.6376
1.75249
2.90925
4.02283
5.01026
5.92212
6.78958
7.41465
7.79347
7.96261
7.83349
7.61564
7.07198
6.19867
5.33699
4.43646
3.81533
3.04088
2.19653
1.28795
0.384599
-0.513523
-1.315
-1.98822
-2.5065
-2.8942
-3.14049
-3.27372
-3.34677
-3.52663
-3.51056
-3.13022
-3.08205
-3.03692
-2.92231
-2.75387
-2.49201
-1.97465
-1.26449
-0.331228
0.789182
2.03221
3.28518
4.46566
5.50016
6.45074
7.42731
8.29375
9.05056
9.62361
9.84528
9.77042
9.13809
8.19978
7.21309
6.34671
5.38756
4.4094
3.55843
2.59393
1.48654
0.373706
-0.574162
-1.36014
-1.95924
-2.39512
-2.64786
-2.66442
-2.78485
-2.77496
-3.04727
-3.01702
-2.95428
-2.86864
-2.79836
-2.6472
-2.43344
-1.92613
-1.18514
-0.118327
1.29227
2.89611
4.51991
6.00489
7.26626
8.31769
9.34822
10.5931
11.5894
12.1654
12.2646
11.8446
11.2849
10.4358
9.42563
8.29754
7.39619
6.42307
5.18875
3.84686
2.49616
1.2695
0.274621
-0.647592
-1.39418
-2.07543
-2.36955
-2.46508
-2.45708
-2.33282
-2.34736
-2.67276
-2.44259
-2.31595
-2.12963
-1.90369
-1.61707
-1.35133
-0.766187
0.302616
1.79854
3.53783
5.32086
6.99595
8.54777
10.0316
11.2983
12.4344
13.5367
14.1991
14.3481
14.0595
13.5684
12.6353
11.7278
10.5078
9.28516
8.4469
7.24909
5.87599
4.40738
2.80872
1.3219
0.215608
-0.497979
-0.81972
-1.09292
-1.19245
-1.35172
-1.44501
-1.57949
-2.78764
-2.64298
-2.45109
-2.22254
-2.00325
-1.72738
-1.42399
-0.852651
0.235187
1.78347
3.65299
5.65393
7.54518
9.37787
11.166
12.8913
14.4007
15.4183
16.051
16.3487
16.2312
15.7415
14.8678
13.7378
12.3871
11.0871
10.1549
9.04295
7.58552
5.89835
4.14022
2.58489
1.31682
0.448703
-0.1203
-0.422889
-0.505998
-0.518317
-0.643622
-0.582038
-2.93209
-2.80743
-2.62423
-2.39566
-2.15668
-1.88868
-1.57874
-1.00083
0.0803214
1.68978
3.72351
5.88439
7.98256
10.0882
12.2001
14.0991
15.7915
16.9179
17.6064
17.9931
17.9442
17.4908
16.6952
15.5421
14.062
12.3174
10.9584
9.92989
8.72485
7.2356
5.60203
4.22982
3.0015
1.96507
1.09136
0.587741
0.291436
0.102973
-0.0594122
-0.193191
-3.03527
-2.91743
-2.74385
-2.53525
-2.27871
-2.05679
-1.78192
-1.21537
-0.166987
1.47277
3.56636
5.79643
8.03816
10.3354
12.5889
14.718
16.6109
17.9974
18.7
19.0576
19.1194
18.7584
18.0787
16.9733
15.4413
13.5887
11.8009
10.4253
9.24551
7.91016
6.29444
4.96325
3.84732
3.08786
2.64762
2.4412
2.22089
2.08783
1.98801
1.90509
-3.0655
-2.91813
-2.79616
-2.60837
-2.4042
-2.15958
-1.88254
-1.40424
-0.425568
1.15234
3.1861
5.40804
7.72813
10.1323
12.4883
14.7713
16.8253
18.4372
19.3438
19.5496
19.8021
19.5912
19.0625
18.1049
16.5209
14.5337
12.675
11.0697
9.73004
8.56981
7.18921
5.84631
4.6193
3.79125
3.19045
2.85005
2.58305
2.4489
2.30759
2.05726
-3.09442
-2.97342
-2.85512
-2.71261
-2.55911
-2.33519
-2.11305
-1.7244
-0.838847
0.630645
2.56745
4.71882
7.01884
9.48525
11.8231
14.1362
16.2804
18.0869
19.3751
19.7835
20.0794
20.0992
19.679
18.7673
17.229
15.281
13.5601
11.7883
10.088
8.96589
7.69482
6.47577
5.2759
4.4313
3.76363
3.36805
3.03807
2.8973
2.83802
2.6258
-2.96186
-2.88459
-2.79763
-2.69911
-2.61448
-2.41227
-2.28011
-2.02145
-1.31187
-0.0354181
1.71738
3.74641
5.93626
8.29163
10.6943
13.0171
15.235
17.1585
18.7597
19.5928
20.2461
20.3862
20.0631
19.1136
17.8061
16.1484
14.319
12.481
10.5945
9.24701
8.04544
6.96604
5.89488
5.11692
4.40154
3.94066
3.50756
3.289
3.03513
2.73024
-2.85123
-2.79943
-2.74227
-2.67963
-2.67305
-2.57232
-2.48299
-2.41936
-1.8526
-0.779409
0.665976
2.50123
4.55409
6.73832
8.98961
11.3637
13.8022
15.9803
17.9612
19.1674
19.8238
20.1667
19.9349
19.3288
18.2542
16.6832
14.8743
13.1028
11.2204
9.53023
8.40784
7.51007
6.39115
5.60515
4.86827
4.40639
3.9693
3.74623
3.577
3.43382
-2.63738
-2.59183
-2.56007
-2.52996
-2.60155
-2.57149
-2.53043
-2.44191
-2.01926
-1.15608
-0.0422437
1.31997
3.09835
5.13305
7.21048
9.42122
11.7386
14.0007
16.0607
17.0987
18.4731
19.1688
19.5072
19.1407
18.2726
16.8541
15.1551
13.3618
11.3402
9.42495
8.26842
6.80429
5.32138
4.46104
3.71658
3.34225
2.95632
2.8289
2.7335
2.74624
-2.44315
-2.42695
-2.36055
-2.39814
-2.51306
-2.59529
-2.67274
-2.51401
-2.14374
-1.47004
-0.605788
0.493828
1.76865
3.61963
5.4808
7.43387
9.51226
11.5968
13.3992
14.7562
17.4081
18.4302
18.9874
19.0027
18.1934
16.8932
15.3582
13.6576
11.6327
10.2008
8.78847
7.47867
6.23065
5.4354
4.62391
4.14994
3.56466
3.31199
3.0422
2.96443
-2.11818
-2.11942
-2.07089
-2.08376
-2.26332
-2.40763
-2.47745
-2.37691
-2.08131
-1.59105
-0.925066
-0.0435595
1.06454
2.42177
4.11857
5.76522
7.60634
9.57734
11.7954
13.536
16.4302
17.6132
18.4258
18.2508
17.7725
16.7683
15.4951
13.8925
12.1173
10.761
9.28598
8.1359
6.94153
6.18383
5.3886
4.94036
4.34181
4.18269
3.96289
4.06018
-1.87711
-1.86834
-1.87595
-1.82212
-2.01364
-2.2457
-2.3206
-2.23753
-2.00235
-1.589
-1.06843
-0.338632
0.552262
1.59922
3.17725
4.74346
6.60357
8.81147
10.9729
12.6353
15.5389
16.7735
17.7429
17.5969
17.1884
16.4422
15.4137
14.0876
11.9419
11.0893
9.81265
8.62282
7.47871
6.86037
6.02467
5.7152
5.14073
5.11553
4.94266
5.09253
-1.48537
-1.46563
-1.50073
-1.41004
-1.53595
-1.81277
-1.9359
-1.86015
-1.66097
-1.31654
-0.847907
-0.239252
0.555843
1.59267
2.86115
4.5112
6.47571
8.44397
10.4134
12.1556
14.5549
15.7814
16.9093
16.9195
16.6962
16.0988
15.4816
13.8412
11.9805
11.1476
10
9.23064
7.8899
7.35499
6.62134
6.41124
5.85808
6.02725
5.90232
6.26239
-1.2449
-1.24387
-1.23472
-1.24553
-1.1706
-1.41821
-1.56517
-1.47852
-1.26504
-0.935721
-0.497775
0.0817458
0.812654
1.79481
2.88912
4.66046
6.47142
8.18811
10.094
11.5618
13.3812
14.7753
15.9392
16.0219
16.0787
15.5419
15.189
13.4033
11.9455
11.2252
10.0335
9.29561
8.40878
7.72702
6.97246
6.99417
6.42761
6.79491
6.76351
7.4074
-0.81876
-0.79923
-0.798479
-0.762758
-0.704141
-0.741589
-0.9564
-0.863984
-0.66527
-0.327675
0.0809408
0.695711
1.39443
2.2614
3.35888
4.74528
6.5284
7.985
9.45765
10.8075
12.4039
13.7966
14.9735
15.0266
15.4262
14.98
14.8713
13.1288
11.5937
11.2849
10.044
9.42728
8.50901
8.32846
7.33836
7.5027
6.958
7.6465
7.61764
8.70567
-0.638557
-0.653334
-0.599826
-0.564167
-0.498243
-0.343368
-0.519643
-0.374488
-0.162436
0.192579
0.57363
1.11395
1.85304
2.69612
3.68292
4.88181
6.25591
7.56554
8.91352
10.1712
11.5508
12.8248
14.0586
14.2354
14.8071
14.3563
14.5763
12.9054
11.2446
10.7068
9.98039
9.42913
8.5224
8.43839
7.63672
7.78519
7.15427
8.18753
8.17688
9.89921
-0.29639
-0.210745
-0.194772
-0.0615751
-0.0244699
0.232595
0.0839397
0.313617
0.450567
0.813111
1.18424
1.72296
2.3212
3.0756
4.01906
5.00962
6.00323
7.34835
8.55905
9.74278
10.9037
11.7917
13.5567
13.7271
14.288
14.1049
14.3372
12.7503
10.933
10.3768
9.4601
9.44887
8.60294
8.63333
7.83706
8.29975
7.48976
8.99964
8.80436
11.6682
-0.106275
-0.183012
-0.0918941
-0.0294696
0.149113
0.345432
0.439216
0.662564
0.895271
1.18263
1.49876
1.97
2.5118
3.2528
4.11586
5.12952
6.03873
7.20685
8.27929
9.38505
10.4067
11.2264
12.6442
13.2946
13.8901
14.0387
14.0821
12.5442
10.7108
10.0856
9.17444
9.05708
8.38692
8.63574
7.8518
8.48678
7.6042
9.27494
9.41522
13.5548
-0.318226
0.161896
0.118394
0.488726
0.539478
0.91262
0.897556
1.21658
1.30045
1.63365
1.93945
2.41021
2.91376
3.57231
4.29476
5.17568
6.08037
7.13986
8.17947
9.30128
10.2278
10.9961
12.2185
13.0338
13.578
13.9628
13.7714
12.3006
10.5293
9.77896
8.91613
8.90086
8.20733
8.76074
7.97456
9.13212
8.34471
10.9615
10.847
18.3385
-0.00786544
-0.236058
0.00110391
0.0984123
0.636903
0.873208
1.10925
1.36568
1.5451
1.87676
2.20322
2.64065
3.10695
3.71577
4.36679
5.16125
6.0549
7.11901
8.15471
9.19337
10.0529
10.7253
11.6127
12.7527
13.3832
13.9616
13.636
12.1807
10.4081
9.66121
8.79851
8.74079
8.00192
8.62337
7.854
9.15149
8.2919
11.8234
13.2484
23.228
-2.54135
0.301438
0.0506299
0.605991
0.834611
1.24008
1.34273
1.64109
1.78463
2.10706
2.38318
2.80695
3.26802
3.85243
4.44559
5.1875
6.03251
7.13291
8.11971
9.21655
10.1099
10.8092
11.6546
12.8812
13.4374
13.9805
13.391
11.9371
10.1593
9.34077
8.56423
8.74868
8.14237
8.8225
8.24567
10.0468
10.1458
15.9683
21.0004
36.2063
-0.127173
-0.226982
-0.269235
-0.272016
-0.234194
-0.180614
-0.108893
-0.0414411
0.0577189
0.125533
0.211451
0.244778
0.290659
0.266642
0.27122
0.146829
0.0978261
-0.197544
-0.349359
-0.792764
-1.06521
-1.91307
-2.12118
-2.49017
-2.6697
-2.95206
-3.13514
-3.39463
-3.59533
-3.87723
-3.96501
-4.38603
-4.73235
-5.04756
-5.35444
-5.58785
-5.82366
-5.99082
-6.05909
-6.10614
-0.286412
-0.323599
-0.330374
-0.309692
-0.252601
-0.184151
-0.100671
-0.0161945
0.0835069
0.170482
0.272813
0.304158
0.398185
0.396205
0.401403
0.288257
0.234116
-0.0402193
-0.163772
-0.646627
-1.02944
-1.82954
-2.11931
-2.47064
-2.65783
-2.95147
-3.14724
-3.41554
-3.63447
-3.89903
-4.12697
-4.37815
-4.69931
-4.97082
-5.29897
-5.53298
-5.74912
-5.90912
-6.02337
-6.10724
-0.412741
-0.419601
-0.394862
-0.355698
-0.276594
-0.188649
-0.0922057
-0.00382783
0.0901319
0.222479
0.335889
0.400317
0.473523
0.468618
0.457761
0.339245
0.28716
0.022611
-0.129401
-0.672092
-1.12988
-2.01369
-2.40537
-2.80162
-3.00518
-3.31183
-3.52114
-3.78341
-3.9868
-4.20704
-4.37987
-4.59563
-4.83774
-5.06878
-5.34588
-5.54018
-5.72978
-5.8864
-6.00488
-6.06843
-0.556146
-0.539422
-0.50178
-0.414015
-0.313081
-0.194161
-0.115449
0.0288251
0.164115
0.295298
0.408899
0.480072
0.539181
0.527264
0.52478
0.423164
0.342338
0.0511631
-0.147232
-0.717505
-1.25849
-2.20048
-2.64496
-3.0421
-3.259
-3.553
-3.75213
-3.98695
-4.14862
-4.33471
-4.48341
-4.64491
-4.82015
-5.01936
-5.34627
-5.59234
-5.77733
-5.88184
-5.99435
-6.05286
-0.672087
-0.657193
-0.557767
-0.481275
-0.366268
-0.234606
-0.113163
0.0223939
0.175035
0.308599
0.427597
0.492139
0.553939
0.556286
0.545659
0.444006
0.341711
0.0323122
-0.192655
-0.719109
-1.29176
-2.2612
-2.71869
-3.10132
-3.31708
-3.57517
-3.80947
-4.06825
-4.21724
-4.37557
-4.49381
-4.64445
-4.80486
-4.9887
-5.41379
-5.6124
-5.77731
-5.8934
-5.97662
-6.03191
-0.844323
-0.772783
-0.708601
-0.586518
-0.416143
-0.332002
-0.173237
-0.0291307
0.123944
0.258463
0.388374
0.504086
0.585611
0.605414
0.606168
0.529065
0.451992
0.130286
-0.132064
-0.655818
-1.26659
-2.19979
-2.65706
-3.02884
-3.26288
-3.52807
-3.72834
-3.92698
-4.07193
-4.27686
-4.40359
-4.60578
-4.71677
-4.93557
-5.46655
-5.6254
-5.75169
-5.85815
-5.93323
-5.98635
-0.941519
-0.914373
-0.850444
-0.757731
-0.563327
-0.491333
-0.355684
-0.230747
-0.049881
0.154249
0.347326
0.498499
0.629048
0.698391
0.773734
0.693524
0.564855
0.250475
-0.0190353
-0.519082
-1.05686
-1.98625
-2.40428
-2.7724
-3.0188
-3.31649
-3.5604
-3.80224
-3.97293
-4.15861
-4.30047
-4.43558
-4.59987
-4.78571
-5.34639
-5.5536
-5.64906
-5.76524
-5.84218
-5.89853
-1.10368
-1.07186
-1.01139
-0.941213
-0.753698
-0.73457
-0.573261
-0.391896
-0.171233
0.0640014
0.300293
0.527791
0.718158
0.853647
0.953705
0.919626
0.838876
0.598351
0.338204
-0.0787014
-0.58775
-1.45637
-1.9832
-2.38366
-2.69501
-3.02481
-3.31736
-3.59545
-3.8367
-4.0205
-4.20732
-4.35345
-4.48803
-4.66768
-5.13028
-5.48874
-5.56591
-5.67567
-5.75509
-5.8112
-1.2677
-1.23739
-1.18626
-1.12257
-0.964028
-0.988837
-0.760664
-0.55666
-0.316359
-0.0193101
0.297673
0.591961
0.853573
1.06969
1.25027
1.30963
1.30206
1.1487
0.896211
0.525581
0.0193594
-0.692797
-1.43847
-1.90719
-2.29048
-2.6629
-2.99645
-3.31121
-3.59025
-3.86147
-4.10795
-4.36927
-4.50755
-4.63544
-4.80943
-5.33301
-5.40985
-5.51846
-5.61289
-5.67149
-1.49613
-1.43658
-1.42308
-1.27187
-1.20612
-1.26478
-0.955553
-0.670569
-0.375509
-0.0285918
0.337543
0.704704
1.05032
1.3604
1.63077
1.79803
1.87475
1.82117
1.63341
1.34518
0.823477
0.187971
-0.855323
-1.36769
-1.8365
-2.27147
-2.63376
-3.00729
-3.34976
-3.81097
-4.04867
-4.22844
-4.43561
-4.54376
-4.83849
-5.14514
-5.32753
-5.40233
-5.47363
-5.53847
-1.68411
-1.63469
-1.60392
-1.52617
-1.48373
-1.40286
-1.1529
-0.828604
-0.579207
-0.0147428
0.441629
0.876061
1.30642
1.71521
2.06854
2.32258
2.46807
2.46531
2.29787
2.05816
1.53119
0.944866
-0.219767
-0.737287
-1.28809
-1.73646
-2.17026
-2.60664
-3.21488
-3.53229
-3.87314
-4.08152
-4.39471
-4.5281
-4.51679
-4.97498
-5.07879
-5.19961
-5.2942
-5.36163
-1.90415
-1.85688
-1.84111
-1.82581
-1.72664
-1.48806
-1.38219
-0.919555
-0.481294
0.0301134
0.315238
1.14025
1.66141
2.12184
2.58077
2.91523
3.11994
3.16249
3.00377
2.77474
2.2158
1.63396
0.487996
-0.0486519
-0.66514
-1.12259
-1.66002
-2.37132
-2.81883
-3.31377
-3.89329
-4.11937
-4.06381
-4.15629
-4.51262
-4.83109
-5.005
-4.97224
-5.04227
-5.13186
-2.152
-2.11144
-2.13726
-2.14053
-1.99896
-1.74493
-1.33949
-1.08447
-0.496162
0.0752114
0.639919
1.26846
1.83809
2.67516
3.1527
3.59211
3.85548
3.93072
3.79228
3.55722
2.98662
2.36739
1.33748
0.765826
0.129611
-0.425961
-1.14013
-1.79672
-2.37559
-3.08612
-3.18362
-3.5132
-3.7375
-3.86664
-4.0171
-4.28956
-4.82096
-4.82496
-4.88498
-4.96839
-2.39746
-2.38703
-2.42459
-2.4116
-2.24081
-1.95737
-1.48941
-0.967715
-0.354424
0.035016
0.804609
1.57331
2.27009
2.99184
3.86925
4.3454
4.67371
4.78317
4.66536
4.41932
3.84636
3.18679
2.31006
1.70448
1.00883
0.486121
-0.564875
-1.15666
-2.03004
-2.25094
-2.74495
-3.17436
-3.47737
-3.71042
-3.8295
-3.97219
-4.24722
-4.42018
-4.3523
-4.55515
-2.67941
-2.65586
-2.6694
-2.63885
-2.4882
-2.24058
-1.67457
-1.13315
-0.410616
0.349773
1.1895
1.83783
2.67656
3.46272
4.52035
5.16407
5.53867
5.70378
5.63372
5.38894
4.83293
4.20179
3.44526
2.75271
2.03711
0.952999
0.362531
-0.536016
-0.919797
-1.52975
-2.16097
-2.67684
-3.09759
-3.39632
-3.57951
-3.70694
-3.94484
-4.35338
-4.44709
-4.34016
-2.93571
-2.8995
-2.89011
-2.82489
-2.66238
-2.38286
-1.86891
-1.25166
-0.497208
0.363888
1.40041
2.41677
3.40743
3.99207
4.99995
6.01206
6.45705
6.72101
6.72063
6.48587
6.06221
5.53457
4.80565
3.99662
3.07173
2.05942
1.27419
0.800644
0.0721678
-0.742315
-1.48335
-2.15068
-2.67961
-3.07298
-3.3166
-3.44157
-3.55022
-3.73899
-3.81633
-3.97358
-3.14767
-3.13978
-3.12565
-3.0569
-2.86163
-2.58605
-2.03445
-1.36065
-0.5622
0.448063
1.62442
2.89458
4.00663
4.91614
5.75553
6.8689
7.50734
7.81199
7.94746
7.92964
7.70012
7.21042
6.44298
5.49241
4.40098
3.75835
3.01302
2.12588
1.18363
0.244282
-0.685477
-1.49415
-2.16257
-2.66115
-3.00716
-3.21165
-3.34687
-3.42678
-3.73471
-3.64645
-3.3499
-3.30582
-3.26571
-3.18071
-2.93097
-2.65555
-2.15845
-1.42663
-0.464629
0.707444
2.01577
3.35693
4.59741
5.63501
6.49049
7.73932
8.567
9.24238
9.73326
9.92164
9.73347
9.23968
8.41378
7.39813
6.43007
5.51538
4.52217
3.52484
2.46325
1.32747
0.214582
-0.753916
-1.54578
-2.14049
-2.54126
-2.76359
-2.91351
-2.88243
-2.8113
-2.88833
-3.23265
-3.13841
-3.10159
-2.97525
-2.81114
-2.55913
-2.07646
-1.31342
-0.240812
1.18995
2.80256
4.40249
5.94078
7.28502
8.35224
9.40994
10.9579
11.7811
12.115
12.2175
11.9264
11.5037
10.6403
9.57942
8.49174
7.45932
6.3817
5.19565
3.89295
2.55376
1.24693
0.113774
-0.838324
-1.54795
-2.05982
-2.31703
-2.46602
-2.47439
-2.41898
-2.4424
-2.73122
-2.66299
-2.61162
-2.42683
-2.22507
-1.99719
-1.66331
-1.00784
0.127419
1.67882
3.47826
5.308
7.04067
8.6352
10.1807
11.5571
12.8375
13.9898
14.442
14.4626
14.1273
13.9039
12.9251
11.9004
10.7566
9.60321
8.46222
7.18055
5.71734
4.16621
2.58625
1.19858
0.110774
-0.611239
-1.04369
-1.29813
-1.50187
-1.50693
-1.64091
-1.72106
-2.94282
-2.75368
-2.63065
-2.43044
-2.14593
-1.92284
-1.67481
-1.00051
0.120117
1.71332
3.64116
5.70492
7.67602
9.5913
11.5496
13.4242
14.9383
15.9945
16.6152
16.7954
16.6078
15.9805
15.0643
13.9958
12.7731
11.529
10.354
9.07834
7.51
5.76923
4.00217
2.4663
1.17423
0.262181
-0.329263
-0.592832
-0.751931
-0.685351
-0.70777
-0.809053
-3.16272
-2.95841
-2.77494
-2.55105
-2.25344
-2.04355
-1.81685
-1.15694
-0.0575696
1.58085
3.65691
5.9056
8.09308
10.3044
12.5939
14.8085
16.6618
17.7794
18.5225
18.919
18.746
18.0197
16.9121
15.6711
14.4548
12.8715
11.4451
10.1476
8.69801
7.0841
5.4734
4.10602
2.89524
1.90773
1.06341
0.580359
0.298099
0.142742
-0.00243663
-0.275079
-3.19365
-3.06615
-2.90568
-2.71618
-2.50466
-2.24815
-2.01188
-1.40766
-0.346166
1.32078
3.46297
5.78453
8.13281
10.5861
13.1235
15.5838
17.6701
19.0445
19.8486
20.3152
20.2037
19.5951
18.7738
17.207
15.6568
14.0329
12.3333
10.8452
9.37948
7.86193
6.23435
4.88002
3.73192
2.92214
2.41781
2.21242
2.04739
1.96842
1.908
1.79184
-3.2098
-3.07514
-2.94033
-2.76705
-2.57915
-2.25299
-2.05627
-1.60217
-0.631283
0.96403
3.04822
5.36046
7.78544
10.3549
13.033
15.6598
17.9936
19.6851
20.7147
21.1867
21.1146
20.5748
20.0161
18.8576
16.9049
14.8368
13.0897
11.5479
10.0132
8.59631
7.11688
5.76517
4.56724
3.72907
3.14853
2.81557
2.5769
2.44335
2.3854
2.10201
-3.18697
-3.09962
-2.97451
-2.84134
-2.69328
-2.40395
-2.28618
-1.93527
-1.0728
0.389293
2.34452
4.57426
6.97506
9.54683
12.2113
14.8993
17.3859
19.3797
20.758
21.3454
21.5259
21.1895
20.6872
19.7434
18.0223
15.7461
13.7919
12.0051
10.4645
9.05142
7.64105
6.37892
5.19598
4.36742
3.70641
3.32157
3.0083
2.88689
2.81916
2.65074
-3.06178
-3.00977
-2.90184
-2.79991
-2.71881
-2.57337
-2.46408
-2.24393
-1.54795
-0.289372
1.43968
3.49457
5.76657
8.23912
10.8125
13.4003
15.9551
18.1948
20.0108
21.078
21.718
21.6095
21.1408
20.1864
18.6089
16.6665
14.4788
12.6037
10.7711
9.40729
8.0633
6.93572
5.84308
5.06516
4.35379
3.88909
3.45344
3.16607
3.01459
2.76215
-2.9707
-2.89243
-2.85011
-2.80388
-2.78509
-2.6959
-2.65242
-2.58415
-2.06783
-1.04348
0.395909
2.1865
4.23066
6.50871
8.90405
11.3511
13.9532
16.418
18.688
20.1026
20.9251
21.3987
21.1956
20.3435
18.9553
17.141
14.9359
13.2472
11.1973
9.59274
8.41259
7.23598
6.11598
5.35877
4.6391
4.21666
3.77478
3.56436
3.42332
3.34363
-2.73679
-2.64827
-2.64587
-2.6351
-2.71604
-2.71827
-2.66445
-2.68568
-2.36531
-1.57853
-0.46199
0.967415
2.67139
4.6843
6.85786
9.12217
11.7198
14.2729
16.5526
17.8109
19.3047
20.3852
20.7892
20.1075
18.8841
17.2887
15.4003
13.3718
11.4885
9.47519
8.32162
6.72384
5.26871
4.39473
3.64208
3.25923
2.80787
2.65733
2.68006
2.63698
-2.51565
-2.45247
-2.44432
-2.48581
-2.62506
-2.7317
-2.82221
-2.80809
-2.55608
-1.96227
-1.13132
-0.0647869
1.27381
2.99023
4.96798
6.99948
9.20992
11.5537
13.6269
15.313
17.8696
19.4576
19.9657
19.6997
18.7348
17.2957
15.6307
13.8473
11.6234
9.93783
8.78474
7.28981
5.99085
5.1825
4.34997
3.89728
3.2757
3.10037
2.97309
2.94046
-2.16218
-2.13514
-2.12078
-2.1514
-2.36296
-2.53503
-2.65686
-2.67078
-2.48633
-2.06526
-1.50022
-0.698961
0.358768
1.74659
3.45211
5.32481
7.33001
9.56391
11.8896
13.939
16.7848
18.5539
19.138
18.9549
18.3446
17.2039
15.7967
14.1512
12.1182
10.414
9.2698
8.0389
6.71578
5.94811
5.11639
4.69023
4.05887
4.02337
3.80204
3.87289
-1.90171
-1.89046
-1.87881
-1.88268
-2.09528
-2.34454
-2.48944
-2.53583
-2.31373
-2.05636
-1.62862
-0.993461
-0.145666
1.00212
2.48465
4.21021
6.28173
8.56058
10.8712
13.064
15.8975
17.2913
18.2077
18.143
17.7568
16.9505
15.929
14.3846
11.9733
10.6906
9.67462
8.67387
7.34291
6.7324
5.80895
5.52048
4.8676
4.97101
4.71805
4.95679
-1.48569
-1.47978
-1.48298
-1.4477
-1.60204
-1.88152
-2.08645
-2.15394
-1.97867
-1.64777
-1.35346
-0.805314
-0.0598505
0.957095
2.26994
3.93678
6.02769
8.12167
10.3718
12.4989
14.7469
16.1684
17.287
17.3399
17.1756
16.6432
15.9232
14.1862
12.0231
10.8493
9.75056
9.25429
8.07194
7.17886
6.50084
6.24435
5.57462
5.84836
5.55215
6.01194
-1.23919
-1.25846
-1.21904
-1.21231
-1.22324
-1.46165
-1.67378
-1.74541
-1.53018
-1.24418
-0.889338
-0.369788
0.342164
1.33062
2.56521
4.16705
6.02429
7.88032
10.0188
11.8181
13.6018
15.0171
16.2868
16.4498
16.48
16.1279
15.5931
13.8353
11.9743
10.9414
9.82118
9.30005
8.36206
7.82478
6.86331
6.89012
6.08443
6.52478
6.16635
6.94896
-0.799537
-0.782809
-0.799614
-0.72391
-0.702117
-0.768456
-1.01506
-0.981743
-0.879866
-0.54136
-0.197824
0.337569
1.02977
1.96853
3.16591
4.60425
6.17133
7.78022
9.68676
10.9935
12.5923
13.9846
15.2851
15.567
15.7826
15.5948
15.2177
13.5101
11.724
10.9588
9.84315
9.39002
8.4366
8.35935
7.32059
7.38768
6.54723
7.23279
6.57285
7.93043
-0.626565
-0.636169
-0.584816
-0.570277
-0.444888
-0.355156
-0.523645
-0.44335
-0.324357
0.000135781
0.397388
0.939918
1.65379
2.52607
3.62388
4.88113
6.18321
7.58249
8.9802
10.2841
11.7076
12.9589
14.2234
14.6863
15.0918
15.0219
14.7641
13.2009
11.3853
10.6551
9.7403
9.3588
8.41907
8.37192
7.41576
7.79445
6.69094
7.47022
6.82951
8.74691
-0.240026
-0.185712
-0.174426
-0.0607451
-0.0733291
0.301477
0.104496
0.272304
0.372025
0.690628
0.963325
1.43549
2.08471
2.8614
3.88355
5.01106
6.13372
7.39962
8.60692
9.78501
11.0262
12.1254
13.4007
14.0252
14.5614
14.6319
14.4113
12.9212
11.0537
10.3216
9.41379
9.26447
8.4455
8.56364
7.61439
8.14165
7.0231
8.23394
7.00562
10.2773
-0.0622362
-0.171881
-0.0593185
-0.0298161
0.125409
0.360396
0.420079
0.626914
0.78711
1.0934
1.3997
1.86384
2.37737
3.0579
3.87804
4.93179
6.05939
7.13571
8.19784
9.31033
10.4517
11.3864
12.5255
13.3869
13.9951
14.3033
14.025
12.6474
10.7503
9.99741
9.07639
8.98734
8.18862
8.50755
7.54658
8.29453
7.15168
8.64029
7.41019
12.4113
-0.202412
0.229335
0.153922
0.505453
0.539123
0.88702
0.881187
1.16533
1.24509
1.56573
1.83238
2.27499
2.78081
3.44082
4.14
5.00186
6.03238
7.07196
8.13762
9.19301
10.2021
11.0919
12.2214
13.0504
13.6583
14.1174
13.7652
12.3599
10.5093
9.69801
8.82669
8.79192
8.05219
8.59884
7.78678
8.89362
8.05433
10.3572
10.274
18.0802
0.248064
-0.179848
0.00840751
0.0780833
0.478747
0.861906
1.0259
1.3135
1.47781
1.80346
2.08517
2.49342
2.95085
3.57697
4.20117
4.99588
5.98283
7.0068
8.05484
9.17309
10.1259
10.8747
11.7204
12.7293
13.3772
14.0225
13.5927
12.212
10.3838
9.5482
8.61919
8.65997
7.87172
8.55052
7.74664
9.0611
8.41721
11.9561
14.0955
25.6348
-2.38956
0.427191
0.215005
0.713046
0.896931
1.25238
1.35024
1.64571
1.77284
2.08057
2.34375
2.74282
3.17515
3.7483
4.31676
5.07519
5.97819
6.94972
8.03329
9.2208
10.1458
10.9881
11.8456
12.8295
13.4421
14.022
13.3895
11.9534
10.1142
9.21543
8.40297
8.64969
8.05786
8.77721
8.21089
10.0363
10.5056
16.5982
24.0741
42.2015
-0.28488
-0.30782
-0.312273
-0.293247
-0.251429
-0.184054
-0.120354
-0.0393893
0.0509582
0.112647
0.196331
0.247439
0.275825
0.264779
0.244764
0.152072
0.113398
-0.2455
-0.38178
-0.818348
-1.08578
-2.03383
-2.28789
-2.63996
-2.79814
-3.01937
-3.15901
-3.38421
-3.59199
-3.87193
-4.05321
-4.42621
-4.76485
-5.12657
-5.45483
-5.68577
-5.87715
-6.03896
-6.20245
-6.19829
-0.368036
-0.369561
-0.359648
-0.324371
-0.264181
-0.184509
-0.113529
-0.0268011
0.0752498
0.146026
0.260076
0.329682
0.404629
0.404224
0.400055
0.306677
0.236176
-0.05159
-0.192009
-0.716755
-1.12007
-1.9852
-2.36987
-2.72604
-2.88406
-3.10301
-3.25105
-3.49221
-3.71325
-3.98842
-4.23455
-4.56273
-4.86925
-5.06975
-5.42892
-5.6313
-5.8406
-5.99665
-6.12376
-6.17269
-0.443899
-0.433792
-0.406144
-0.345217
-0.28955
-0.159259
-0.142992
0.00154049
0.120336
0.237878
0.343866
0.406839
0.463517
0.458066
0.435217
0.342511
0.273586
-0.0117967
-0.18806
-0.807776
-1.30252
-2.27212
-2.72277
-3.13657
-3.3177
-3.56199
-3.69973
-3.93241
-4.1197
-4.27513
-4.51325
-4.74707
-4.98059
-5.25752
-5.56365
-5.65551
-5.85766
-5.98901
-6.10658
-6.16101
-0.558196
-0.530914
-0.497029
-0.422119
-0.326664
-0.207119
-0.104041
0.0376732
0.17023
0.298368
0.403119
0.473957
0.513684
0.502896
0.50238
0.420859
0.305167
-0.0107895
-0.253597
-0.920279
-1.51277
-2.47639
-2.98802
-3.40294
-3.60006
-3.84114
-3.9823
-4.25206
-4.39607
-4.56326
-4.63825
-4.80765
-5.02764
-5.25683
-5.54147
-5.72067
-5.92427
-5.9777
-6.09156
-6.14525
-0.663581
-0.628941
-0.540341
-0.494487
-0.377443
-0.244999
-0.11782
0.0197354
0.174803
0.307697
0.414658
0.462922
0.510048
0.518057
0.526152
0.413684
0.277343
-0.0573695
-0.319684
-1.03414
-1.59778
-2.55584
-3.02364
-3.4708
-3.71396
-4.00494
-4.09598
-4.31481
-4.42933
-4.55388
-4.66577