/*--------------------------------*- C++ -*----------------------------------*\
| =========                 |                                                 |
| \\      /  F ield         | OpenFOAM: The Open Source CFD Toolbox           |
|  \\    /   O peration     | Version:  v1806                                 |
|   \\  /    A nd           | Web:      www.OpenFOAM.com                      |
|    \\/     M anipulation  |                                                 |
\*---------------------------------------------------------------------------*/
FoamFile
{
    version     2.0;
    format      ascii;
    class       volVectorField;
    location    "0.076";
    object      U_0;
}
// * * * * * * * * * * * * * * * * * * * * * * * * * * * * * * * * * * * * * //

dimensions      [0 1 -1 0 0 0 0];


internalField   nonuniform List<vector> 
64000
(
(-0.00940798 -0.0104799 -0.00706791)
(0.0138118 -0.0106072 -0.00450573)
(0.0198321 -0.00359241 0.0007662)
(0.0238386 -0.00341846 0.00130687)
(0.0246933 -0.00250493 0.00172348)
(0.0248131 -0.0027481 0.00249765)
(0.0243103 -0.00351391 0.00275751)
(0.0209123 -0.0039478 0.00300485)
(0.0196069 -0.00490241 0.00445922)
(0.0124031 -0.00443021 0.00380621)
(0.00712846 -0.00523502 0.00631298)
(-0.00603031 -0.00894983 0.00619613)
(-0.0259124 -0.0126582 0.00636573)
(-0.0495016 -0.0178293 0.00394819)
(-0.079444 -0.0181583 0.00502846)
(-0.115068 -0.0163447 0.00261447)
(-0.145328 0.000534377 0.00192722)
(-0.189412 -0.00443018 -0.002565)
(-0.190426 -0.00985295 0.00568321)
(-0.250186 -0.0284461 -0.0155334)
(-0.21654 -0.0229095 -0.0235087)
(-0.105849 -0.0243073 -0.0391226)
(-0.105482 -0.00954916 -0.0263226)
(-0.101383 -0.00391403 -0.0372362)
(-0.117204 0.00263396 -0.0480032)
(-0.111714 0.0109639 -0.0572754)
(-0.0995978 0.0209009 -0.0620159)
(-0.0644522 0.0321906 -0.0576185)
(-0.031625 0.0383919 -0.0534281)
(0.0119006 0.0524053 -0.0364057)
(0.0592223 0.0459754 -0.0320906)
(0.0932776 0.037747 -0.0236128)
(0.109339 0.0268301 -0.0119517)
(0.105229 0.0133349 -0.00451506)
(0.091371 0.00498304 0.00157193)
(0.0721611 -0.00311343 0.00416956)
(0.0519874 -0.0068007 0.0056633)
(0.0311021 -0.0059541 0.00652341)
(0.0166254 -0.00437382 0.00693779)
(0.00228571 -0.00277594 0.00476574)
(-0.00695229 0.000817915 -0.00335793)
(0.00876223 -0.0166292 -0.00313896)
(0.0240333 -0.0112709 -0.00123455)
(0.0335015 -0.00802365 -0.000713242)
(0.0388578 -0.0031613 -0.000825138)
(0.0388143 -0.000801852 -0.00146292)
(0.0372735 0.00324808 -0.00296422)
(0.0298564 0.00490065 -0.00277333)
(0.0229186 0.0106279 -0.0070272)
(0.00517427 0.0161864 -0.00437328)
(-0.019117 0.0249897 -0.00809634)
(-0.0560452 0.0313619 0.000413545)
(-0.103998 0.04255 -0.00400281)
(-0.155934 0.063046 -0.00685214)
(-0.215112 0.0761129 -0.011114)
(-0.272955 0.0850653 -0.0181828)
(-0.354244 0.0929171 -0.0434795)
(-0.459196 0.0951633 -0.0584563)
(-0.508888 0.101031 -0.0759234)
(-0.59269 0.0987901 -0.0990546)
(-0.545117 0.126035 -0.0986949)
(-0.407872 0.140967 -0.126703)
(-0.388823 0.186261 -0.137236)
(-0.371595 0.211351 -0.146473)
(-0.360033 0.236628 -0.157858)
(-0.321825 0.258328 -0.163927)
(-0.271712 0.279134 -0.165263)
(-0.201169 0.29501 -0.153657)
(-0.124499 0.300822 -0.133663)
(-0.0538243 0.307171 -0.109846)
(0.0119765 0.289526 -0.0756578)
(0.0762168 0.259367 -0.0471243)
(0.112549 0.209586 -0.0388096)
(0.124708 0.159319 -0.0265947)
(0.119215 0.108359 -0.0127821)
(0.0999873 0.0686897 -0.00525809)
(0.0800694 0.0401326 -0.00084645)
(0.0548992 0.02556 0.000169354)
(0.0328413 0.015774 0.00173954)
(0.00811757 0.0073548 0.00210115)
(-0.000647684 -0.00675506 0.00149021)
(0.0148573 -0.0228825 -0.00147804)
(0.0317462 -0.017931 -0.0024561)
(0.0420758 -0.0056868 -0.00328518)
(0.0443785 0.00481623 -0.00516146)
(0.0417911 0.0161309 -0.00664745)
(0.0342267 0.0315674 -0.00788925)
(0.0201398 0.0457079 -0.00956906)
(0.00412725 0.0696307 -0.00199997)
(-0.0262874 0.0899639 -0.00480494)
(-0.0644835 0.117207 -0.00813273)
(-0.11764 0.149743 -0.013308)
(-0.172535 0.183471 -0.0174056)
(-0.250909 0.211065 -0.0321774)
(-0.349554 0.230278 -0.0350867)
(-0.445717 0.243904 -0.0422898)
(-0.532509 0.248656 -0.0587878)
(-0.619714 0.26935 -0.0769559)
(-0.66395 0.298749 -0.0946793)
(-0.732212 0.332422 -0.116273)
(-0.670802 0.370726 -0.108064)
(-0.507284 0.399603 -0.123894)
(-0.464651 0.456429 -0.126209)
(-0.436571 0.48841 -0.123446)
(-0.415865 0.520559 -0.12581)
(-0.373652 0.542707 -0.124104)
(-0.323059 0.556812 -0.119582)
(-0.258011 0.560594 -0.104731)
(-0.19077 0.550556 -0.0829758)
(-0.126158 0.530971 -0.0593258)
(-0.0698778 0.500757 -0.039978)
(-0.0271709 0.452486 -0.0277931)
(0.00715998 0.379671 -0.0161013)
(0.0296741 0.307151 -0.0081289)
(0.0415931 0.227444 -0.011055)
(0.0476677 0.162515 -0.0108786)
(0.0475263 0.114512 -0.00710499)
(0.0384443 0.0771739 -0.00485002)
(0.0272578 0.0510925 -0.00107496)
(0.0080261 0.024351 0.00177014)
(0.000297379 -0.0112236 0.0023405)
(0.0170286 -0.0247595 -0.00111386)
(0.038202 -0.0118129 -0.00297276)
(0.0461155 0.00610264 -0.00627324)
(0.0438983 0.0299227 -0.00692036)
(0.0392765 0.0549827 -0.00886418)
(0.0261836 0.0902452 -0.00875301)
(0.00691506 0.122802 -0.00556586)
(-0.0203021 0.167679 -0.0105218)
(-0.0658384 0.207912 -0.0128821)
(-0.111834 0.251991 -0.0171382)
(-0.176971 0.287155 -0.0244605)
(-0.263012 0.315045 -0.0268961)
(-0.354282 0.331206 -0.0288176)
(-0.440733 0.352345 -0.0311363)
(-0.519714 0.376851 -0.0366669)
(-0.590592 0.406725 -0.0510948)
(-0.66449 0.4359 -0.0604798)
(-0.694495 0.476158 -0.0697077)
(-0.748084 0.519712 -0.0774047)
(-0.675329 0.553388 -0.0499947)
(-0.491185 0.573112 -0.0463811)
(-0.434405 0.615733 -0.0412279)
(-0.406842 0.62416 -0.0294779)
(-0.38757 0.637249 -0.0265391)
(-0.354682 0.638278 -0.0213155)
(-0.315826 0.6307 -0.0178523)
(-0.267674 0.612524 -0.0105353)
(-0.218017 0.587123 0.00131852)
(-0.173165 0.555125 0.00851959)
(-0.141372 0.515296 0.0137778)
(-0.116977 0.471276 0.0122932)
(-0.0937699 0.41441 0.00679561)
(-0.071675 0.350279 -0.00142972)
(-0.0491289 0.270689 -0.0051728)
(-0.0200617 0.202101 -0.0102713)
(5.71643e-05 0.146755 -0.0103749)
(0.00896824 0.110346 -0.00775661)
(0.0170664 0.0768771 -0.00326833)
(0.00638699 0.0363503 0.00144867)
(0.000829388 -0.0116649 0.000801525)
(0.0233633 -0.0143439 -0.00440615)
(0.0464557 0.00313361 -0.0071123)
(0.0545995 0.0381833 -0.00817639)
(0.0518675 0.0765558 -0.00738954)
(0.0457997 0.122624 -0.0150021)
(0.0265545 0.178273 -0.0123218)
(-0.000924707 0.237264 -0.0059564)
(-0.0337717 0.292334 -0.0077389)
(-0.0877387 0.336974 -0.00981635)
(-0.150481 0.371513 -0.0125228)
(-0.230264 0.390783 -0.0151827)
(-0.30383 0.413323 -0.0160579)
(-0.378124 0.4394 -0.0213002)
(-0.451698 0.470027 -0.0198525)
(-0.518846 0.502664 -0.0212321)
(-0.576532 0.530458 -0.0245335)
(-0.63084 0.567081 -0.0214613)
(-0.641452 0.610562 -0.0174531)
(-0.681309 0.655838 -0.0261226)
(-0.609392 0.68401 0.00191355)
(-0.418779 0.689626 0.0149475)
(-0.357964 0.703102 0.0259693)
(-0.339465 0.6792 0.0365221)
(-0.332052 0.661718 0.0374739)
(-0.318522 0.636269 0.043438)
(-0.299988 0.604085 0.0447042)
(-0.270139 0.568008 0.0487808)
(-0.241113 0.527257 0.0421231)
(-0.216437 0.488259 0.0343175)
(-0.195936 0.443979 0.0243682)
(-0.186516 0.411096 0.0169891)
(-0.179025 0.3748 0.00916999)
(-0.174152 0.343988 -0.00276127)
(-0.152183 0.278821 -0.0129857)
(-0.103626 0.208606 -0.0140334)
(-0.0521868 0.16055 -0.013445)
(-0.0167497 0.129934 -0.0114983)
(0.00292832 0.0953588 -0.00586029)
(0.00350969 0.0456462 0.00141617)
(0.00554633 -0.00724531 -0.000293042)
(0.0286814 0.000626252 -0.00590255)
(0.0609023 0.0267285 -0.00572212)
(0.0737648 0.0789088 -0.00954976)
(0.0676022 0.136817 -0.0144299)
(0.0633625 0.201182 -0.0183616)
(0.0455544 0.276543 -0.0136966)
(0.00858131 0.32664 -0.00392297)
(-0.0464702 0.370068 -0.00529913)
(-0.118121 0.403191 -0.00720586)
(-0.185692 0.432768 -0.00927686)
(-0.24917 0.461785 -0.00946769)
(-0.308741 0.496222 -0.00761987)
(-0.366711 0.52395 -0.00471363)
(-0.417823 0.554036 0.00145371)
(-0.469421 0.582407 0.00646506)
(-0.503194 0.612749 0.00842067)
(-0.537503 0.644552 0.00853867)
(-0.543019 0.690627 0.0105745)
(-0.570172 0.724489 0.0089058)
(-0.501023 0.749114 0.0355793)
(-0.326915 0.700692 0.050356)
(-0.282367 0.683271 0.0606954)
(-0.285338 0.62876 0.0738642)
(-0.29314 0.587273 0.0768289)
(-0.298102 0.54539 0.0769801)
(-0.295805 0.502297 0.0743231)
(-0.286206 0.461354 0.0682975)
(-0.27109 0.414294 0.0659382)
(-0.260423 0.37654 0.0454574)
(-0.250666 0.333526 0.0345241)
(-0.240126 0.303054 0.020282)
(-0.226718 0.278079 0.00865384)
(-0.23521 0.265668 -0.00302759)
(-0.240238 0.241527 -0.0154769)
(-0.174694 0.19259 -0.0139904)
(-0.0927382 0.161487 -0.0150462)
(-0.0404165 0.135066 -0.0118128)
(-0.00459053 0.10339 -0.00670805)
(0.00251261 0.0489376 0.00194334)
(0.00772141 -0.00172143 0.000431149)
(0.0385095 0.0128197 -0.0100169)
(0.0810324 0.0531135 -0.00975749)
(0.105525 0.107869 -0.011551)
(0.100918 0.1715 -0.0153528)
(0.0978773 0.246254 -0.0181967)
(0.0535559 0.307141 -0.0100978)
(-0.0117489 0.338549 0.00235942)
(-0.0598688 0.38201 -0.00258489)
(-0.116748 0.42251 -0.00324427)
(-0.165844 0.468462 -0.00334135)
(-0.216949 0.510626 -0.00156629)
(-0.26371 0.549365 0.00165245)
(-0.310491 0.582854 0.00697091)
(-0.350831 0.615341 0.0143919)
(-0.385299 0.640386 0.0199164)
(-0.409652 0.667298 0.0258266)
(-0.426632 0.680068 0.0292537)
(-0.419516 0.705014 0.0262594)
(-0.440883 0.719632 0.0171648)
(-0.43067 0.738517 0.0323098)
(-0.290489 0.633292 0.0535556)
(-0.23225 0.584239 0.057808)
(-0.252074 0.52353 0.0706167)
(-0.269839 0.480644 0.0713991)
(-0.291205 0.442729 0.0711724)
(-0.304701 0.407262 0.0673633)
(-0.311528 0.373301 0.060519)
(-0.309814 0.336736 0.0477422)
(-0.310862 0.302679 0.032424)
(-0.308022 0.270013 0.0194136)
(-0.300004 0.242234 0.00730117)
(-0.287099 0.2229 -0.0019291)
(-0.284251 0.207293 -0.00877878)
(-0.288032 0.217815 -0.0180513)
(-0.226671 0.193018 -0.0206435)
(-0.127447 0.166665 -0.0218088)
(-0.0559578 0.146016 -0.0168104)
(-0.00984156 0.112086 -0.0106578)
(0.0024276 0.0535258 0.000196531)
(0.00715475 0.0054955 -0.00330072)
(0.0453239 0.0319823 -0.0134425)
(0.0995356 0.081237 -0.0136965)
(0.124849 0.136852 -0.0110496)
(0.12876 0.195461 -0.0119617)
(0.113412 0.267393 -0.0122293)
(0.0520416 0.296647 -0.00128116)
(0.00355654 0.348328 0.00517661)
(-0.0305653 0.39505 0.00129504)
(-0.0806998 0.448434 0.00271997)
(-0.123224 0.49232 0.0037129)
(-0.166071 0.529456 0.00986423)
(-0.202192 0.562551 0.0159271)
(-0.233171 0.589403 0.0235412)
(-0.261294 0.614508 0.0280053)
(-0.28967 0.62979 0.0321442)
(-0.309019 0.640958 0.0348276)
(-0.327228 0.641199 0.0340593)
(-0.325979 0.635752 0.0311161)
(-0.34145 0.615502 0.0146672)
(-0.38216 0.619176 0.0157744)
(-0.29394 0.539975 0.0346123)
(-0.220676 0.457452 0.0373453)
(-0.24091 0.417475 0.0488041)
(-0.265874 0.381042 0.0527272)
(-0.296979 0.356577 0.0541971)
(-0.320672 0.330327 0.0551943)
(-0.3385 0.304898 0.0481919)
(-0.348007 0.276838 0.0392054)
(-0.356075 0.246988 0.0173615)
(-0.357575 0.215463 0.00924995)
(-0.34822 0.191012 5.49157e-05)
(-0.334121 0.17798 -0.00791084)
(-0.318173 0.169654 -0.01171)
(-0.326206 0.191323 -0.0211902)
(-0.276632 0.196187 -0.0207252)
(-0.16144 0.172043 -0.0224929)
(-0.0743683 0.155187 -0.0176189)
(-0.014949 0.119338 -0.0103254)
(0.00354871 0.0571969 0.000972378)
(0.00615882 0.016587 -0.00584644)
(0.0535216 0.0626087 -0.0178875)
(0.119477 0.119027 -0.0193823)
(0.151043 0.174386 -0.0132661)
(0.158624 0.235843 -0.0141898)
(0.126805 0.285259 -0.0115513)
(0.0700133 0.322384 -0.00245307)
(0.0322437 0.379261 0.00506454)
(0.00397596 0.417104 0.0111083)
(-0.0311457 0.457612 0.0110026)
(-0.0708855 0.495836 0.0152246)
(-0.102489 0.522578 0.0207404)
(-0.128652 0.54527 0.0278435)
(-0.153801 0.557968 0.034068)
(-0.177564 0.562201 0.0362169)
(-0.202938 0.558901 0.0367646)
(-0.225428 0.552124 0.0354986)
(-0.252077 0.537037 0.0308499)
(-0.27293 0.523085 0.024806)
(-0.291168 0.49187 0.00996767)
(-0.343258 0.481183 -0.000310674)
(-0.316995 0.452001 0.0101978)
(-0.240988 0.353499 0.0190014)
(-0.239798 0.336514 0.0251026)
(-0.270052 0.310768 0.0329828)
(-0.304951 0.296519 0.0373833)
(-0.33809 0.278538 0.0425952)
(-0.363235 0.256747 0.0388376)
(-0.382968 0.233149 0.0240725)
(-0.400399 0.200237 0.00902649)
(-0.403195 0.175755 -0.000790896)
(-0.390603 0.152782 -0.00609394)
(-0.37556 0.13934 -0.011903)
(-0.348629 0.140693 -0.0198766)
(-0.339029 0.15374 -0.0238566)
(-0.306012 0.190783 -0.0286575)
(-0.197036 0.17429 -0.0264985)
(-0.0896875 0.164356 -0.0246029)
(-0.0199434 0.129106 -0.0136797)
(0.00443891 0.0631045 -0.0012077)
(0.00767102 0.0331308 -0.0087738)
(0.0625615 0.10147 -0.0256108)
(0.13772 0.162054 -0.0247505)
(0.1762 0.215729 -0.0151674)
(0.177367 0.268633 -0.0149579)
(0.145137 0.301299 -0.0136955)
(0.103 0.348971 -0.00317993)
(0.0703142 0.395509 0.00878451)
(0.039534 0.432725 0.0155952)
(0.0153399 0.45944 0.0261271)
(-0.0118251 0.481737 0.0229138)
(-0.0430562 0.494816 0.0333425)
(-0.0660427 0.503347 0.0383043)
(-0.0893061 0.493828 0.0439112)
(-0.11295 0.478599 0.0437245)
(-0.139728 0.455646 0.0405668)
(-0.167343 0.43224 0.0353123)
(-0.19812 0.406909 0.0277832)
(-0.22873 0.390235 0.0193493)
(-0.261135 0.372318 0.00452109)
(-0.315733 0.357577 -0.00804956)
(-0.340689 0.356934 -0.00720244)
(-0.272085 0.291005 0.00786829)
(-0.237175 0.281495 0.0106432)
(-0.271233 0.263971 0.0211631)
(-0.306116 0.256268 0.0286205)
(-0.345578 0.237316 0.0377365)
(-0.377946 0.220676 0.0322609)
(-0.406338 0.190929 0.0247473)
(-0.422028 0.164629 0.00964205)
(-0.42757 0.136731 0.0109556)
(-0.423215 0.115343 0.0173687)
(-0.403625 0.0959727 0.0142683)
(-0.379384 0.0978359 0.00888977)
(-0.359745 0.111515 -0.0132455)
(-0.328805 0.160018 -0.0244456)
(-0.227423 0.171722 -0.0249818)
(-0.107157 0.164291 -0.0215145)
(-0.0257781 0.136885 -0.0126924)
(0.00552903 0.0673558 -6.77525e-06)
(0.00878878 0.0549915 -0.0113278)
(0.0708449 0.143947 -0.0318815)
(0.155318 0.208321 -0.0310865)
(0.198405 0.256859 -0.0181257)
(0.195906 0.294206 -0.0117825)
(0.17062 0.328316 -0.0135877)
(0.141797 0.368897 -0.00301465)
(0.110847 0.405849 0.00476965)
(0.085392 0.434096 0.0130192)
(0.0573246 0.454895 0.0287201)
(0.0288067 0.459639 0.0371119)
(0.0120164 0.460437 0.047101)
(-0.0119497 0.447578 0.0468726)
(-0.0421976 0.426498 0.0500774)
(-0.0687044 0.397876 0.0480817)
(-0.100086 0.366135 0.0414259)
(-0.132679 0.336331 0.0330963)
(-0.167814 0.30948 0.0241919)
(-0.202082 0.294079 0.0155773)
(-0.241045 0.279309 0.00247995)
(-0.293395 0.271027 -0.00739012)
(-0.333436 0.275366 -0.0115512)
(-0.275882 0.258925 0.00100102)
(-0.230719 0.245016 0.00157739)
(-0.259585 0.233001 0.0140092)
(-0.297953 0.221278 0.022722)
(-0.342606 0.206071 0.0319293)
(-0.379673 0.183629 0.0301149)
(-0.411844 0.157859 0.0197009)
(-0.435223 0.128394 0.0302547)
(-0.449498 0.0940142 0.0315539)
(-0.451392 0.0658251 0.0183936)
(-0.437957 0.0517505 0.0131623)
(-0.40442 0.0484966 0.0053903)
(-0.367124 0.0636853 -0.000465448)
(-0.336414 0.110167 -0.022346)
(-0.251322 0.151054 -0.0284625)
(-0.124563 0.160436 -0.0235611)
(-0.028664 0.140749 -0.0150165)
(0.00482406 0.0717001 -0.0016463)
(0.0095144 0.0741952 -0.0119872)
(0.0768629 0.184783 -0.0357668)
(0.168223 0.251813 -0.0341959)
(0.21149 0.288768 -0.0176827)
(0.215223 0.317303 -0.00991169)
(0.199934 0.349333 -0.00705171)
(0.176607 0.380729 -0.00548453)
(0.149726 0.405028 0.00786736)
(0.123004 0.424823 0.0128615)
(0.0987803 0.433232 0.0250143)
(0.0757158 0.436003 0.036478)
(0.0472729 0.42471 0.0517695)
(0.0221604 0.398015 0.0554795)
(-0.00270358 0.363911 0.0547963)
(-0.0351202 0.332445 0.048409)
(-0.0697993 0.299244 0.0386105)
(-0.107037 0.272489 0.0276279)
(-0.142076 0.250417 0.0185613)
(-0.180544 0.241878 0.00913195)
(-0.224024 0.230142 2.33533e-05)
(-0.271077 0.227988 -0.00782025)
(-0.308077 0.22986 -0.0115538)
(-0.258833 0.23977 -0.00211124)
(-0.213667 0.221804 -0.0028722)
(-0.240141 0.205492 0.00908147)
(-0.275858 0.189168 0.0185744)
(-0.32361 0.171561 0.0260921)
(-0.36432 0.148733 0.021456)
(-0.400945 0.121452 0.0380517)
(-0.433932 0.0868569 0.0452879)
(-0.455855 0.0538217 0.0399844)
(-0.457421 0.0282085 0.0509961)
(-0.450303 0.00498578 0.0396858)
(-0.433676 0.00141168 0.0341846)
(-0.396788 0.0109852 0.0248689)
(-0.35285 0.057724 0.00383769)
(-0.264132 0.112296 -0.0250649)
(-0.138535 0.148634 -0.0250307)
(-0.0347006 0.139248 -0.0143646)
(0.00595054 0.0748918 -0.00160929)
(0.01019 0.0949732 -0.011342)
(0.0809327 0.224987 -0.0384097)
(0.172891 0.292672 -0.037264)
(0.222167 0.321423 -0.0187175)
(0.236988 0.343707 -0.00589052)
(0.229131 0.367097 0.000137238)
(0.208006 0.388714 0.00457939)
(0.183365 0.402742 0.00553386)
(0.161936 0.411971 0.0162063)
(0.138394 0.413459 0.0263249)
(0.111337 0.403749 0.03569)
(0.0844674 0.384392 0.0426384)
(0.0511597 0.355811 0.0553929)
(0.0205616 0.318749 0.0552653)
(-0.00842569 0.279297 0.047047)
(-0.0458913 0.252766 0.0334639)
(-0.084511 0.228178 0.0215701)
(-0.118653 0.212567 0.0132245)
(-0.157432 0.205681 0.00418253)
(-0.199965 0.19972 -0.00127792)
(-0.24151 0.199678 -0.00760529)
(-0.265178 0.202702 -0.00884453)
(-0.222466 0.232456 -0.00256524)
(-0.193357 0.206923 -0.00362606)
(-0.212906 0.179748 0.00543907)
(-0.247389 0.157104 0.0137561)
(-0.292631 0.132387 0.0185705)
(-0.335556 0.110223 0.0314196)
(-0.379957 0.0776369 0.0438975)
(-0.417598 0.0465013 0.04677)
(-0.440545 0.0139109 0.0662346)
(-0.46658 -0.0235599 0.0469157)
(-0.473848 -0.0645245 0.0351843)
(-0.456389 -0.0851997 0.0138756)
(-0.415958 -0.0726073 0.00438322)
(-0.371045 -0.0239446 0.00879433)
(-0.285316 0.0611826 -0.0023505)
(-0.152802 0.117628 -0.0310979)
(-0.0396398 0.132032 -0.0144231)
(0.00623453 0.0766408 -0.00317875)
(0.00927203 0.101114 -0.0104401)
(0.0793166 0.248283 -0.0406332)
(0.173369 0.319535 -0.0413337)
(0.228403 0.345575 -0.0218508)
(0.25396 0.359448 -0.00345657)
(0.253306 0.370323 0.00631719)
(0.234215 0.381912 0.0125134)
(0.21134 0.390221 0.0160366)
(0.190923 0.39537 0.0190632)
(0.168063 0.389606 0.0231268)
(0.14395 0.374724 0.0294488)
(0.112079 0.350131 0.0399875)
(0.0782223 0.317218 0.041961)
(0.0416557 0.283852 0.049868)
(0.0110893 0.245909 0.044904)
(-0.0210397 0.21657 0.0265606)
(-0.0624779 0.19771 0.0159385)
(-0.0931468 0.184829 0.00864002)
(-0.129775 0.178681 0.000868567)
(-0.168157 0.17489 -0.00213811)
(-0.202133 0.172568 -0.00595534)
(-0.201657 0.195164 -0.00159714)
(-0.173711 0.215087 -0.00229888)
(-0.174734 0.186074 -0.00162205)
(-0.190088 0.153 0.00262784)
(-0.215363 0.119681 0.00974021)
(-0.254969 0.0957924 0.0145183)
(-0.297053 0.0664469 0.0324261)
(-0.341411 0.0397228 0.0400413)
(-0.379576 0.00960991 0.0610678)
(-0.42806 -0.0322989 0.0454817)
(-0.46976 -0.0856151 0.0383075)
(-0.487477 -0.12922 0.024425)
(-0.475229 -0.161371 0.0137272)
(-0.434571 -0.164322 -0.00607733)
(-0.373588 -0.122975 -0.00689061)
(-0.291291 -0.0206546 -0.00073507)
(-0.171444 0.0767095 -0.0169092)
(-0.0436995 0.117804 -0.0200288)
(0.00723266 0.0767991 -0.00212377)
(0.00809427 0.111881 -0.00878994)
(0.0777546 0.273579 -0.040319)
(0.172514 0.349518 -0.0428939)
(0.234032 0.372963 -0.0229453)
(0.266302 0.379052 -0.00251451)
(0.271425 0.377183 0.0116533)
(0.259964 0.379819 0.0210651)
(0.242677 0.382032 0.0237558)
(0.223445 0.380014 0.0264532)
(0.198999 0.368224 0.0282103)
(0.171252 0.348496 0.0300322)
(0.139287 0.318287 0.0279735)
(0.101964 0.286488 0.0302692)
(0.0631719 0.24964 0.0316424)
(0.0271417 0.222458 0.0330068)
(-0.003946 0.18928 0.0199558)
(-0.0367674 0.173205 0.00995649)
(-0.0666735 0.164812 0.00467193)
(-0.0982162 0.15336 -0.00139924)
(-0.132981 0.150087 -0.00249804)
(-0.141057 0.161419 0.000152674)
(-0.135803 0.185265 0.0019876)
(-0.137132 0.179982 0.00113814)
(-0.152678 0.154266 0.000447613)
(-0.168135 0.124995 0.00250485)
(-0.184435 0.0878031 0.00591753)
(-0.215933 0.0604975 0.018345)
(-0.252705 0.0310686 0.0275852)
(-0.290921 0.00357514 0.0465267)
(-0.344806 -0.0360472 0.0400304)
(-0.401027 -0.0886801 0.0380804)
(-0.449488 -0.140403 0.0283809)
(-0.47976 -0.192607 0.0180807)
(-0.483936 -0.233127 0.00296656)
(-0.450135 -0.251976 -0.0113355)
(-0.384472 -0.220622 -0.0205645)
(-0.294214 -0.130997 -0.0184896)
(-0.17883 0.0154716 0.000876581)
(-0.0537487 0.0949921 -0.0268647)
(0.00638215 0.0784181 -0.00342119)
(0.00576431 0.0916352 -0.00813696)
(0.0718002 0.267281 -0.0397414)
(0.166785 0.349183 -0.0417237)
(0.232922 0.372606 -0.022205)
(0.27224 0.372952 0.00101642)
(0.286143 0.366699 0.0150459)
(0.281675 0.365235 0.020815)
(0.264418 0.359834 0.0241856)
(0.243701 0.352194 0.0264378)
(0.219758 0.339088 0.0271621)
(0.192655 0.318599 0.0267267)
(0.159409 0.292339 0.0232082)
(0.12185 0.259229 0.019213)
(0.0849536 0.227237 0.0132243)
(0.0482187 0.1998 0.0177496)
(0.0159682 0.175928 0.010354)
(-0.00889309 0.157511 0.00461629)
(-0.0383129 0.144922 -0.00127658)
(-0.0679116 0.137746 -0.00244098)
(-0.078165 0.143862 0.000723914)
(-0.0792364 0.157931 0.0031459)
(-0.0903339 0.155394 0.00482271)
(-0.105994 0.142887 0.00411163)
(-0.125775 0.120762 0.00340424)
(-0.145497 0.0994725 0.00385287)
(-0.159807 0.0632665 0.00598387)
(-0.181073 0.0317171 0.0165733)
(-0.211594 0.00296717 0.0306048)
(-0.254697 -0.0323018 0.0297925)
(-0.309159 -0.0769974 0.033094)
(-0.3648 -0.124889 0.0297654)
(-0.41749 -0.181304 0.0257428)
(-0.455584 -0.239972 0.0161292)
(-0.471813 -0.294825 0.00287189)
(-0.450432 -0.327191 -0.0140715)
(-0.391953 -0.316903 -0.0273788)
(-0.288504 -0.23706 -0.0313672)
(-0.177427 -0.0841928 -0.0197805)
(-0.0575572 0.0503453 -0.0194628)
(0.00843272 0.0665544 -0.00871995)
(0.00539167 0.104641 -0.00500185)
(0.0691331 0.28636 -0.0355726)
(0.162916 0.372135 -0.0404996)
(0.235334 0.393589 -0.0195753)
(0.284105 0.388727 0.00491103)
(0.308245 0.374323 0.01466)
(0.307913 0.363512 0.021539)
(0.292427 0.35153 0.0230978)
(0.274507 0.339986 0.0216195)
(0.249739 0.320664 0.0186873)
(0.221679 0.29513 0.0156584)
(0.186107 0.264268 0.0108522)
(0.144954 0.233043 0.00693189)
(0.106378 0.202557 0.00360095)
(0.0692037 0.180544 0.00274037)
(0.0384243 0.164635 0.000428487)
(0.0113742 0.154811 -0.00256709)
(-0.00783004 0.14575 -0.0019243)
(-0.0179846 0.148071 -0.00126295)
(-0.0277095 0.150017 0.00155915)
(-0.0405433 0.140832 0.00421602)
(-0.0586633 0.125908 0.00663258)
(-0.0770306 0.109776 0.00630878)
(-0.0978368 0.0914059 0.00559776)
(-0.122391 0.0726119 0.00749968)
(-0.141048 0.0487339 0.00508413)
(-0.154565 0.0118764 0.00982955)
(-0.182037 -0.0215074 0.0127691)
(-0.221384 -0.0638015 0.0181204)
(-0.269802 -0.10676 0.0198473)
(-0.324411 -0.156615 0.0213007)
(-0.377933 -0.214705 0.019066)
(-0.420914 -0.277974 0.0134632)
(-0.446632 -0.343841 0.00194828)
(-0.438198 -0.392939 -0.0141286)
(-0.39007 -0.404174 -0.0310948)
(-0.29799 -0.339385 -0.0457234)
(-0.183197 -0.186219 -0.0341353)
(-0.0578982 0.00803286 -0.00881101)
(0.00648193 0.0688932 -0.0112406)
(-0.00475947 0.0769462 -0.0153202)
(0.0483726 0.267893 -0.0404505)
(0.143724 0.363787 -0.046389)
(0.223411 0.38682 -0.0270489)
(0.281666 0.38324 -0.00637416)
(0.31558 0.361603 0.00628135)
(0.324731 0.343755 0.0125545)
(0.311259 0.325126 0.0132671)
(0.289293 0.313396 0.012508)
(0.260855 0.302923 0.0091994)
(0.231779 0.290388 0.0068197)
(0.199234 0.271902 0.0037425)
(0.162731 0.251744 0.00182735)
(0.130059 0.23034 0.000460864)
(0.100456 0.210733 0.00277647)
(0.0739646 0.199584 -0.00148991)
(0.052559 0.188506 -0.00723212)
(0.0354806 0.175569 -0.00441453)
(0.0188472 0.163873 -0.00404828)
(-0.000669296 0.146239 6.84197e-05)
(-0.0171331 0.124258 0.00416214)
(-0.0343584 0.103564 0.006442)
(-0.0528678 0.0846134 0.0064678)
(-0.0734426 0.0669263 0.00679854)
(-0.0951491 0.0486162 0.00322833)
(-0.121157 0.0309514 0.00181744)
(-0.14205 0.00273715 0.00162874)
(-0.165051 -0.0325492 0.00196535)
(-0.200475 -0.0691745 0.0053165)
(-0.24211 -0.112354 0.00998734)
(-0.289704 -0.16285 0.013268)
(-0.338276 -0.227302 0.0137646)
(-0.381231 -0.30122 0.00986844)
(-0.411316 -0.38089 0.000503255)
(-0.411935 -0.446607 -0.0137926)
(-0.372486 -0.477597 -0.0318004)
(-0.280823 -0.438695 -0.0543702)
(-0.167798 -0.307127 -0.0550731)
(-0.0465615 -0.085797 -0.0203911)
(0.00902905 0.0380327 -0.00727251)
(-0.00567402 0.164763 -0.00724682)
(0.0442941 0.373685 -0.022289)
(0.132895 0.47339 -0.0329861)
(0.214868 0.496075 -0.0131167)
(0.280525 0.484614 -0.00526627)
(0.321896 0.454052 0.0118915)
(0.339346 0.418753 0.0152846)
(0.336591 0.403691 0.01716)
(0.331464 0.40541 0.0126904)
(0.311283 0.402606 0.00740887)
(0.281224 0.390619 0.00168577)
(0.243173 0.366709 -0.00241412)
(0.20087 0.335048 -0.00557546)
(0.159551 0.302488 -0.00577867)
(0.126535 0.269055 -0.00491947)
(0.0996409 0.239559 -0.00178141)
(0.0685661 0.212401 -0.00759314)
(0.0481184 0.187598 -0.00869041)
(0.0342581 0.15682 -0.00641981)
(0.0145289 0.132627 -0.00368547)
(-0.00197406 0.110854 0.00148082)
(-0.0177741 0.0862754 0.00497867)
(-0.0333751 0.0667441 0.00590743)
(-0.0527825 0.0460255 0.00805028)
(-0.0746618 0.0278124 0.00113704)
(-0.0978526 0.00915413 0.00466286)
(-0.12046 -0.00584129 0.00352827)
(-0.143766 -0.032994 -0.00129411)
(-0.173867 -0.0712652 -0.0062001)
(-0.214278 -0.119317 -0.00787084)
(-0.262911 -0.169559 -0.006061)
(-0.313114 -0.228539 -0.00310693)
(-0.356534 -0.294832 -1.88284e-05)
(-0.386445 -0.379133 -0.00462544)
(-0.390359 -0.460638 -0.0182917)
(-0.366069 -0.525958 -0.0458486)
(-0.301549 -0.51934 -0.0727182)
(-0.192232 -0.394586 -0.0684481)
(-0.0538469 -0.158201 -0.041484)
(0.0103303 0.0326566 -0.00607922)
(-0.0188005 0.249277 -0.0230637)
(0.017397 0.49042 -0.0440428)
(0.106746 0.600586 -0.0526798)
(0.191186 0.641468 -0.0392252)
(0.262196 0.633716 -0.0282456)
(0.30909 0.606169 -0.0127499)
(0.347566 0.563432 -0.0019602)
(0.374155 0.536263 -0.00159843)
(0.367477 0.517737 -0.00648949)
(0.329892 0.490375 -0.00962739)
(0.28452 0.455051 -0.0105929)
(0.236088 0.41205 -0.0112141)
(0.192464 0.363772 -0.0104854)
(0.156398 0.317257 -0.00912794)
(0.125733 0.273347 -0.00710049)
(0.100902 0.233835 -0.00411775)
(0.0819862 0.198334 -0.000434101)
(0.0601856 0.171533 -0.00548684)
(0.042804 0.144138 -0.00560941)
(0.0312329 0.117272 -0.00411502)
(0.0127625 0.0943724 -0.00159415)
(-0.00363089 0.0743152 0.00279607)
(-0.0189545 0.0491032 0.00525436)
(-0.0378459 0.0305087 0.00585521)
(-0.0552105 0.0122295 0.00494025)
(-0.0734923 -0.00397174 0.00906368)
(-0.0955493 -0.0189473 0.0080534)
(-0.130409 -0.0374804 0.00468572)
(-0.170108 -0.0644256 0.00426058)
(-0.200772 -0.10575 0.00307905)
(-0.230616 -0.156257 -0.000807197)
(-0.260036 -0.229647 -0.00781654)
(-0.296516 -0.31929 -0.0171882)
(-0.33313 -0.439722 -0.0252149)
(-0.355435 -0.553002 -0.0341559)
(-0.348581 -0.65707 -0.0539334)
(-0.280548 -0.686351 -0.0781783)
(-0.188583 -0.577706 -0.0882372)
(-0.0663007 -0.294523 -0.0605695)
(0.0108044 -0.0069974 -0.00934317)
(-0.000100196 0.215655 0.00184726)
(0.037379 0.458295 -0.0346853)
(0.110131 0.582987 -0.0468042)
(0.193134 0.638559 -0.0423811)
(0.262398 0.642334 -0.033545)
(0.311714 0.6219 -0.0227753)
(0.348377 0.585897 -0.0154034)
(0.371696 0.545497 -0.00719789)
(0.366942 0.50385 -0.00832045)
(0.331227 0.465793 -0.00751789)
(0.287483 0.427193 -0.00699814)
(0.23936 0.387187 -0.00566447)
(0.195265 0.344281 -0.00484535)
(0.158047 0.303158 -0.003564)
(0.130075 0.261261 -0.00364831)
(0.108757 0.223708 -0.0016781)
(0.087459 0.186437 -0.00154447)
(0.0730747 0.154874 0.000787114)
(0.0570913 0.131759 -0.000154942)
(0.0393554 0.105477 -0.00328815)
(0.027531 0.0844751 -0.00112352)
(0.00776024 0.061673 0.000132283)
(-0.00723184 0.0429153 0.00822063)
(-0.0194234 0.0216477 0.00647948)
(-0.036924 0.00492953 0.00588554)
(-0.0532328 -0.0115124 0.00902064)
(-0.0717353 -0.0284915 0.0101843)
(-0.0972583 -0.0453844 0.00839197)
(-0.135555 -0.0557876 0.00475981)
(-0.177913 -0.0743231 0.00394482)
(-0.229006 -0.107326 0.00488754)
(-0.282805 -0.166215 0.00776079)
(-0.333467 -0.24905 0.0093748)
(-0.354017 -0.369324 0.00549161)
(-0.348896 -0.501687 -0.00418118)
(-0.332974 -0.644089 -0.0180898)
(-0.271343 -0.730903 -0.0375565)
(-0.162859 -0.712454 -0.0590025)
(-0.033653 -0.447506 -0.0594698)
(0.019685 -0.083108 0.00205353)
(-1.28923e-05 0.233094 -0.000168201)
(0.0364085 0.450833 -0.0296655)
(0.103797 0.573685 -0.0402199)
(0.180354 0.63007 -0.037897)
(0.248235 0.635615 -0.0236427)
(0.299209 0.613755 -0.0171021)
(0.341016 0.575265 -0.00779097)
(0.367266 0.535655 -0.00188585)
(0.363808 0.49027 -0.0016213)
(0.330673 0.451952 -0.000927699)
(0.285311 0.411846 -0.000601128)
(0.235945 0.370916 -0.000126737)
(0.194047 0.329825 -0.000135316)
(0.160068 0.290472 -0.000345152)
(0.132273 0.251669 -0.000368019)
(0.110391 0.212667 0.000521517)
(0.094998 0.17532 0.00152384)
(0.0844737 0.141597 0.00266463)
(0.0692547 0.114966 0.00241673)
(0.0568551 0.0925029 0.00468528)
(0.0392884 0.0729274 0.00100909)
(0.0232798 0.0531372 0.00061763)
(0.00865476 0.0351484 0.00460868)
(-0.00792785 0.0181542 0.00596515)
(-0.0189156 -0.00301335 0.00680018)
(-0.0343838 -0.0193521 0.00815539)
(-0.0516137 -0.0387146 0.00962419)
(-0.0714842 -0.0591444 0.0103746)
(-0.0998367 -0.0766212 0.0101728)
(-0.133508 -0.0946183 0.00837314)
(-0.17488 -0.113132 0.00848736)
(-0.215914 -0.145296 0.00828479)
(-0.272171 -0.187781 0.00891979)
(-0.320528 -0.262565 0.00991221)
(-0.352181 -0.368496 0.00747504)
(-0.36533 -0.517055 0.00324124)
(-0.331225 -0.631826 -0.0091919)
(-0.230808 -0.665588 -0.0313929)
(-0.0605889 -0.457044 -0.0458477)
(0.0256499 -0.0501731 -0.0218988)
(0.00660895 0.205367 -0.0001416)
(0.0442759 0.403167 -0.0242895)
(0.104761 0.533678 -0.0333429)
(0.178439 0.595059 -0.0324825)
(0.244016 0.6109 -0.0200105)
(0.294451 0.592685 -0.0126071)
(0.338205 0.556867 -0.00329989)
(0.362267 0.51369 0.00189931)
(0.359468 0.464445 0.00268206)
(0.329706 0.422296 0.00291156)
(0.284414 0.381253 0.0035188)
(0.237817 0.343725 0.00410599)
(0.198164 0.307675 0.00378213)
(0.165037 0.271945 0.00355954)
(0.137772 0.235979 0.00282764)
(0.117042 0.200254 0.00305807)
(0.0990564 0.16672 0.00372351)
(0.092471 0.131825 0.00603601)
(0.0842569 0.104882 0.00578624)
(0.0699819 0.0803503 0.00515495)
(0.0578755 0.0646766 0.00559654)
(0.0378163 0.0450798 0.00496501)
(0.0246677 0.0295804 0.0037992)
(0.00950987 0.0125448 0.00309972)
(-0.00606531 -0.00395412 0.00692323)
(-0.0181352 -0.0236736 0.00729901)