/*--------------------------------*- C++ -*----------------------------------*\
| =========                 |                                                 |
| \\      /  F ield         | OpenFOAM: The Open Source CFD Toolbox           |
|  \\    /   O peration     | Version:  v1806                                 |
|   \\  /    A nd           | Web:      www.OpenFOAM.com                      |
|    \\/     M anipulation  |                                                 |
\*---------------------------------------------------------------------------*/
FoamFile
{
    version     2.0;
    format      ascii;
    class       vectorField;
    location    "0.1235";
    object      currentcloudofpoints;
}
// * * * * * * * * * * * * * * * * * * * * * * * * * * * * * * * * * * * * * //


2409
(
(1.16988 1.50275 1.41122)
(0.869698 1.13801 0.98665)
(1.30248 1.26775 1.05363)
(1.43541 1.51229 0.842555)
(1.32503 1.7313 1.18843)
(1.15701 1.26635 1.04059)
(1.38414 1.34716 1.24185)
(0.490337 1.17317 0.557759)
(1.58211 0.975356 0.995857)
(0.688434 1.14957 0.550962)
(1.20336 1.16793 1.43403)
(1.38201 1.22797 1.37596)
(1.62398 1.2912 1.38249)
(1.28554 1.57579 1.3074)
(1.43702 1.21502 1.25388)
(1.31245 1.22076 1.1962)
(1.43967 1.19877 1.41028)
(1.18846 1.5232 0.941156)
(1.63131 1.34316 1.3923)
(1.49809 1.22139 1.45419)
(0.548531 1.23587 1.06753)
(0.557004 1.4571 1.15707)
(1.4015 1.33334 1.48452)
(1.36403 1.5289 1.24947)
(0.643383 1.21792 1.05408)
(0.686186 1.05817 1.51822)
(0.468607 1.04156 1.16687)
(0.823424 1.35981 1.60767)
(1.07879 1.26375 1.43323)
(1.16496 1.22643 0.77113)
(1.32091 1.17187 0.651584)
(1.44192 1.35829 0.614493)
(1.36489 1.2584 0.791642)
(1.23126 1.32004 0.93558)
(1.19284 1.19859 0.69758)
(1.54484 1.21059 0.719042)
(1.42935 1.36241 0.613844)
(1.41165 1.29108 0.633858)
(0.925374 1.30644 0.440696)
(0.565381 1.2006 0.598046)
(0.891448 1.28384 0.967801)
(0.886673 0.873631 0.812949)
(1.26671 1.42892 0.758065)
(1.31945 1.35779 0.828927)
(0.616027 1.20099 0.587237)
(0.711199 1.30708 0.731952)
(0.661219 1.28521 0.751034)
(1.40479 1.55622 1.19935)
(1.20061 1.26284 1.39992)
(1.22397 1.39929 1.58463)
(1.16836 1.2501 1.04122)
(1.38129 1.58465 1.25551)
(1.42357 1.46811 1.44841)
(1.2212 1.12137 1.32162)
(1.59288 1.30589 1.08863)
(1.10694 1.43537 1.37749)
(1.07064 1.07242 0.948703)
(1.26288 1.61329 0.585025)
(1.20393 1.82971 0.743047)
(1.15203 1.56533 0.52177)
(1.23148 1.56271 0.873786)
(1.44229 1.21742 0.787628)
(0.99421 1.5366 1.07236)
(1.2485 1.25886 0.886939)
(1.47933 1.35311 0.655837)
(1.02256 0.793744 1.19205)
(1.25282 1.45077 1.28835)
(1.22641 1.41853 1.38988)
(1.06361 1.3959 1.01915)
(1.07094 1.33649 1.21609)
(0.640165 1.19902 1.05016)
(1.40641 1.51988 1.1891)
(1.06666 1.11777 1.05883)
(1.03899 1.63668 0.839461)
(1.13223 1.40089 1.0139)
(1.72971 1.29007 1.252)
(1.73241 1.15594 1.26484)
(1.36922 1.25845 1.09636)
(1.24415 1.20374 1.01426)
(1.66973 1.46834 1.32957)
(1.7361 1.12909 1.24095)
(1.76093 1.36439 1.20045)
(1.33042 1.26603 1.06577)
(0.484672 1.18878 1.33022)
(0.383946 1.32411 1.27002)
(0.652476 1.16219 1.58457)
(1.15596 1.41495 1.60957)
(1.02793 1.10493 1.63324)
(1.01237 1.02512 1.53291)
(1.47559 1.19654 1.52844)
(0.562509 1.32135 1.49067)
(0.368465 1.21705 1.33397)
(0.468002 1.45816 1.36018)
(0.783047 1.56786 1.45876)
(1.04742 1.05442 1.55253)
(0.984106 1.23434 1.24229)
(1.16298 1.54756 1.26506)
(1.16558 1.20583 1.43797)
(1.15466 1.14936 1.44202)
(1.28603 1.19593 1.6041)
(1.26204 1.2337 1.50301)
(1.43972 1.17281 1.29333)
(1.39206 1.20811 1.28552)
(1.45831 1.05561 1.16238)
(1.56145 0.99711 1.11795)
(1.37774 1.17914 1.59397)
(1.29254 1.12331 1.54802)
(1.28767 1.21331 1.57725)
(1.42573 1.1402 1.32359)
(1.42877 1.18588 1.29898)
(1.40161 1.13 1.17079)
(1.5128 1.02322 1.14715)
(1.57805 0.974924 1.06281)
(0.805128 0.973085 0.674481)
(0.623743 1.29018 0.965684)
(0.536475 1.25938 0.455944)
(0.594824 1.58821 0.83351)
(0.962592 1.10894 0.837155)
(1.09716 1.0579 0.422495)
(1.01496 1.0398 0.39512)
(0.965302 1.14186 0.95105)
(1.09836 1.25741 0.428753)
(0.990333 1.34508 0.866497)
(1.13789 1.02248 1.02563)
(1.01398 0.931719 0.531908)
(1.04943 1.01748 0.767462)
(1.12786 1.05107 0.428489)
(1.03919 1.2024 0.403476)
(1.55776 0.996886 0.873368)
(1.47386 1.04247 0.823444)
(1.38521 1.10549 0.807631)
(1.09996 1.16763 0.780645)
(1.32957 1.17299 0.758644)
(1.29993 1.19209 0.719157)
(1.18501 1.21812 0.549939)
(1.57171 0.980266 0.930925)
(1.51589 1.022 0.840707)
(1.42165 1.07272 0.817841)
(1.28647 1.19207 0.812152)
(1.26567 1.10658 0.71268)
(1.32421 1.18978 0.769034)
(1.306 1.16864 0.73225)
(1.18959 1.20408 0.411657)
(1.37917 1.63571 1.27231)
(1.17677 1.51746 1.25323)
(0.909417 1.57249 1.05412)
(1.20792 1.50077 1.07135)
(0.84891 1.26099 1.17743)
(0.931584 1.03268 1.12497)
(1.46927 1.20361 1.20199)
(1.36392 1.78576 1.1684)
(1.06646 1.50727 1.17635)
(1.23791 1.29821 0.668831)
(1.0093 1.46648 1.17888)
(1.23754 1.52606 1.04354)
(1.10341 1.36096 1.6235)
(1.0249 1.14008 1.57647)
(1.5727 1.20992 1.22197)
(1.37093 1.69125 0.627591)
(1.24082 1.65485 0.79687)
(1.31295 1.55686 0.76566)
(1.34998 1.49959 0.738958)
(1.07009 1.4469 0.588606)
(1.03122 0.947545 0.706726)
(0.79601 1.37429 0.396738)
(1.15255 1.78177 1.00701)
(1.26803 1.69572 0.722483)
(1.24023 1.69781 0.816989)
(1.23317 1.57631 0.81106)
(1.04365 1.50143 0.539697)
(1.07899 1.48793 0.418765)
(1.19528 1.19652 0.410722)
(1.20855 1.21797 0.415634)
(0.78494 1.21504 0.688198)
(0.994261 1.41511 1.01811)
(1.12472 1.50021 1.22559)
(1.29912 1.65149 0.885261)
(1.4324 1.25768 1.33045)
(1.07759 1.71603 1.29458)
(1.07755 1.07248 1.07691)
(0.972035 1.66285 0.808328)
(0.996003 1.30677 0.807631)
(1.11289 1.73183 0.734726)
(0.701606 1.28673 0.546094)
(1.55019 1.47844 1.33739)
(1.49187 1.27641 1.27689)
(1.2829 1.21673 0.96666)
(1.06913 1.10002 1.08953)
(0.992174 1.53339 1.00132)
(1.35676 1.41583 1.14754)
(1.36736 1.40976 1.04499)
(1.64314 1.35459 1.09566)
(1.65319 1.21762 1.09221)
(1.60331 1.21236 1.06177)
(1.59786 1.08475 1.00553)
(1.5156 1.27316 1.3897)
(1.04121 1.43838 1.43965)
(1.63231 1.39648 1.34323)
(1.37059 1.39727 1.05147)
(1.74619 1.14079 1.14406)
(1.61133 1.24553 1.07291)
(1.59648 1.12983 1.01786)
(1.59526 1.02532 0.998125)
(1.16353 1.50727 0.526829)
(1.23472 1.08772 0.60284)
(1.33306 1.26643 0.778045)
(1.36711 1.0828 1.36302)
(1.38832 1.70513 1.10923)
(1.25043 1.13677 1.49671)
(0.903176 1.04344 0.767941)
(0.779962 1.22146 0.545645)
(0.820441 1.28062 0.804745)
(1.41753 1.20015 1.00644)
(1.28726 1.27807 1.01078)
(1.48832 1.03985 0.992646)
(1.43717 1.52305 1.00317)
(1.54686 1.66701 1.18098)
(1.50809 1.73828 1.06942)
(1.67845 1.12507 1.308)
(1.10448 1.57295 1.23055)
(1.53372 1.14912 1.22241)
(1.60131 1.05128 1.17099)
(1.60574 1.08302 1.32462)
(1.15888 1.75211 1.39485)
(1.64143 1.40818 1.06573)
(1.68645 1.51021 1.10468)
(1.25028 1.40621 0.929591)
(1.73807 1.3226 1.09108)
(1.71156 1.07277 1.25407)
(1.37897 1.33038 0.935243)
(1.64762 1.14974 1.13346)
(1.61121 1.13877 1.31172)
(1.74042 1.09737 1.18484)
(1.20201 1.82637 1.1765)
(1.26528 1.13193 1.51471)
(1.14704 1.27152 1.15633)
(1.42191 1.40243 1.07047)
(1.44968 1.11042 1.20277)
(1.50011 1.65871 1.1453)
(1.07702 1.51265 1.18754)
(1.55569 1.64871 1.02929)
(1.5689 1.2661 1.22007)
(1.65299 1.30346 1.31308)
(1.20528 1.8236 1.09078)
(1.24655 1.14991 1.52559)
(1.60301 1.07387 1.08436)
(1.47867 1.63333 1.01999)
(1.0018 1.54482 0.777019)
(1.63164 1.2674 1.31086)
(1.66936 1.34447 1.00549)
(1.76267 1.42118 1.1855)
(1.28361 1.11871 1.50662)
(1.23757 1.23152 1.46653)
(1.24698 1.20688 1.54459)
(1.18897 1.1404 1.46899)
(1.23498 1.1177 1.44628)
(1.44388 1.1621 1.2662)
(1.43945 1.19387 1.21465)
(1.51086 1.28669 1.20583)
(1.46151 1.20927 1.20563)
(1.48723 1.23836 1.21305)
(1.62869 1.19499 1.33126)
(1.47071 1.22001 1.20493)
(1.43212 1.19322 1.18098)
(1.6088 1.25081 1.26917)
(1.41825 1.17277 1.18697)
(1.42982 1.11064 1.1734)
(1.52629 1.1978 1.16926)
(1.51891 1.04339 1.17096)
(1.57241 1.04296 1.13745)
(1.50586 1.05073 1.20996)
(1.58958 1.02462 1.1006)
(1.59663 1.01081 1.04034)
(1.60217 1.08119 1.12668)
(1.59895 1.07813 1.04675)
(1.4563 1.60623 1.27001)
(1.38656 1.63813 1.1803)
(1.20219 1.79101 1.11219)
(1.42669 1.65264 1.1424)
(1.40701 1.74763 1.20339)
(1.3522 1.68114 1.0388)
(1.36493 1.76868 1.08419)
(1.38501 1.72643 1.18863)
(1.68242 1.48874 1.06131)
(1.6834 1.35759 1.02016)
(1.14538 1.59446 1.46427)
(1.77376 1.15086 1.22269)
(1.64664 1.3432 1.12387)
(1.74837 1.4791 1.21128)
(1.64833 1.1873 1.12082)
(1.68791 1.14388 1.13942)
(1.75524 1.15102 1.26007)
(1.60277 1.12625 1.06666)
(1.62182 1.181 1.09827)
(1.67161 1.12857 1.15093)
(1.61616 1.11895 1.10546)
(1.32365 1.7302 1.22503)
(1.31498 1.73153 1.08382)
(1.3312 1.69679 0.999929)
(1.59209 1.60154 1.09815)
(1.52504 1.76224 1.10891)
(1.34927 1.74044 1.08041)
(1.52391 1.5667 1.13782)
(1.68993 1.41574 0.961254)
(1.62088 1.48758 1.10303)
(1.38538 1.38613 1.50698)
(1.6145 1.22185 1.3017)
(1.61941 1.32713 1.43314)
(1.21711 1.22875 1.45551)
(1.59871 1.20496 1.26834)
(1.69706 1.34496 1.13504)
(1.37988 1.43743 1.07398)
(1.0463 1.45216 1.12803)
(1.10873 1.13518 1.17247)
(1.09761 1.55819 1.38156)
(1.06582 1.14551 1.04803)
(1.65705 1.48528 1.03336)
(1.6985 1.16591 1.30366)
(1.71482 1.092 1.26839)
(1.6017 1.41762 1.2281)
(1.70407 1.42843 1.09294)
(1.65024 1.21924 1.33327)
(1.67538 1.34575 1.29561)
(1.64142 1.09456 1.31258)
(1.68965 1.08181 1.27952)
(1.65201 1.08037 1.304)
(1.72371 1.0768 1.21591)
(1.6112 1.39194 1.31317)
(1.57028 1.56465 1.3895)
(1.25517 1.77787 1.1978)
(1.27419 1.79735 1.18686)
(1.31649 1.75051 1.28492)
(1.16285 1.78959 1.08745)
(1.17799 1.78482 1.11906)
(0.990722 1.54542 0.992545)
(1.06782 1.52486 1.28958)
(1.08648 1.45959 1.21804)
(0.906346 1.51357 1.01703)
(1.13427 1.71929 1.11621)
(1.23608 1.3189 0.681055)
(0.983361 1.45278 1.12029)
(0.842319 1.58626 0.994829)
(1.1407 1.24543 0.72889)
(1.06566 1.63169 1.19391)
(0.880437 1.5873 1.05433)
(1.14287 1.50536 0.899965)
(1.08033 1.45924 1.4898)
(0.935955 1.4991 1.03198)
(1.20084 1.13683 1.51162)
(1.46215 1.17883 1.21848)
(1.49749 1.20262 1.20706)
(1.26643 1.16451 1.54735)
(1.24736 1.17794 1.01792)
(1.257 1.62705 1.25364)
(1.0343 1.54971 1.23812)
(1.35191 1.76244 1.10434)
(1.50618 1.58814 1.11728)
(1.38149 1.28923 1.20442)
(1.60815 1.49793 1.08701)
(1.62963 1.08799 1.15002)
(1.09088 1.15027 1.04019)
(1.07376 1.15465 1.01442)
(0.900867 1.56114 1.21758)
(0.910115 1.56222 1.12983)
(1.64595 1.62571 1.07039)
(1.64765 1.04447 1.21346)
(1.5901 1.04224 1.25252)
(1.52251 1.0587 1.25348)
(1.67513 1.07552 1.17656)
(1.60143 1.08711 1.29501)
(1.64909 1.4274 1.25873)
(1.58365 1.15825 1.1916)
(1.24344 1.75518 1.2886)
(1.52938 1.55338 1.34796)
(1.4425 1.40537 1.1056)
(1.49052 1.38828 1.28759)
(1.74303 1.34753 1.09377)
(1.59704 1.39477 1.15087)
(1.37287 1.41675 1.18754)
(1.61964 1.15567 1.26386)
(1.05819 1.27267 1.54003)
(0.608127 1.48961 1.37567)
(1.19176 1.11399 1.02924)
(0.55937 1.35403 1.3334)
(0.605456 1.48357 1.48331)
(1.0849 1.39668 1.58807)
(0.54811 0.949572 1.27402)
(1.23307 1.35428 0.741814)
(1.22245 1.10285 1.59328)
(1.19244 1.26517 1.39824)
(0.571006 1.30249 1.4018)
(0.889837 1.5206 1.01446)
(0.918402 1.30359 1.36139)
(0.884519 1.14519 1.14711)
(1.1248 1.48616 1.55283)
(0.883698 1.6104 0.976399)
(0.357646 1.30434 1.26161)
(1.0778 1.19173 1.60472)
(0.349239 1.06867 1.0726)
(0.721094 1.19395 1.59621)
(1.09708 1.257 1.59481)
(1.0302 1.66292 1.36012)
(1.11889 1.43814 1.58966)
(0.797073 1.31705 1.31486)
(0.535669 1.31888 1.39542)
(1.31074 1.51882 1.16709)
(1.13856 1.41422 1.11403)
(0.585151 1.49092 1.41597)
(0.946827 1.22174 1.52503)
(1.0217 1.15682 1.48993)
(0.491867 1.36716 1.37242)
(0.729046 1.17132 1.44245)
(1.11284 1.01647 1.00748)
(1.40277 1.11137 1.50838)
(0.851117 1.42298 0.857947)
(0.840202 1.42471 1.1758)
(1.33059 1.47058 1.42964)
(0.490586 0.914961 1.17969)
(0.440113 1.01285 1.10162)
(0.596335 1.25826 1.36164)
(0.793494 1.20299 1.2852)
(0.355677 1.10198 0.969681)
(0.397737 1.33571 1.31438)
(0.380097 1.3346 1.24878)
(0.617929 1.1821 1.2714)
(0.314532 1.20403 1.05738)
(0.341972 1.06682 1.03964)
(0.381521 1.32908 1.25759)
(1.0216 1.03128 1.57869)
(1.41526 1.51642 1.0197)
(1.09892 1.17884 1.66203)
(1.1255 1.08943 1.5017)
(0.963356 1.03503 1.31099)
(1.58365 1.1643 1.22796)
(1.5373 1.10482 1.24044)
(1.18711 1.45441 1.61906)
(0.885509 1.63543 1.19647)
(0.835863 1.58111 1.16598)
(0.669273 1.4803 1.50733)
(0.888089 1.66018 1.02235)
(0.95197 1.69362 1.22761)
(0.647436 1.40907 1.22745)
(0.642042 1.40234 1.28529)
(1.21377 1.61091 1.36351)
(0.79811 1.47132 1.58416)
(0.614336 1.43552 1.19035)
(1.04256 1.74501 1.3096)
(0.818352 1.067 1.23444)
(0.597309 1.14569 1.26246)
(0.350663 1.11628 1.12796)
(0.562929 1.36954 1.44358)
(0.546446 1.34142 1.46667)
(1.13632 1.41457 0.98599)
(0.841519 1.1523 0.719055)
(0.735783 1.51099 1.52136)
(0.934617 1.3816 1.10299)
(0.887891 1.66301 0.98391)
(1.15448 1.48815 1.22049)
(1.14321 1.50327 0.791224)
(1.04613 1.48593 1.16776)
(1.03134 1.26947 1.54908)
(1.008 1.52158 1.38346)
(1.40546 1.5663 0.986639)
(1.12415 1.44742 1.57285)
(1.15703 1.48309 1.31796)
(1.10475 1.42839 1.585)
(1.07852 1.44487 1.57369)
(1.11191 1.3177 1.56477)
(1.04322 1.40357 1.55988)
(0.673107 1.42117 1.20224)
(1.05074 1.1722 1.65875)
(0.889967 1.13242 1.20413)
(1.04772 1.19296 1.5992)
(0.985805 1.1465 1.50179)
(1.06819 1.2002 1.58152)
(1.09456 1.23018 1.57281)
(1.0659 1.20186 1.58964)
(1.01844 1.16418 1.55374)
(1.07452 1.25838 1.58461)
(1.2468 1.61273 1.29218)
(1.21657 1.50412 1.06724)
(1.16131 1.3569 1.58621)
(1.15786 1.44101 1.5841)
(1.14595 1.39786 1.59571)
(1.12141 1.35651 1.59791)
(0.899927 1.60683 0.996134)
(1.20729 1.57155 1.26749)
(1.07436 1.1274 1.51855)
(0.96071 1.02844 1.31214)
(0.86458 1.25807 1.10656)
(0.98926 1.15133 1.50256)
(1.21125 1.17281 1.50208)
(1.11807 1.15197 1.43532)
(1.13762 1.22058 1.62435)
(0.905687 1.34402 1.18101)
(1.10283 1.39582 1.61337)
(1.12551 1.41411 1.2188)
(0.564871 1.32913 1.25182)
(0.861997 1.41125 1.55631)
(1.1145 0.856232 1.15175)
(0.76721 1.25673 1.15203)
(1.15903 1.3079 1.29528)
(1.25841 1.15739 1.01863)
(0.551342 1.25019 1.35326)
(1.22781 1.37357 0.80993)
(1.20232 1.78492 1.1707)
(1.37984 1.63644 1.26219)
(1.21245 1.33211 1.27792)
(1.03254 1.75074 1.33432)
(1.09436 1.30119 1.57285)
(1.02599 1.24366 1.52008)
(0.602569 1.45656 1.25798)
(0.757976 1.32132 1.58005)
(0.894394 1.7071 1.24542)
(0.855226 1.10798 0.61173)
(0.816375 1.66028 1.22123)
(1.07038 1.22069 1.18782)
(1.10157 1.77531 1.37089)
(1.39257 1.59305 1.15128)
(1.25432 1.42509 0.719246)
(1.0648 1.34742 1.21089)
(0.787788 1.25517 1.1359)
(0.779896 1.41156 1.61019)
(0.779894 1.37121 1.3272)
(1.17612 1.39379 1.14824)
(0.694174 1.48828 1.0023)
(0.889363 1.47601 1.34314)
(0.878666 1.42798 1.31554)
(1.13033 1.29393 0.80986)
(0.802793 1.35834 1.48313)
(0.9451 1.33792 1.60676)
(0.812446 1.24948 1.42788)
(0.770826 1.3588 1.32292)
(0.838873 1.5447 1.56127)
(1.00982 1.16174 1.54018)
(1.10457 1.32515 1.59279)
(0.591298 1.44209 1.23583)
(1.14857 1.03684 1.12323)
(1.08298 1.16367 1.20643)
(0.908582 1.34556 0.878616)
(1.17298 1.62683 1.34466)
(0.540418 1.44069 1.34995)
(0.692694 1.39659 1.28064)
(0.605153 1.46142 1.39638)
(0.877356 1.27862 1.08254)
(0.842814 1.4388 0.917312)
(0.713123 1.21492 1.58703)
(0.882968 1.10613 1.35032)
(0.641487 1.20008 1.56871)
(0.458249 1.4834 0.802007)
(1.08476 1.69681 0.881265)
(0.941691 0.984478 0.640704)
(0.491134 1.37142 0.652861)
(1.17925 1.51521 0.840498)
(1.07247 1.68855 0.8298)
(1.05141 1.79398 0.76408)
(0.98631 1.39527 0.440533)
(0.562144 1.16916 0.475723)
(1.41393 1.49649 0.882213)
(1.3316 1.5026 0.894422)
(0.970948 1.75866 0.654108)
(0.892909 1.53681 0.760319)
(0.440517 1.44149 0.808798)
(0.487843 1.1936 0.531023)
(1.2322 1.74058 0.659526)
(0.777351 1.34219 0.450882)
(0.498265 1.28101 0.633533)
(1.16031 1.01421 0.848985)
(0.83049 1.29781 0.662121)
(0.61509 1.52805 0.776956)
(0.433273 1.47978 0.628855)
(0.659258 1.52202 0.805467)
(1.11177 1.12599 0.928065)
(1.20248 1.76936 0.741159)
(0.874584 1.38474 0.667493)
(0.526801 1.15867 0.521722)
(1.23477 1.1569 0.929069)
(1.01836 1.52869 0.461894)
(0.673372 1.57161 0.90565)
(0.909202 1.33832 0.397826)
(1.2089 1.36188 0.706903)
(1.35763 1.72158 0.61893)
(0.824706 1.35796 0.479844)
(0.891373 1.54085 0.459941)
(1.28496 1.34519 0.405397)
(0.506673 1.45372 0.922292)
(0.447284 1.3668 0.738358)
(0.771682 1.15631 0.562619)
(0.746864 1.11744 0.633001)
(0.894036 1.07253 0.88392)
(0.696984 1.38687 0.90514)
(0.958705 1.56745 0.616057)
(0.592083 1.35121 0.705039)
(0.53286 1.62168 0.655666)
(0.91884 1.3896 0.594755)
(0.977664 1.40136 0.516111)
(0.867286 1.49167 0.658894)
(1.01795 1.5478 0.503588)
(0.779784 1.28443 0.879494)
(0.885735 1.52127 0.506226)
(1.02437 1.50383 0.413113)
(0.876291 1.38274 0.634516)
(0.638186 1.61129 0.754623)
(0.948266 1.70234 0.651)
(1.11075 1.66286 0.857607)
(0.760179 1.52288 0.746203)
(0.880261 1.3734 0.402814)
(1.0445 1.24003 0.376488)
(1.23379 1.10782 0.537448)
(0.973995 0.972298 0.626054)
(1.22068 1.75491 0.755281)
(1.13296 1.6298 0.682399)
(1.11772 1.66921 0.632643)
(1.23605 1.71533 0.645679)
(1.23888 1.76331 0.672918)
(1.0073 1.51302 1.0087)
(1.16279 1.46409 0.769245)
(1.22772 1.75152 0.790945)
(1.2428 1.68412 0.797164)
(1.20539 1.64788 0.908729)
(1.32465 1.55307 0.806074)
(1.43756 1.78395 0.71538)
(0.981513 0.940567 0.561652)
(0.92676 1.05432 0.430908)
(1.03166 1.48305 0.483797)
(1.04582 1.486 0.506371)
(1.04013 1.21622 0.3604)
(0.570662 1.51626 0.674439)
(0.750941 1.34028 0.690466)
(0.96538 1.03396 0.675543)
(1.07313 0.890896 1.1573)
(0.745933 1.24797 0.598919)
(1.13255 1.10155 0.511088)
(0.807948 1.51586 0.474056)
(0.961548 0.994865 0.453658)
(0.479032 1.43627 0.885832)
(1.07303 1.5464 0.722842)
(0.937773 1.56282 0.719008)
(0.927822 1.75552 0.767615)
(1.21808 1.70684 0.660861)
(0.730743 1.52535 0.805142)
(0.964846 1.60612 0.662632)
(1.10074 1.55881 0.702205)
(0.806966 1.47188 0.789101)
(0.818704 1.29942 0.616571)
(0.804349 1.61077 0.960265)
(0.535323 1.44565 0.989611)
(0.487487 1.60333 0.765403)
(0.925365 1.37963 0.386504)
(1.00415 1.54791 0.485062)
(0.991799 1.31595 0.421617)
(1.34859 1.40387 0.959929)
(0.958829 0.889923 1.09929)
(1.18565 1.0808 0.472485)
(1.04815 1.80248 0.632727)
(1.14381 1.65994 0.730947)
(0.964131 1.7345 0.626314)
(1.30413 1.57225 0.648773)
(1.12241 1.79768 0.814411)
(1.17241 1.59911 0.865357)
(1.04658 1.45203 0.43077)
(1.03259 1.4795 0.595997)
(0.84129 1.18012 0.495889)
(1.0202 1.60039 0.67463)
(0.973856 1.4836 0.563405)
(1.009 1.40208 0.921943)
(1.06293 1.8053 0.742638)
(0.896956 1.31283 0.962403)
(0.892755 1.56464 0.549255)
(0.875361 1.53988 0.488152)
(0.755562 1.48468 0.756063)
(0.872722 1.58258 0.543776)
(0.992519 1.53176 0.525116)
(0.489254 1.41287 0.688518)
(0.522384 1.34983 0.722894)
(0.943045 0.943431 0.681771)
(0.605733 1.31882 0.780769)
(0.557673 1.30464 0.766568)
(0.658945 1.51391 0.759296)
(0.671937 1.17811 0.524314)
(0.703526 1.42715 0.664284)
(1.00879 1.10061 1.06884)
(1.00696 1.52695 0.944355)
(0.662731 1.32989 0.769373)
(0.574343 1.41048 0.982541)
(1.08838 0.924438 1.09851)
(0.572253 1.18727 0.850235)
(0.531396 1.24026 0.708265)
(1.45141 1.58786 0.711468)
(1.13093 1.76893 1.00342)
(1.00252 1.28218 0.951327)
(0.778513 0.910019 0.687526)
(0.875919 1.02063 0.662082)
(0.965172 0.948239 0.803345)
(1.01135 1.14555 0.807768)
(1.09524 1.31218 0.8373)
(1.08839 1.30044 0.824085)
(0.698574 1.29586 0.619651)
(0.906973 1.32364 1.05166)
(0.724238 1.44958 0.490782)
(0.885082 1.22767 0.959565)
(1.10264 1.32096 0.886923)
(0.988041 1.31178 0.943196)
(0.954413 1.24615 0.933143)
(1.10348 1.7198 0.757922)
(1.21941 1.72912 0.609753)
(0.927076 1.46855 0.478008)
(1.32386 1.62749 0.865914)
(0.692193 1.31247 0.930637)
(0.724347 1.03557 0.539249)
(0.811665 1.23482 0.529911)
(0.718827 1.29736 0.673301)
(0.7532 1.45163 0.801123)
(0.589441 1.43025 0.887798)
(1.62026 1.67629 0.683065)
(1.46339 1.83049 0.78312)
(1.68149 1.11164 0.763156)
(0.794724 1.33775 0.915198)
(1.2824 1.61243 0.840747)
(1.5902 1.05458 0.815061)
(1.43523 1.19898 0.794148)
(1.51505 1.21506 0.64852)
(1.50094 1.83955 0.870543)
(1.53436 1.7988 0.818932)
(1.24628 1.7416 0.703234)
(1.64921 1.32121 0.725769)
(1.57769 1.32887 0.62284)
(1.48302 1.3016 0.578441)
(1.53796 1.44645 0.645715)
(1.22513 1.15272 0.694392)
(1.5285 1.09769 0.748287)
(0.752281 1.35074 0.807586)
(1.17457 1.42003 0.932526)
(1.62625 1.12299 0.928071)
(1.62554 1.2414 0.892974)
(1.62203 1.14177 0.701291)
(1.30684 1.22571 0.804845)
(1.26979 1.65138 0.763853)
(1.41546 1.50131 0.717511)
(1.6916 1.29767 0.662306)
(1.37963 1.2357 0.842338)
(1.29858 1.09024 0.734992)
(1.27484 1.781 0.964936)
(1.60616 1.03266 0.912972)
(1.09607 1.16507 0.57441)
(1.70464 1.43059 0.71717)
(1.62306 1.25498 0.846275)
(1.50538 1.19011 0.850763)
(1.24501 1.66408 0.793132)
(1.41229 1.68793 0.936353)
(1.60314 1.04955 0.958252)
(1.59335 1.00289 0.954477)
(1.58752 1.00769 0.887677)
(1.60372 1.79567 0.808505)
(1.47446 1.81485 0.733071)
(1.62469 1.76299 0.787055)
(1.57563 1.66455 0.90945)
(1.61564 1.65558 0.687207)
(1.65818 1.62129 0.694182)
(1.67056 1.70396 0.862674)
(1.6209 1.54639 0.878062)
(1.63865 1.46678 0.73832)
(1.659 1.57112 0.67015)
(1.69604 1.46115 0.713104)
(1.63992 1.43795 0.694244)
(1.32962 1.16536 0.544559)
(1.40291 1.28878 0.768621)
(1.28385 1.77359 0.990997)
(0.836458 1.3456 0.953156)
(1.31995 1.74626 1.01919)
(1.51262 1.41633 0.651259)
(1.60085 1.26767 0.716219)
(1.14857 1.38644 0.881763)
(1.60481 1.28343 0.723927)
(1.68621 1.32201 0.701615)
(1.68906 1.35382 0.795283)
(1.52843 1.30133 0.895837)
(1.49771 1.2822 0.873433)
(1.73484 1.34075 0.776225)
(1.54575 1.28065 0.914577)
(1.59141 1.23115 0.979111)
(1.59607 1.26001 0.874481)
(1.60564 1.15219 0.977465)
(1.60728 1.08387 0.957593)
(1.6281 1.18107 0.923247)
(1.61284 1.06388 0.911331)
(0.812995 0.897104 0.643065)
(1.18481 1.28349 0.367322)
(1.12921 1.21964 0.57952)
(1.26579 1.79087 0.744057)
(1.33434 1.74895 0.660154)
(1.20374 1.73962 1.01064)
(1.38879 1.65392 0.688616)
(1.2828 1.75947 0.630496)
(1.27031 1.71491 0.79264)
(1.24378 1.68142 1.043)
(1.32205 1.74043 0.940955)
(1.38618 1.84897 0.849807)
(1.30457 1.73777 0.823712)
(1.62312 1.07597 0.800197)
(1.5943 1.09328 0.744865)
(1.55104 1.07108 0.771355)
(1.48063 1.07347 0.796955)
(1.52543 1.04479 0.808924)
(1.61811 1.07038 0.864624)
(1.598 1.04292 0.859919)
(1.65321 1.10601 0.865378)
(1.56933 1.02666 0.841823)
(1.2446 1.7055 0.751736)
(1.36648 1.56007 0.821376)
(1.32557 1.61658 0.676339)
(1.26218 1.70195 0.694834)
(1.05663 1.55238 0.609419)
(1.03839 1.51426 0.67538)
(1.42864 1.60774 0.828306)
(1.45156 1.64072 0.959358)
(1.04411 1.55485 0.617306)
(1.20729 1.61392 0.669641)
(1.21734 1.13729 0.494177)
(1.14404 1.1807 0.629612)
(1.47184 1.20157 0.819724)
(1.15021 1.16972 0.643912)
(1.36739 1.1504 0.716005)
(1.68096 1.55283 0.846084)
(1.51509 1.71033 0.904781)
(1.20415 1.40161 0.664049)
(1.52296 1.33213 0.605617)
(1.4734 1.27175 0.788637)
(1.28193 1.21 0.959748)
(1.4224 1.51639 0.854793)
(1.18336 1.39416 0.67033)
(1.32096 1.6046 0.895952)
(1.5223 1.72774 0.928917)
(1.65179 1.53668 0.873146)
(1.09521 1.78236 0.582531)
(1.46216 1.75818 0.691446)
(1.32821 1.09465 0.630811)
(1.25257 1.72122 0.740651)
(1.40504 1.15089 0.769367)
(1.33021 1.09653 0.747963)
(1.31084 1.21204 0.730782)
(1.35132 1.1729 0.487562)
(1.42564 1.17876 0.790138)
(1.31902 1.20842 0.763574)
(1.35425 1.17936 0.731959)
(1.45327 1.19108 0.760076)
(1.45268 1.19331 0.716696)
(1.38707 1.19126 0.738938)
(1.34297 1.08542 0.626681)
(1.62291 1.20024 0.843457)
(1.2999 1.04888 0.683566)
(1.52313 1.76154 0.985157)
(1.56165 1.37593 0.608146)
(1.25268 1.71688 0.711222)
(1.73689 1.2825 0.830663)
(1.60346 1.26784 0.61123)
(1.65292 1.17773 0.685335)
(1.62105 1.17869 0.860001)
(1.62177 1.22677 0.620687)
(1.58256 1.38405 0.676507)
(1.69381 1.36754 0.691623)
(1.57077 1.18809 0.868237)
(1.52246 1.13654 0.77401)
(1.58312 1.12165 0.765984)
(1.43151 1.16437 0.83265)
(1.44973 1.11591 0.809877)
(1.62108 1.13533 0.684695)
(1.2112 1.20123 0.628442)
(1.43767 1.23692 0.875365)
(1.30462 1.1129 0.751158)
(1.42659 1.19136 0.842972)
(1.32917 1.21404 0.818844)
(1.69752 1.16071 0.846079)
(1.73041 1.20797 0.799696)
(1.7305 1.23991 0.825431)
(1.69551 1.162 0.706014)
(1.23943 1.21876 0.77276)
(1.37394 1.18571 0.703813)
(1.21669 1.16207 0.681412)
(0.90641 1.44628 0.848908)
(0.921785 1.13086 0.71442)
(1.01441 1.21155 1.13755)
(1.24515 1.53581 1.35836)
(1.16646 1.48166 1.47079)
(1.28692 1.12365 1.09317)
(1.13604 1.24258 1.19691)
(1.1058 1.32215 1.14691)
(1.35845 1.5703 1.00968)
(1.31457 1.68676 1.09932)
(1.06956 0.875072 1.25992)
(1.30971 1.50857 1.19268)
(1.43254 1.40847 1.50374)
(1.04476 0.862374 1.26072)
(1.17809 1.23291 1.0421)
(1.11348 1.16561 0.970548)
(1.33318 1.20218 0.924134)
(1.08661 1.20031 1.11307)
(1.59226 1.45491 1.41883)
(1.30773 1.28199 1.57878)
(0.585836 1.51462 1.16378)
(0.609844 1.36758 1.23203)
(0.770116 1.07919 1.55655)
(1.25493 1.40918 1.34722)
(0.631491 0.912071 1.19145)
(1.19572 1.09607 1.21082)
(1.19324 1.01652 1.31952)
(1.18802 0.987431 1.28853)
(1.12017 0.89695 1.23663)
(0.530597 1.54709 1.26634)
(0.831608 1.14607 1.16799)
(1.15319 1.04835 1.08689)
(1.17584 0.875368 1.13449)
(0.638164 1.3616 1.34629)
(1.25991 1.40703 1.13517)
(0.913162 1.41086 1.17659)
(1.13796 1.33144 1.2243)
(1.2039 1.30956 1.23285)
(0.976929 1.38259 1.29164)
(1.26136 1.39051 1.60883)
(1.31179 1.09505 1.36386)
(1.21427 1.28799 1.43715)
(1.09522 1.08617 1.08394)
(1.18712 1.27868 1.22246)
(1.2422 1.40673 1.36862)
(0.744391 1.30015 1.18895)
(1.38228 1.62532 1.09519)
(1.07249 1.30115 1.44223)
(1.23613 1.09941 1.20797)
(1.44417 1.47019 1.02596)
(1.50632 1.30782 1.50374)
(1.01372 0.812371 1.08316)
(0.796248 1.49876 1.51226)
(0.628789 1.36759 1.31784)
(1.33364 1.51976 1.06101)
(1.06681 1.39205 1.20261)
(1.16847 1.44586 1.20129)
(0.979238 1.24118 1.11094)
(1.1907 1.26048 1.23293)
(1.25607 1.32455 1.42997)
(1.35721 1.54017 1.12433)
(1.2476 1.30221 1.41557)
(0.910612 1.40966 1.5492)
(1.06721 1.23495 0.850071)
(1.34414 1.63128 1.20793)
(1.33261 1.56837 1.29728)
(1.28189 1.34226 1.47181)
(0.890988 1.42573 0.998132)
(1.1588 0.875085 1.18069)
(1.13048 1.12584 1.32474)
(1.00208 1.37312 1.19536)
(1.27966 1.17119 1.12175)
(1.3628 1.43018 1.01929)
(1.63805 1.5289 0.981488)
(1.6697 1.47853 1.31492)
(1.70943 1.26921 1.01433)
(1.62501 1.35421 1.13367)
(1.50707 1.30707 1.42424)
(1.51892 1.44653 0.954009)
(1.69885 1.40162 1.20875)
(1.55087 1.34828 1.46679)
(1.37193 1.21375 1.15405)
(1.78796 1.30983 1.08967)
(1.48362 1.29426 1.36654)
(1.42763 1.37679 1.0825)
(1.12442 1.26076 1.10521)
(1.39706 1.42505 1.45794)
(1.68773 1.18523 1.28706)
(1.74408 1.32767 1.20562)
(1.68184 1.38681 1.31462)
(1.78034 1.4379 1.11209)
(1.69499 1.33431 1.09063)
(1.47756 1.37659 0.947475)
(1.72882 1.28257 1.08955)
(1.3806 1.34841 0.99601)
(1.65332 1.47005 0.97437)
(1.42482 1.3858 0.982779)
(1.36593 1.37763 1.02546)
(1.68052 1.34819 1.10745)
(1.09133 1.25098 1.03248)
(1.0717 1.21762 1.1439)
(1.34507 1.24934 0.816739)
(1.36193 1.20797 0.638393)
(1.082 1.32152 0.748177)
(1.62342 1.46962 0.992576)
(1.37356 1.21299 1.19649)
(1.77036 1.2357 1.21226)
(1.34568 1.21227 1.19693)
(1.34578 1.22921 1.11245)
(1.48697 1.29323 1.43321)
(1.51811 1.23069 1.37529)
(1.27935 1.66827 1.231)
(1.44 1.3126 1.03109)
(1.73871 1.27228 1.0354)
(1.46424 1.30791 1.45928)
(1.39622 1.45989 1.41397)
(1.45698 1.55041 1.03749)
(1.3732 1.41135 1.53838)
(1.54922 1.5109 1.38593)
(1.39712 1.70914 1.0742)
(1.4597 1.289 1.43242)
(1.34088 1.36528 1.12115)
(1.4399 1.21435 1.31538)
(1.5114 1.49055 1.3792)
(1.54923 1.41164 1.00287)
(1.7552 1.24066 1.06407)
(1.70707 1.2177 1.0456)
(0.960066 1.25047 0.839447)
(1.62678 1.48758 1.37726)
(1.52904 1.24855 1.39481)
(1.21338 1.38807 1.5333)
(1.33975 1.44265 1.01114)
(1.42178 1.37413 1.0725)
(1.52068 1.40336 1.45862)
(1.55252 1.31797 1.26425)
(1.36739 1.23259 1.1196)
(1.76579 1.34297 1.20144)
(1.76519 1.35983 1.19869)
(1.52092 1.33833 0.96082)
(1.68062 1.20062 1.03885)
(1.70272 1.14432 1.27845)
(1.7129 1.35509 1.21075)
(1.77974 1.46544 1.15512)
(1.74513 1.38484 1.1972)
(1.44322 1.39601 0.877574)
(1.7991 1.25244 1.16614)
(1.48719 1.33495 0.831684)
(1.39442 1.22693 0.685891)
(1.67555 1.21579 0.715474)
(1.77826 1.18418 1.21165)
(0.844088 1.12505 0.534443)
(1.44956 1.27933 0.939143)
(1.18418 1.52575 0.579677)
(1.40852 1.30776 1.28172)
(1.62404 1.28902 1.13332)
(1.39689 1.26542 0.708585)
(1.71019 1.18605 1.17347)
(1.16299 1.28528 0.978712)
(1.45004 1.22025 0.72351)
(1.29313 1.22713 0.933177)
(1.29718 1.1689 0.965327)
(1.30157 1.18807 0.920504)
(1.2921 1.09314 0.607168)
(1.19666 1.23478 0.917445)
(1.01314 1.57511 0.747963)
(1.12324 1.18722 0.98424)
(1.12916 1.33895 0.372915)
(1.11657 1.01505 0.879375)
(1.45618 1.49614 0.819604)
(1.40777 1.32468 0.837998)
(1.43534 1.39105 0.593091)
(1.38718 1.29477 0.962592)
(1.59012 1.68142 0.879971)
(1.55366 1.68571 0.886395)
(1.49876 1.23991 0.783276)
(0.691467 1.30539 0.760594)
(1.39486 1.50512 0.630025)
(1.0383 1.59833 0.706427)
(0.963855 1.33982 0.754579)
(1.12659 1.21928 0.891569)
(1.4226 1.3944 0.577797)
(1.60754 1.27341 0.65462)
(1.33691 1.15166 0.64415)
(1.43089 1.28166 0.705955)
(1.43025 1.50501 0.730112)
(1.42495 1.27745 0.597326)
(1.57427 1.2577 0.745771)
(1.55133 1.3046 0.755271)
(1.64147 1.25755 1.05641)
(1.12847 1.39277 0.944744)
(1.58688 1.30077 1.01801)
(1.55425 1.23081 0.789668)
(1.65891 1.42606 0.858817)
(1.31045 1.32905 0.892631)
(1.66368 1.37305 0.822174)
(1.13451 1.40124 0.968362)
(1.32468 1.43733 1.07308)
(1.75884 1.40933 1.15623)
(1.79481 1.24007 1.1868)
(1.3372 1.32448 1.04007)
(1.32273 1.34631 1.01747)
(1.4527 1.35416 0.815785)
(1.7317 1.13259 1.20644)
(1.75666 1.13854 1.19397)
(1.44154 1.28623 0.962435)
(1.59654 1.29471 0.671642)
(1.38289 1.28051 1.09222)
(1.746 1.31698 1.22591)
(1.73555 1.26305 1.25884)
(1.72554 1.1502 1.168)
(1.30938 1.29991 1.02503)
(1.59673 1.28914 1.04928)
(0.801549 1.28411 0.424144)
(0.594196 1.41444 0.579507)
(1.24384 1.55904 0.962383)
(0.781194 1.36595 0.560281)
(1.36643 1.52396 0.64973)
(1.20443 1.33513 0.424719)
(0.686608 1.20665 0.687747)
(1.14421 1.46204 0.857107)
(0.44589 1.45991 0.615957)
(1.32323 1.45105 0.636576)
(1.2499 1.47384 0.455978)
(1.31266 1.50725 0.959227)
(1.26567 1.39391 0.664378)
(1.24875 1.57645 0.975375)
(1.06011 1.46588 0.609987)