/*--------------------------------*- C++ -*----------------------------------*\
| =========                 |                                                 |
| \\      /  F ield         | OpenFOAM: The Open Source CFD Toolbox           |
|  \\    /   O peration     | Version:  v1806                                 |
|   \\  /    A nd           | Web:      www.OpenFOAM.com                      |
|    \\/     M anipulation  |                                                 |
\*---------------------------------------------------------------------------*/
FoamFile
{
    version     2.0;
    format      ascii;
    class       surfaceScalarField;
    location    "0.1035";
    object      phi;
}
// * * * * * * * * * * * * * * * * * * * * * * * * * * * * * * * * * * * * * //

dimensions      [0 3 -1 0 0 0 0];
oriented        oriented;


internalField   nonuniform List<scalar> 
187200
(
9.3559e-06
1.91597e-06
-1.12689e-05
5.98625e-05
-2.54971e-05
-2.50096e-05
8.41958e-05
-1.18761e-05
-1.24573e-05
0.00010441
-1.0158e-05
-1.0056e-05
0.000120872
-6.64692e-06
-9.81567e-06
0.000139057
-6.06824e-06
-1.21164e-05
0.00015546
-1.81913e-06
-1.45835e-05
0.000173081
2.0373e-07
-1.78247e-05
0.000188616
3.96513e-06
-1.95007e-05
0.000199856
9.08544e-06
-2.03259e-05
0.000213061
7.27219e-06
-2.0477e-05
0.00022392
1.17141e-05
-2.25735e-05
0.000222468
1.87387e-05
-1.7286e-05
0.000196836
3.59682e-05
-1.03363e-05
0.000154274
4.4898e-05
-2.33538e-06
0.000117941
3.02668e-05
6.06629e-06
6.77247e-05
3.19527e-05
1.82632e-05
1.75404e-05
4.43063e-05
5.8779e-06
-8.05837e-05
0.000100795
-2.67092e-06
-0.000223964
0.000143427
-4.60289e-08
-0.000495834
0.000235762
3.61082e-05
-0.000687391
0.000240058
-4.85017e-05
-0.000831498
0.000288729
-0.000144622
-0.000880368
0.000310157
-0.000261287
-0.000868949
0.000340872
-0.000352291
-0.000801415
0.000369407
-0.000436941
-0.000692241
0.000395362
-0.000504536
-0.000551304
0.000410935
-0.000551872
-0.000385506
0.000406233
-0.000572031
-0.000217272
0.000388823
-0.000557057
-8.3e-05
0.000349188
-0.00048346
6.63227e-06
0.00030101
-0.000390642
4.28492e-05
0.000240572
-0.000276789
3.96301e-05
0.000176159
-0.00017294
1.85561e-05
0.000122373
-0.000101299
-8.92211e-07
8.24793e-05
-6.30316e-05
-1.04556e-05
5.66918e-05
-4.71288e-05
-1.36865e-05
4.38635e-05
-4.06327e-05
-1.15166e-05
3.43321e-05
-3.6502e-05
2.48383e-05
-3.63546e-05
3.82247e-06
1.88886e-05
-2.07953e-05
4.83953e-05
-3.44132e-05
-3.56569e-05
9.28475e-05
-2.68434e-05
-2.94851e-05
0.000125716
-1.59045e-05
-2.7122e-05
0.000149744
-5.31614e-06
-2.53588e-05
0.000168109
4.97062e-06
-2.94033e-05
0.000177918
2.39411e-05
-3.55701e-05
0.000182949
3.6581e-05
-4.14083e-05
0.000176252
6.21589e-05
-5.14971e-05
0.000162644
8.0633e-05
-5.79397e-05
0.000124965
0.00012081
-7.58588e-05
6.26371e-05
0.000165595
-9.15521e-05
-2.1923e-05
0.000201391
-9.80916e-05
-0.00012233
0.000244529
-0.000108153
-0.000241966
0.000298998
-0.000134463
-0.000417482
0.000372454
-0.000166671
-0.000586664
0.000449241
-0.000248107
-0.000767664
0.000531014
-0.000305709
-0.000930702
0.00063789
-0.000374056
-0.0010955
0.00074375
-0.000435522
-0.00126284
0.000873278
-0.000470179
-0.001369
0.000950476
-0.000604256
-0.00144204
0.00105623
-0.000694466
-0.00144123
0.00109495
-0.000785597
-0.00136632
0.00113895
-0.000872989
-0.00122744
0.00116206
-0.00093153
-0.00103758
0.00116959
-0.00096409
-0.000811337
0.00114673
-0.000962035
-0.000573636
0.00108979
-0.000921262
-0.000345688
0.0010079
-0.00084703
-0.000150716
0.000883443
-0.000729226
8.62147e-06
0.00073726
-0.000595588
9.98109e-05
0.000582347
-0.000432965
0.000128271
0.000452604
-0.000304905
0.000118451
0.000334417
-0.000202224
9.16036e-05
0.00024842
-0.000139094
6.06674e-05
0.000187849
-0.000100221
3.62704e-05
0.000147841
-7.95815e-05
1.3191e-05
0.00011806
-6.06485e-05
8.26896e-05
-4.46606e-05
2.07937e-05
1.16365e-05
-1.35417e-05
6.19736e-05
-3.86977e-05
-3.68951e-05
0.000104729
-2.78399e-05
-4.17589e-05
0.000136471
-5.06145e-06
-4.25852e-05
0.000153945
2.57268e-05
-4.85161e-05
0.000161112
5.52619e-05
-5.74585e-05
0.000153642
9.71192e-05
-6.57088e-05
0.000138609
0.000134516
-8.29015e-05
0.000113896
0.000193965
-0.000107094
6.08112e-05
0.000262484
-0.000128767
-2.34562e-05
0.000346417
-0.00014134
-0.000125436
0.000429565
-0.00016199
-0.000277977
0.000533893
-0.000179962
-0.000451187
0.000642287
-0.000224548
-0.000645481
0.00075346
-0.000260169
-0.000825631
0.0008647
-0.000312096
-0.000980671
0.000975285
-0.000371005
-0.00111776
0.00109716
-0.000429054
-0.0012492
0.0012491
-0.000479769
-0.00138818
0.00140309
-0.000520368
-0.00152623
0.00154008
-0.000528746
-0.00160296
0.00163165
-0.000604438
-0.00163724
0.00173367
-0.000643164
-0.00161322
0.00174754
-0.000676611
-0.00152687
0.00176964
-0.000717036
-0.00139118
0.0017557
-0.000729327
-0.00121783
0.00171598
-0.000719748
-0.0010188
0.00163397
-0.000686268
-0.000806521
0.00151515
-0.000637638
-0.000587464
0.00136372
-0.000574877
-0.000395497
0.00118459
-0.000493111
-0.00023463
0.00100154
-0.000425143
-0.000113062
0.000799363
-0.000338582
-2.88579e-05
0.000637104
-0.000268705
1.68968e-05
0.000489595
-0.000200933
3.39827e-05
0.000384639
-0.000153305
3.74084e-05
0.000307196
-0.000122772
3.008e-05
0.000256834
-0.000101666
1.36167e-05
0.000208363
-7.384e-05
0.000141533
-4.52264e-05
2.33374e-05
6.73753e-06
-1.84381e-05
6.31326e-05
-2.9967e-05
-4.85258e-05
0.000104206
-8.83088e-06
-6.00819e-05
0.000128267
3.81233e-05
-6.72464e-05
0.000134335
9.2149e-05
-7.249e-05
0.000125137
0.00014995
-8.54899e-05
0.00010705
0.000224762
-0.000109556
7.27628e-05
0.000303937
-0.000135134
1.92606e-05
0.000415325
-0.000167857
-5.99654e-05
0.00052896
-0.00018725
-0.000171113
0.000662084
-0.000204519
-0.000316396
0.000796912
-0.000222064
-0.000475923
0.000931473
-0.000238053
-0.000627357
0.00104889
-0.00025517
-0.000774546
0.00117874
-0.000278095
-0.000911087
0.00130822
-0.000306976
-0.00103625
0.00143889
-0.000338442
-0.00114533
0.00156173
-0.000355494
-0.00125284
0.00171736
-0.000360753
-0.00136694
0.00185459
-0.00033739
-0.00149937
0.00194774
-0.00027523
-0.00157008
0.00199589
-0.000293528
-0.00160259
0.00205192
-0.00028573
-0.00158572
0.0020086
-0.000277938
-0.00151858
0.00198733
-0.000284835
-0.00141888
0.00192924
-0.000273242
-0.00129493
0.00184722
-0.000255182
-0.00115382
0.00172823
-0.000235372
-0.00100067
0.00157466
-0.000212666
-0.000833351
0.00140469
-0.000208277
-0.000654042
0.00121185
-0.000206572
-0.000475808
0.00102933
-0.000206026
-0.000316603
0.000839965
-0.000199808
-0.000188505
0.000702534
-0.000193529
-9.79752e-05
0.000573272
-0.000174206
-3.65862e-05
0.000475411
-0.00015216
2.41317e-06
0.000405706
-0.00013751
1.70951e-05
0.000354041
-0.000111888
1.50731e-05
0.000291174
-8.07882e-05
0.000199489
-4.28828e-05
2.33757e-05
1.95216e-05
-3.61596e-05
6.3965e-05
5.55367e-06
-7.61104e-05
0.000108439
3.97853e-05
-9.30901e-05
0.000128879
0.00011689
-9.92073e-05
0.000126152
0.000202484
-0.000107608
9.95275e-05
0.000298826
-0.000122252
6.02496e-05
0.000417124
-0.000153084
1.7975e-05
0.000528456
-0.000182244
-2.68806e-05
0.000671135
-0.000210955
-9.66237e-05
0.000821189
-0.000222486
-0.000187929
0.00097925
-0.00022586
-0.000289201
0.00112165
-0.000223465
-0.000406158
0.00126559
-0.000217164
-0.00054282
0.00140062
-0.000215069
-0.000678651
0.00152556
-0.000210986
-0.000799082
0.0016376
-0.000208954
-0.000899626
0.001738
-0.000198561
-0.000975012
0.00180617
-0.000169054
-0.0010662
0.00190493
-9.63794e-05
-0.00117248
0.00197947
-1.8612e-05
-0.00132437
0.00201028
8.93557e-05
-0.00140214
0.00196938
0.000104276
-0.00145311
0.00198365
0.000119242
-0.00146716
0.0019078
0.00011486
-0.0014454
0.00187023
9.53477e-05
-0.00140246
0.0018029
8.33953e-05
-0.00134096
0.00171645
6.92689e-05
-0.00127191
0.00160462
5.45665e-05
-0.00117631
0.00146598
1.30661e-05
-0.00105521
0.00131594
-3.23479e-05
-0.000905805
0.0011477
-8.52548e-05
-0.00073662
0.000993944
-0.000133802
-0.000564158
0.00083414
-0.000166638
-0.000395775
0.000717459
-0.000183307
-0.000255305
0.000620588
-0.000187786
-0.00013994
0.000531176
-0.00017113
-5.65295e-05
0.000473469
-0.000151173
-6.13772e-06
0.000428247
-0.000124598
9.24377e-06
0.000360479
-8.46866e-05
0.000247229
-3.84967e-05
1.67096e-05
6.72034e-05
-6.43916e-05
6.62008e-05
7.42874e-05
-0.000118226
0.000111433
0.00013484
-0.000140288
0.000132133
0.000236852
-0.000140662
0.000123744
0.000350963
-0.00014009
9.48922e-05
0.00047892
-0.000151242
6.63185e-05
0.000631124
-0.000185426
3.81661e-05
0.0007763
-0.000219691
-4.83468e-06
0.000948028
-0.000233893
-6.4886e-05
0.00110493
-0.000223687
-0.000134539
0.00125424
-0.000205343
-0.000214158
0.00138429
-0.000183019
-0.000299195
0.00150757
-0.000156945
-0.000378579
0.00160744
-0.000127433
-0.000457949
0.00169806
-9.31337e-05
-0.000523403
0.00175987
-5.68182e-05
-0.000602248
0.00180724
9.59682e-06
-0.000700701
0.00182452
8.01e-05
-0.000803105
0.00184461
0.000162723
-0.000911087
0.00182657
0.000260886
-0.00107145
0.00184261
0.000328025
-0.00117737
0.00173849
0.00033681
-0.00126463
0.00173528
0.000335634
-0.00132677
0.00164518
0.000324756
-0.00135722
0.00160203
0.000298655
-0.00137219
0.001541
0.000276871
-0.00137183
0.00147284
0.000243248
-0.00135954
0.001389
0.000203337
-0.00132033
0.00128576
0.000141009
-0.00123374
0.00117773
5.16265e-05
-0.00111624
0.00105445
-2.42535e-05
-0.000949624
0.000938663
-0.000111332
-0.000769901
0.000821714
-0.000167296
-0.000570431
0.000725671
-0.000207682
-0.00038767
0.000655265
-0.000217438
-0.00023402
0.000575459
-0.000197933
-0.000111881
0.000528198
-0.000176868
-3.1608e-05
0.000487511
-0.000139538
5.71452e-06
0.000415138
-9.19803e-05
0.000290267
-3.73238e-05
1.8913e-05
0.000145596
-9.73058e-05
8.46139e-05
0.000179904
-0.000171319
0.000137339
0.000269804
-0.000187689
0.000161048
0.000392337
-0.000179194
0.000155565
0.000532218
-0.000175773
0.000114853
0.000698279
-0.000178646
0.000104332
0.000857519
-0.000215875
8.54461e-05
0.00102204
-0.00022685
6.93383e-05
0.00118075
-0.000216611
3.38905e-05
0.0013238
-0.000183426
-1.30997e-05
0.00144988
-0.000148642
-7.50898e-05
0.00155658
-0.000110301
-0.000142258
0.00164439
-6.96485e-05
-0.000209535
0.00170151
-2.67921e-05
-0.000278832
0.00173643
3.09301e-05
-0.000337938
0.00173644
8.25361e-05
-0.000402883
0.00172803
0.000144161
-0.000467917
0.00167713
0.00021243
-0.000569124
0.00164767
0.000298142
-0.000675071
0.00155817
0.000374347
-0.000835306
0.00156176
0.000441089
-0.000978702
0.00142884
0.000453044
-0.00108251
0.00140586
0.000433237
-0.00119385
0.00134684
0.000409676
-0.00127486
0.00131675
0.00036629
-0.00134596
0.00128222
0.000329874
-0.00139979
0.00124575
0.00028092
-0.00143492
0.00119742
0.000226714
-0.00144375
0.00113801
0.000156575
-0.00139168
0.00107099
5.46687e-05
-0.00130227
0.000987574
-2.25356e-05
-0.00115581
0.000897469
-0.000105266
-0.000966338
0.000808732
-0.000176494
-0.000739524
0.000716247
-0.00021739
-0.000503811
0.000672728
-0.000253175
-0.000320158
0.000621953
-0.000230148
-0.000159632
0.000576444
-0.000208773
-5.40725e-05
0.000543072
-0.00016112
8.97033e-07
0.000466459
-0.00010629
0.000331364
-4.02e-05
2.91259e-05
0.000247172
-0.000130704
0.000112084
0.000316337
-0.000219392
0.000178728
0.000433086
-0.000229927
0.000206148
0.000569685
-0.000204768
0.00020262
0.000721217
-0.00018547
0.000186566
0.000899351
-0.000185018
0.000198353
0.00105253
-0.000206798
0.00020079
0.00122004
-0.000200447
0.000192616
0.0013592
-0.000170278
0.000156991
0.00148353
-0.000124103
0.000114044
0.00157795
-8.51239e-05
6.09893e-05
0.00164957
-3.9934e-05
3.43784e-06
0.00168868
1.32619e-05
-5.86974e-05
0.00169108
7.2561e-05
-0.000118382
0.00167062
0.000125499
-0.00018106
0.0016156
0.000183522
-0.000245654
0.0015534
0.000239221
-0.000313487
0.00146145
0.000283512
-0.000399887
0.00139734
0.000336735
-0.000511168
0.00128331
0.000386144
-0.000647816
0.00126661
0.000431797
-0.000825796
0.00116906
0.000437755
-0.00094952
0.00111796
0.000411622
-0.00110088
0.00111225
0.00038595
-0.00122325
0.00109347
0.000345644
-0.00133079
0.00108376
0.000306004
-0.00142116
0.00107224
0.000263875
-0.0014929
0.00104906
0.000220099
-0.00153023
0.00102389
0.000151455
-0.00150958
0.000977704
7.26377e-05
-0.00144509
0.000915278
7.80305e-06
-0.00131932
0.000841662
-6.9958e-05
-0.00112781
0.000772736
-0.000155516
-0.000903525
0.000704821
-0.00021286
-0.000643457
0.000663595
-0.000250936
-0.000413504
0.000653865
-0.000261866
-0.000216173
0.000610887
-0.000231774
-7.99335e-05
0.000591083
-0.000184251
-6.33709e-06
0.000511834
-0.000118972
0.000369949
-4.49223e-05
4.71649e-05
0.000360505
-0.000160499
0.000154244
0.000470799
-0.000261542
0.000248907
0.00060873
-0.000270307
0.000294782
0.000751238
-0.000227428
0.000294386
0.00091581
-0.000194197
0.000294201
0.00108034
-0.000180809
0.000296473
0.00122497
-0.000174709
0.000301069
0.0013696
-0.000154153
0.000303067
0.00147972
-0.00012252
0.000281754
0.00157972
-7.48837e-05
0.000238549
0.00164088
-1.97276e-05
0.000189505
0.00166537
3.32442e-05
0.000128222
0.00165801
9.1951e-05
6.20839e-05
0.00161845
0.000138768
-3.50043e-06
0.00155099
0.000185211
-7.2854e-05
0.00145758
0.00022737
-0.000144716
0.001364
0.000261258
-0.000221192
0.00125446
0.000283465
-0.000299655
0.0011715
0.000304301
-0.000419544
0.00107203
0.000331165
-0.000535826
0.00102898
0.000353912
-0.000719961
0.000989809
0.000363388
-0.000876787
0.000926592
0.000348193
-0.00104345
0.000953095
0.000325819
-0.00119048
0.000939505
0.000300995
-0.00131793
0.00094583
0.00026538
-0.00143388
0.000943107
0.000245092
-0.00152809
0.000940924
0.000202335
-0.00159566
0.000921674
0.000169781
-0.00161405
0.000883338
0.000112756
-0.00156763
0.000829367
3.9491e-05
-0.00145694
0.000768632
-3.76579e-05
-0.00126905
0.00070717
-0.00012232
-0.00103186
0.000657167
-0.000189535
-0.000753925
0.000624271
-0.000238612
-0.000493882
0.000650303
-0.000256481
-0.000269576
0.000635986
-0.000249404
-0.000102563
0.00062594
-0.00020187
-1.49933e-05
0.000557181
-0.000132917
0.000406808
-5.18525e-05
6.57098e-05
0.000471325
-0.00017653
0.000198738
0.000630831
-0.000293061
0.000319645
0.000784713
-0.00029689
0.000380339
0.000928541
-0.000237996
0.000399098
0.00108091
-0.000183862
0.000402772
0.00122566
-0.000148994
0.000395393
0.00135978
-0.000127434
0.00039587
0.0014746
-0.000105479
0.00038584
0.0015589
-6.91551e-05
0.000375522
0.00160917
-1.91294e-05
0.000349997
0.00163843
2.7978e-05
0.000291651
0.00163388
8.98281e-05
0.000219596
0.00159166
0.000138404
0.000147942
0.00150792
0.000182189
7.34384e-05
0.00141077
0.000214719
-4.67183e-06
0.0012974
0.000238297
-8.31829e-05
0.00119194
0.000250576
-0.000166059
0.00108593
0.000251404
-0.000251262
0.0010053
0.000251403
-0.000372878
0.0009359
0.000257748
-0.000498312
0.000885389
0.000269025
-0.000662996
0.000871296
0.000283196
-0.000841105
0.000816501
0.000288199
-0.000997152
0.000836176
0.000272966
-0.00115417
0.000827288
0.000269234
-0.00128518
0.000837615
0.000239229
-0.00141545
0.000837039
0.000236335
-0.00153158
0.000836043
0.00022101
-0.00161963
0.000810851
0.000198876
-0.00166383
0.000776074
0.000151456
-0.00164476
0.000733367
7.69382e-05
-0.00155311
0.000686195
-9.21697e-06
-0.00138525
0.000637323
-9.80174e-05
-0.00114777
0.000598005
-0.000178312
-0.000868687
0.000561491
-0.000216305
-0.000571845
0.000596324
-0.000242863
-0.000321613
0.000631543
-0.000245788
-0.000129104
0.000642714
-0.000209282
-2.39903e-05
0.000591683
-0.000139615
0.000439439
-5.66213e-05
8.22821e-05
0.000571626
-0.000182584
0.000245261
0.000780129
-0.000312278
0.000393629
0.000947536
-0.000311192
0.000473124
0.00108734
-0.000238294
0.000508759
0.00121869
-0.000173413
0.000511976
0.00133925
-0.000116806
0.000505328
0.00144953
-8.31073e-05
0.000494255
0.00153503
-4.93576e-05
0.000470971
0.00159469
-1.25069e-05
0.000440257
0.00162201
1.78739e-05
0.000401872
0.00160973
6.70806e-05
0.000355561
0.00156022
0.000119972
0.000291042
0.00149126
0.000164925
0.000206895
0.00139217
0.000199893
0.000120456
0.00127532
0.000221889
3.30642e-05
0.0011562
0.000228586
-5.4646e-05
0.00105397
0.000225678
-0.000144809
0.000960119
0.000215975
-0.000238243
0.000890606
0.000208128
-0.000353278
0.000843794
0.000207141
-0.000479158
0.000799353
0.000211915
-0.000615309
0.000778867
0.00022858
-0.000794303
0.000750088
0.000245407
-0.000940619
0.000737987
0.000244505
-0.00109284
0.000729941
0.000249569
-0.00122985
0.000730162
0.000244464
-0.00136771
0.000733598
0.000241302
-0.00149982
0.000718612
0.000249543
-0.00161156
0.000696594
0.000225998
-0.0016807
0.00066631
0.000178903
-0.00169886
0.000625482
0.000126046
-0.00163651
0.00059298
3.0856e-05
-0.00148733
0.00055627
-6.81271e-05
-0.00124137
0.000527921
-0.000175874
-0.000948443
0.000496613
-0.000228046
-0.000636591
0.000524549
-0.000240076
-0.000369514
0.000590738
-0.000226272
-0.000151981
0.000645671
-0.000220489
-3.11821e-05
0.000615963
-0.000145079
0.000472067
-6.38088e-05
9.55038e-05
0.000654851
-0.000178728
0.000285364
0.000911826
-0.000321557
0.000458677
0.00109263
-0.000318411
0.000556826
0.0012209
-0.000231706
0.000604827
0.00132803
-0.000157337
0.000613254
0.00142033
-8.9508e-05
0.000605866
0.00150236
-4.54346e-05
0.000584953
0.00156113
-5.18502e-06
0.000549799
0.00159661
3.32355e-05
0.000501762
0.00159153
7.85133e-05
0.000446839
0.00155945
0.000105201
0.000382189
0.00148781
0.000137068
0.000314488
0.00138734
0.000171613
0.000237565
0.00126894
0.000200159
0.000150028
0.00115524
0.000207617
5.82842e-05
0.00104045
0.000207496
-3.28977e-05
0.000948645
0.000196507
-0.000127642
0.000869878
0.000184985
-0.000234222
0.000816667
0.000180519
-0.000340698
0.000774609
0.000175661
-0.000459145
0.000736199
0.000181602
-0.000578277
0.000701314
0.000196685
-0.000733009
0.000684795
0.000220025
-0.000864877
0.000644389
0.000225466
-0.00100554
0.00062951
0.000241098
-0.00113764
0.000621032
0.000241226
-0.00128483
0.000611999
0.000268793
-0.00142851
0.000598288
0.000263998
-0.0015551
0.000580581
0.0002426
-0.00165511
0.000556349
0.000209971
-0.00169657
0.00053875
0.000128193
-0.00166896
0.000517682
4.76878e-05
-0.00155816
0.00048772
-4.22491e-05
-0.00134443
0.000456537
-0.000142336
-0.00104545
0.000439815
-0.000242191
-0.000704673
0.000446768
-0.000262991
-0.000403096
0.000518489
-0.000229328
-0.000175189
0.000617307
-0.000199544
-3.88452e-05
0.000627544
-0.000147926
0.000500242
-6.70195e-05
0.000106331
0.000713103
-0.000164584
0.000320292
0.00101586
-0.000317999
0.000520441
0.00120707
-0.000314586
0.000639124
0.00132084
-0.000218629
0.000693745
0.00140802
-0.000134614
0.000706085
0.00147482
-6.6829e-05
0.000698175
0.00152732
-1.70532e-05
0.000670954
0.00155627
3.20758e-05
0.000625971
0.00156392
7.7669e-05
0.000563927
0.00154046
0.000113123
0.000491989
0.00148567
0.000145723
0.000412798
0.00139886
0.000168133
0.000331293
0.00129059
0.000178258
0.000247858
0.0011669
0.000185471
0.000166163
0.00104962
0.000187314
7.70275e-05
0.000949814
0.000179769
-1.51564e-05
0.000870486
0.000170342
-0.00010936
0.000801161
0.00016292
-0.000215058
0.000757628
0.000164736
-0.00031632
0.00071155
0.000164321
-0.000421809
0.000670374
0.000171314
-0.000530763
0.000627684
0.000182584
-0.000657094
0.000607814
0.000203312
-0.000770633
0.000549724
0.000208203
-0.00089479
0.000528813
0.000224855
-0.00102386
0.000509152
0.000240946
-0.00117076
0.000496141
0.000262765
-0.00131961
0.000482987
0.000264148
-0.00146412
0.000470023
0.000255069
-0.00158402
0.000465317
0.000210931
-0.0016647
0.00046351
0.000155921
-0.00167715
0.00043906
9.10712e-05
-0.00161082
0.000397539
2.38478e-05
-0.0014393
0.000357495
-7.24793e-05
-0.00115721
0.000341482
-0.000183755
-0.000802017
0.000358065
-0.000266487
-0.000455042
0.000437564
-0.000266051
-0.000199225
0.00055397
-0.000192478
-4.70251e-05
0.000623806
-0.000148463
0.000527109
-7.38946e-05
0.000110256
0.000751974
-0.000149128
0.00034332
0.00109362
-0.00031082
0.000568348
0.00129394
-0.000311896
0.000704742
0.00139502
-0.000210569
0.000766358
0.00146058
-0.000114176
0.0007789
0.00150346
-4.11838e-05
0.000768535
0.00153142
6.26542e-06
0.000731774
0.00153248
6.05582e-05
0.000678465
0.00151508
0.000102159
0.000612234
0.0014683
0.000138386
0.00053127
0.00139885
0.000167782
0.00043864
0.00130211
0.000189379
0.000342483
0.00119278
0.000193972
0.000254138
0.0010722
0.000183039
0.00017122
0.000965249
0.000167294
9.07907e-05
0.000872834
0.00015741
9.06722e-06
0.000802306
0.000149903
-8.25412e-05
0.000743557
0.000149212
-0.000181351
0.000700808
0.00015563
-0.000277398
0.000647248
0.000160349
-0.000371404
0.000598553
0.000165826
-0.000471717
0.000555465
0.000172531
-0.0005654
0.000519213
0.000182284
-0.000664158
0.000459268
0.000189215
-0.000771216
0.000431723
0.000204147
-0.000891833
0.00039892
0.00023085
-0.00102936
0.000385864
0.000247804
-0.00117623
0.000373391
0.000256466
-0.00132541
0.000375552
0.00024365
-0.00147411
0.000383738
0.00023028
-0.00158669
0.000375293
0.000200796
-0.00165031
0.000336095
0.000166588
-0.00163113
0.000281269
9.70881e-05
-0.00150249
0.000227506
1.35433e-06
-0.00125122
0.000197966
-0.000107763
-0.00089745
0.000221816
-0.000217516
-0.000513341
0.000329322
-0.000275867
-0.00022086
0.000486129
-0.000224639
-5.23087e-05
0.000603535
-0.000148279
0.000553909
-7.91096e-05
0.000116336
0.000756713
-0.000121076
0.000367886
0.00113083
-0.000288764
0.000613018
0.0013437
-0.000294894
0.000766169
0.00143986
-0.000197993
0.000833073
0.00148631
-9.26351e-05
0.000843012
0.00150555
-1.20264e-05
0.000825287
0.00150621
4.29315e-05
0.000785808
0.00148438
8.75749e-05
0.000729399
0.00144545
0.000126033
0.000655186
0.00138304
0.000159471
0.000569147
0.00130082
0.000184069
0.00047226
0.00119852
0.00020048
0.000369397
0.00108995
0.000205683
0.000271359
0.000981853
0.00018839
0.000189583
0.000885586
0.000161439
0.000110119
0.000805702
0.000146596
3.51789e-05
0.000741349
0.000135896
-5.1381e-05
0.000687447
0.000142669
-0.000139588
0.000637579
0.000151435
-0.000230345
0.000581882
0.000156122
-0.000315859
0.000526081
0.000157987
-0.00040244
0.000481914
0.000160132
-0.000474069
0.000434565
0.000156277
-0.000559466
0.000380098
0.000164567
-0.00065
0.000344595
0.000177662
-0.000755766
0.000306606
0.000198079
-0.000879431
0.000289892
0.000219637
-0.00101418
0.000280083
0.000228059
-0.00117083
0.000295103
0.000237103
-0.00132311
0.000300133
0.000235876
-0.00146521
0.000279604
0.000237791
-0.00157278
0.000234781
0.000208881
-0.00161113
0.000168639
0.000150987
-0.00154239
9.25658e-05
6.61962e-05
-0.0013345
3.93781e-05
-4.9302e-05
-0.00101134
4.85264e-05
-0.000149862
-0.000599526
0.000162841
-0.000245337
-0.000251498
0.000396044
-0.000257942
-6.15915e-05
0.00056137
-0.00014774
0.000574337
-8.20177e-05
0.000116267
0.000740557
-0.000100111
0.00037762
0.00113729
-0.000267809
0.000637516
0.00136331
-0.000279503
0.000804464
0.00145697
-0.00018406
0.000879
0.00148994
-7.81677e-05
0.000887485
0.00148392
1.31416e-05
0.000865006
0.00146138
6.73118e-05
0.000818372
0.00141741
0.000113607
0.000756838
0.00136212
0.000144871
0.000682292
0.00128758
0.000170008
0.000594944
0.00119664
0.000191532
0.000494582
0.00109323
0.000205648
0.000392358
0.000990671
0.000201506
0.000295273
0.000892635
0.000186303
0.000208996
0.000808868
0.000162996
0.000134526
0.000738575
0.000141596
6.5975e-05
0.000674827
0.000135073
-1.50643e-05
0.000630197
0.000138289
-9.88402e-05
0.000576243
0.000145112
-0.000177386
0.000513971
0.000146458
-0.00025867
0.000461164
0.000146201
-0.000329827
0.000416149
0.000136921
-0.000394824
0.000366308
0.000133253
-0.000465178
0.000312469
0.000137983
-0.000542208
0.000273358
0.000148267
-0.000632166
0.000230279
0.000166285
-0.000730882
0.000207453
0.000181156
-0.000856052
0.00020544
0.000199813
-0.000995781
0.00021651
0.000218322
-0.00114688
0.000205305
0.000245928
-0.00130637
0.000184458
0.000254636
-0.00144702
0.000134651
0.000240779
-0.00153406
6.15886e-05
0.000194089
-0.0015233
-3.56785e-05
0.000117482
-0.00138003
-0.000118751
1.48608e-05
-0.00108621
-0.00014747
-9.78229e-05
-0.000688016
-3.97097e-05
-0.000195643
-0.000287226
0.000232318
-0.000237064
-7.05125e-05
0.000509443
-0.000164787
0.000582961
-7.9134e-05
0.000130833
0.000648406
-3.8683e-05
0.000403725
0.00108387
-0.000219481
0.000675988
0.00133314
-0.0002421
0.000861282
0.00142632
-0.000154647
0.000937898
0.00145054
-3.72139e-05
0.000940079
0.00142971
5.2037e-05
0.000905076
0.00138695
0.000109429
0.000852784
0.00132269
0.000147016
0.000789388
0.00125485
0.000170665
0.000715168
0.00117412
0.000187681
0.000632116
0.0010861
0.000193591
0.000538573
0.000991392
0.000195384
0.000438651
0.000898763
0.000191831
0.000341219
0.000812843
0.000177223
0.000251535
0.00073911
0.000159442
0.000170785
0.000677
0.000142326
8.9248e-05
0.000622395
0.000133969
1.734e-05
0.000566871
0.000135234
-5.04428e-05
0.000507685
0.00013634
-0.000128888
0.00046013
0.000132285
-0.000207615
0.000413505
0.000126386
-0.000268131
0.000359769
0.000116896
-0.000325793
0.000310834
0.000113136
-0.000386186
0.000258317
0.000114546
-0.000451343
0.000214546
0.000123968
-0.000526422
0.000170502
0.000134856
-0.000609474
0.000140283
0.000150221
-0.000718415
0.000138927
0.000175454
-0.000839335
0.00012791
0.000209519
-0.000985904
0.00010975
0.000242124
-0.00114743
8.27545e-05
0.000263229
-0.00130407
2.86151e-05
0.000262673
-0.00142663
-4.94203e-05
0.000233573
-0.00146843
-0.000163415
0.000169538
-0.00138695
-0.000274116
7.38811e-05
-0.0011516
-0.000346993
-3.58273e-05
-0.000781298
-0.000272766
-0.000137243
-0.000346998
-6.58009e-06
-0.000195404
-6.94449e-05
0.000418119
-0.000186231
0.000584535
-7.10198e-05
0.000123555
0.000541517
-1.66659e-05
0.000387056
0.00102828
-0.000207905
0.000672389
0.00129237
-0.000244562
0.000874434
0.00138501
-0.000160728
0.000965672
0.00139807
-3.87725e-05
0.000972113
0.00135613
6.71293e-05
0.000944081
0.00129227
0.000122717
0.000886971
0.00122024
0.000159555
0.000810665
0.00115168
0.000179471
0.000727804
0.00106485
0.000192129
0.000642756
0.000973266
0.000197879
0.000554416
0.000884717
0.000195015
0.000465745
0.000800454
0.00018698
0.000379987
0.000727787
0.000170813
0.00029881
0.000666365
0.000153922
0.000224887
0.000610042
0.000140881
0.000152315
0.000560327
0.000134639
7.31839e-05
0.000512423
0.000133578
-1.96006e-05
0.000468263
0.000132207
-9.44517e-05
0.000415917
0.000119064
-0.000160795
0.00036717
0.000112678
-0.000215368
0.000311593
0.000102748
-0.000269846
0.000264399
0.000100912
-0.000322885
0.000212288
9.90685e-05
-0.000378501
0.00016583
0.000104331
-0.000440251
0.000118114
0.000114138
-0.000508532
7.84072e-05
0.000130156
-0.000589572
5.90008e-05
0.000160967
-0.000692432
3.40496e-05
0.000196719
-0.000818812
5.1802e-06
0.000230949
-0.000969802
-2.44232e-05
0.000258167
-0.00113213
-8.05861e-05
0.00027153
-0.00128138
-0.000158969
0.000258796
-0.00137241
-0.00028423
0.000211843
-0.00135359
-0.000421348
0.000128412
-0.00117888
-0.000551876
3.01821e-05
-0.000834194
-0.000534664
-8.2791e-05
-0.000416313
-0.000270936
-0.000153524
-7.40321e-05
0.000233764
-0.000157925
0.000565251
-5.47494e-05
0.000155873
0.000336813
4.88311e-05
0.000398568
0.00090747
-0.000121886
0.000689468
0.00118763
-0.000186157
0.000898763
0.0012874
-0.000111689
0.00100031
0.00129371
2.81773e-06
0.000998717
0.00125362
0.000104105
0.000952967
0.00118215
0.000155869
0.000889011
0.00109417
0.000190021
0.000828249
0.00101127
0.000201175
0.000770107
0.000920952
0.00020204
0.000704742
0.000841293
0.000197339
0.000629647
0.00077069
0.000189122
0.000546963
0.000705943
0.000177195
0.000460908
0.000651412
0.000162429
0.000375009
0.00060477
0.000147493
0.000291269
0.000566752
0.000127028
0.000204959
0.000527121
0.000119517
0.000117767
0.000476946
0.000122669
2.3678e-05
0.000434693
0.000127658
-4.972e-05
0.000377346
0.000111969
-0.000117791
0.000330889
0.000104351
-0.000172825
0.000272438
9.41897e-05
-0.000226042
0.000225263
9.23527e-05
-0.000274194
0.000172412
8.80276e-05
-0.000323789
0.000124379
9.1045e-05
-0.000378086
7.07907e-05
0.00010162
-0.000439834
2.20807e-05
0.000118074
-0.000507951
-2.07739e-05
0.000147891
-0.000598717
-6.02646e-05
0.00018508
-0.000706681
-0.000110474
0.000223618
-0.000837417
-0.000156803
0.000263115
-0.000987006
-0.000227454
0.000296457
-0.00114531
-0.000310854
0.000310195
-0.00126842
-0.000449437
0.000288315
-0.00130941
-0.000603693
0.000223332
-0.00119065
-0.000816631
0.000145996
-0.000883895
-0.000870437
2.90202e-05
-0.000450871
-0.000619905
-8.40543e-05
-8.5381e-05
-2.03853e-05
-0.000111338
0.000503114
-2.32416e-05
0.000128817
0.000195348
1.26489e-05
0.00034705
0.000826051
-0.000136813
0.000640876
0.00110047
-0.000206666
0.000862461
0.00120012
-0.00013431
0.000984673
0.00118853
-1.70293e-05
0.00101835
0.00112985
9.01044e-05
0.00100235
0.00104006
0.000158084
0.0009584
0.000958407
0.000179719
0.000897475
0.000892431
0.000179765
0.000822125
0.000821832
0.00017447
0.000743528
0.000752958
0.000166931
0.00066178
0.000692154
0.000160284
0.000579611
0.000636362
0.00015175
0.000496954
0.000592246
0.000141822
0.000412932
0.000556501
0.00013229
0.000326842
0.000523493
0.000129349
0.000246658
0.000490201
0.000117103
0.00016492
0.00044444
0.000114243
8.10407e-05
0.000398955
0.000119617
-4.33955e-06
0.000342788
0.000119938
-7.4214e-05
0.000294546
0.000106217
-0.000134454
0.000236749
9.59279e-05
-0.000186184
0.000187226
8.97662e-05
-0.000230897
0.000131728
8.53972e-05
-0.000275885
8.06906e-05
8.86757e-05
-0.00032282
2.27498e-05
9.49765e-05
-0.000373588
-2.88877e-05
0.000101737
-0.000420263
-9.53743e-05
0.000121275
-0.00048457
-0.000152398
0.00015644
-0.000567479
-0.000222567
0.000195001
-0.00067632
-0.000285474
0.000237511
-0.000811066
-0.000377329
0.000284621
-0.000976463
-0.000472556
0.000327099
-0.00113515
-0.000642796
0.000352045
-0.00123039
-0.000841779
0.000333326
-0.00120827
-0.00109389
0.000255142
-0.00101929
-0.00120603
0.000146604
-0.000583359
-0.00107765
2.18199e-05
-0.000157544
-0.000418936
-2.72658e-05
0.00031997
2.5602e-05
9.39263e-05
8.62502e-05
1.51719e-05
0.000340177
0.000706014
-0.000126213
0.000627524
0.00100612
-0.000192992
0.000869341
0.00111473
-0.000156425
0.001004
0.00110695
-5.30816e-05
0.00104135
0.00104572
4.67828e-05
0.00100525
0.000954466
0.000121691
0.000940981
0.000867254
0.000155421
0.000887851
0.000791077
0.000154484
0.000831658
0.00072692