/*--------------------------------*- C++ -*----------------------------------*\
| =========                 |                                                 |
| \\      /  F ield         | OpenFOAM: The Open Source CFD Toolbox           |
|  \\    /   O peration     | Version:  v1806                                 |
|   \\  /    A nd           | Web:      www.OpenFOAM.com                      |
|    \\/     M anipulation  |                                                 |
\*---------------------------------------------------------------------------*/
FoamFile
{
    version     2.0;
    format      ascii;
    class       volVectorField;
    location    "0.1035";
    object      U;
}
// * * * * * * * * * * * * * * * * * * * * * * * * * * * * * * * * * * * * * //

dimensions      [0 1 -1 0 0 0 0];


internalField   nonuniform List<vector> 
64000
(
(-0.0107547 -0.013246 -0.00927648)
(0.0175989 -0.0127963 -0.00681181)
(0.0250891 -0.00441543 -5.04074e-06)
(0.0303667 -0.00350172 0.000959636)
(0.031913 -0.00241451 0.00133038)
(0.032635 -0.00293606 0.00175227)
(0.0325994 -0.0038985 0.00178595)
(0.0301781 -0.00452256 0.00223763)
(0.0294083 -0.00546657 0.00338295)
(0.0237098 -0.00537855 0.00399878)
(0.0173799 -0.00639909 0.00335913)
(0.00790436 -0.00653557 0.00834205)
(-0.00572161 -0.0123707 0.00548598)
(-0.0310288 -0.0171958 0.00381334)
(-0.0568571 -0.0179369 0.00411339)
(-0.0929502 -0.0180661 0.00237758)
(-0.117433 -0.000124057 0.000770778)
(-0.162744 -0.00471622 -0.00348395)
(-0.157268 -0.00943857 0.00392369)
(-0.220794 -0.0277354 -0.0153157)
(-0.18626 -0.0185286 -0.0184499)
(-0.0883892 -0.0216726 -0.0376605)
(-0.106505 -0.00480162 -0.0232269)
(-0.105494 -0.00133082 -0.0368977)
(-0.127191 0.00478705 -0.0477309)
(-0.12158 0.0128119 -0.05763)
(-0.110691 0.0230699 -0.0620268)
(-0.0739068 0.0333687 -0.0589728)
(-0.0396807 0.0407585 -0.0544015)
(0.00418077 0.0513437 -0.0413056)
(0.0481785 0.0498785 -0.0323691)
(0.0856881 0.0394328 -0.0258065)
(0.101646 0.0293671 -0.013045)
(0.0991119 0.0154575 -0.00579253)
(0.0853664 0.00672042 0.000534234)
(0.0674669 -0.00122429 0.00309237)
(0.049223 -0.00538748 0.0038364)
(0.0297023 -0.00511228 0.00457603)
(0.0159184 -0.00375949 0.00485739)
(0.00227839 -0.00241992 0.00307111)
(-0.00768961 0.00262541 -0.00572293)
(0.0100303 -0.0172435 -0.00531714)
(0.0268047 -0.0111028 -0.00246088)
(0.0382898 -0.00728988 -0.00121149)
(0.0443935 -0.00269174 -0.00172598)
(0.0450328 -0.000935408 -0.00194914)
(0.0441778 0.00271363 -0.00371716)
(0.0378806 0.00435272 -0.00303882)
(0.031249 0.00844024 -0.0082422)
(0.0144494 0.01559 -0.00375731)
(-0.00704793 0.0236377 -0.00821992)
(-0.0423853 0.0334508 0.000810635)
(-0.087524 0.0416888 -0.00419594)
(-0.13972 0.0615898 -0.00680438)
(-0.196831 0.074953 -0.0117545)
(-0.253306 0.0840714 -0.0177374)
(-0.326873 0.0925002 -0.045064)
(-0.432953 0.0941613 -0.0598163)
(-0.475665 0.100734 -0.0776438)
(-0.56285 0.100338 -0.0970908)
(-0.507662 0.131001 -0.0909986)
(-0.381547 0.146368 -0.125238)
(-0.381526 0.193953 -0.132809)
(-0.367887 0.215972 -0.14431)
(-0.362707 0.240243 -0.156346)
(-0.324066 0.261371 -0.162842)
(-0.277563 0.282313 -0.164279)
(-0.204937 0.297189 -0.152699)
(-0.131085 0.303402 -0.133234)
(-0.0573085 0.30633 -0.109806)
(0.00553755 0.291847 -0.0770717)
(0.0688781 0.26071 -0.0465052)
(0.106708 0.213324 -0.0391734)
(0.11928 0.161044 -0.0261708)
(0.114482 0.110911 -0.0130448)
(0.0961906 0.0711955 -0.00554736)
(0.0771525 0.0428357 -0.00125768)
(0.0532096 0.0277815 -0.000270191)
(0.0318943 0.0178964 0.00102316)
(0.00774908 0.00955819 0.000939313)
(-6.23165e-05 -0.00452827 0.0014016)
(0.0168958 -0.0228964 -0.00232521)
(0.0348515 -0.0179719 -0.00336104)
(0.0464026 -0.00583211 -0.00467358)
(0.0490325 0.00333817 -0.00627665)
(0.0472647 0.0141514 -0.00761572)
(0.0407882 0.0289778 -0.00855408)
(0.0262579 0.04277 -0.0105016)
(0.0121971 0.0668381 -0.00157769)
(-0.0162774 0.088686 -0.00489639)
(-0.0537401 0.115903 -0.00824835)
(-0.105375 0.147563 -0.0130569)
(-0.157896 0.181735 -0.0176048)
(-0.235097 0.210913 -0.0327369)
(-0.328589 0.231464 -0.0365686)
(-0.424623 0.246076 -0.043127)
(-0.505579 0.250414 -0.0604545)
(-0.593482 0.269645 -0.0797655)
(-0.631411 0.301495 -0.0978443)
(-0.703789 0.337647 -0.116049)
(-0.633275 0.375432 -0.101798)
(-0.480098 0.40945 -0.124599)
(-0.457769 0.466338 -0.123371)
(-0.433009 0.495883 -0.12295)
(-0.418851 0.527816 -0.126541)
(-0.375759 0.548761 -0.125326)
(-0.328822 0.56322 -0.120595)
(-0.262337 0.565615 -0.105003)
(-0.197888 0.555399 -0.0826136)
(-0.131411 0.534394 -0.0594444)
(-0.0768274 0.501689 -0.0399139)
(-0.0314436 0.453542 -0.0280941)
(0.00138334 0.381037 -0.0177375)
(0.024135 0.30798 -0.00899843)
(0.0381569 0.229003 -0.0107543)
(0.0447292 0.164602 -0.0110704)
(0.0457721 0.117919 -0.00749707)
(0.03723 0.0812981 -0.00534857)
(0.0266385 0.0551055 -0.00182881)
(0.00773276 0.0292285 0.000804098)
(0.00143112 -0.00891679 0.00189941)
(0.0191005 -0.0245142 -0.00153432)
(0.0408586 -0.0120351 -0.00412903)
(0.0491226 0.00453823 -0.00748453)
(0.047193 0.028341 -0.00816857)
(0.0438947 0.0522833 -0.00943541)
(0.0314876 0.0874986 -0.00961713)
(0.0138602 0.120081 -0.00591199)
(-0.0114273 0.165755 -0.0106655)
(-0.0561607 0.205156 -0.0129923)
(-0.101447 0.249361 -0.0175516)
(-0.164251 0.287344 -0.0248078)
(-0.244906 0.31682 -0.0283563)
(-0.335299 0.333299 -0.0297342)
(-0.41907 0.355587 -0.0328647)
(-0.497748 0.37901 -0.03744)
(-0.563456 0.4104 -0.0534304)
(-0.63823 0.439675 -0.0639585)
(-0.662527 0.484183 -0.0742528)
(-0.722795 0.531332 -0.0786259)
(-0.639806 0.562838 -0.0428094)
(-0.465215 0.589138 -0.0461984)
(-0.430275 0.629711 -0.0381169)
(-0.405228 0.63503 -0.0292984)
(-0.391984 0.648161 -0.0278638)
(-0.357779 0.647858 -0.023185)
(-0.322593 0.640466 -0.0197223)
(-0.272716 0.620894 -0.0117939)
(-0.225912 0.594729 0.000140705)
(-0.180148 0.560947 0.00736415)
(-0.149945 0.519003 0.0120895)
(-0.123579 0.472917 0.010741)
(-0.0994175 0.412127 0.00471485)
(-0.0762097 0.350096 -0.00310984)
(-0.0520489 0.271504 -0.00646445)
(-0.0214669 0.204644 -0.0109955)
(-0.000450303 0.150632 -0.0112575)
(0.00801532 0.114539 -0.00852132)
(0.0161182 0.0815822 -0.00398102)
(0.00606115 0.0423023 0.000577847)
(0.00127673 -0.00985744 0.000278151)
(0.0246303 -0.0140368 -0.00403153)
(0.0480269 0.00273972 -0.00815339)
(0.0574257 0.0359594 -0.00910359)
(0.0551213 0.0730865 -0.00895923)
(0.0496122 0.118394 -0.0160079)
(0.0324079 0.173174 -0.0143381)
(0.00523867 0.232359 -0.00676362)
(-0.0263274 0.288675 -0.00834463)
(-0.0783891 0.336014 -0.0106971)
(-0.136581 0.374263 -0.0138033)
(-0.213334 0.395852 -0.0164073)
(-0.286421 0.418343 -0.0168716)
(-0.359187 0.443442 -0.0216263)
(-0.428642 0.474402 -0.0221723)
(-0.496991 0.507698 -0.023082)
(-0.550267 0.537626 -0.0278751)
(-0.606744 0.571409 -0.0264214)
(-0.611223 0.62432 -0.0203371)
(-0.657053 0.672762 -0.0270547)
(-0.574334 0.698486 0.00939744)
(-0.3933 0.708362 0.0169146)
(-0.355522 0.719062 0.0307081)
(-0.339771 0.689935 0.0368312)
(-0.338888 0.673664 0.0363245)
(-0.323874 0.646741 0.0420793)
(-0.308422 0.615147 0.0429829)
(-0.277214 0.577675 0.0466144)
(-0.251142 0.536136 0.0396742)
(-0.225219 0.49543 0.0310174)
(-0.206524 0.44978 0.0207397)
(-0.196141 0.415855 0.0138195)
(-0.186478 0.376894 0.00656719)
(-0.176726 0.345357 -0.00537189)
(-0.152821 0.282389 -0.0146621)
(-0.103611 0.213033 -0.0153988)
(-0.0523228 0.16499 -0.0144513)
(-0.0172346 0.134735 -0.0122194)
(0.00253754 0.100831 -0.00675555)
(0.00310145 0.0528183 0.000614267)
(0.00594209 -0.00428443 -0.000234409)
(0.0293727 0.00130035 -0.0067776)
(0.0612275 0.0278693 -0.00687873)
(0.0735279 0.0782415 -0.010202)
(0.0685513 0.135589 -0.015242)
(0.0658685 0.198722 -0.0195814)
(0.0498216 0.273042 -0.0150878)
(0.0170759 0.327552 -0.00670713)
(-0.0333019 0.372811 -0.00684163)
(-0.101539 0.407928 -0.00916541)
(-0.169108 0.438641 -0.0112344)
(-0.233094 0.466935 -0.0112464)
(-0.290228 0.501416 -0.00960299)
(-0.347961 0.531007 -0.00634801)
(-0.395914 0.561275 -0.00093046)
(-0.448306 0.590359 0.00476098)
(-0.480358 0.621241 0.00853842)
(-0.511869 0.652564 0.00845026)
(-0.509047 0.702995 0.00788816)
(-0.544125 0.741219 0.00937843)
(-0.463787 0.760675 0.0440239)
(-0.301058 0.718574 0.0542567)
(-0.281689 0.69983 0.0672392)
(-0.287477 0.63925 0.0767782)
(-0.300867 0.600343 0.0775918)
(-0.305031 0.557084 0.07634)
(-0.305429 0.515109 0.07337)
(-0.294397 0.472216 0.0662749)
(-0.281482 0.42502 0.0640078)
(-0.269549 0.385473 0.042206)
(-0.260406 0.341265 0.0302927)
(-0.249124 0.310291 0.0142556)
(-0.234822 0.283311 0.00429332)
(-0.238942 0.2715 -0.00725516)
(-0.240469 0.246763 -0.0185693)
(-0.175773 0.197553 -0.0155985)
(-0.0932664 0.165941 -0.0161068)
(-0.0408006 0.140417 -0.0126537)
(-0.00520394 0.108813 -0.00757327)
(0.00216806 0.0567766 0.00113832)
(0.00601419 0.00175166 -0.00154721)
(0.0382902 0.0153361 -0.0101016)
(0.0814109 0.0555912 -0.0108374)
(0.105987 0.110061 -0.0129684)
(0.102413 0.176112 -0.0183661)
(0.0995835 0.24793 -0.0217791)
(0.0627684 0.315945 -0.0161032)
(0.000776522 0.343369 -0.000314848)
(-0.0485798 0.38785 -0.0054697)
(-0.103858 0.426056 -0.00607069)
(-0.150499 0.471021 -0.00598531)
(-0.199751 0.514918 -0.0039143)
(-0.244705 0.556199 -0.000101694)
(-0.290947 0.590351 0.0044173)
(-0.329541 0.624326 0.012948)
(-0.364804 0.649747 0.0179708)
(-0.384975 0.678752 0.0248808)
(-0.404492 0.692137 0.0279136)
(-0.387695 0.716169 0.0272976)
(-0.411258 0.730566 0.0170091)
(-0.390265 0.747752 0.0406248)
(-0.257204 0.637927 0.0572457)
(-0.228717 0.598295 0.064763)
(-0.252407 0.533347 0.0748693)
(-0.276794 0.493725 0.0737782)
(-0.298438 0.454994 0.0721888)
(-0.315118 0.420614 0.0677071)
(-0.321102 0.385337 0.0595363)
(-0.321219 0.347976 0.0456455)
(-0.321754 0.312885 0.0289556)
(-0.318814 0.279198 0.0152614)
(-0.310713 0.250443 0.00170529)
(-0.29504 0.228992 -0.0056295)
(-0.286973 0.213447 -0.0132623)
(-0.289303 0.223043 -0.0211758)
(-0.227889 0.198029 -0.0220498)
(-0.12808 0.172345 -0.022701)
(-0.0561072 0.15176 -0.0176584)
(-0.0104203 0.118672 -0.0114462)
(0.00213821 0.0624331 -0.000594721)
(0.00696196 0.00829497 -0.00419844)
(0.0457648 0.034451 -0.0139775)
(0.09977 0.0830362 -0.0141993)
(0.126382 0.139133 -0.0122759)
(0.129468 0.198426 -0.0133081)
(0.119319 0.270322 -0.0157729)
(0.0596286 0.304152 -0.00584952)
(0.0106679 0.350628 0.0028111)
(-0.0171453 0.396352 -0.00177492)
(-0.0659464 0.451938 1.31886e-05)
(-0.105591 0.497209 0.000684182)
(-0.146801 0.536663 0.00697799)
(-0.182758 0.570617 0.0126521)
(-0.214462 0.598479 0.0211634)
(-0.23972 0.625415 0.0255273)
(-0.268376 0.640889 0.0303416)
(-0.284655 0.654265 0.0336507)
(-0.302821 0.651543 0.0329352)
(-0.296655 0.650416 0.0301868)
(-0.311185 0.62224 0.0139718)
(-0.343303 0.632132 0.0201135)
(-0.256652 0.53312 0.0392776)
(-0.207283 0.471675 0.0422977)
(-0.23893 0.428176 0.0535346)
(-0.271012 0.395722 0.0558534)
(-0.304327 0.369996 0.0563821)
(-0.331323 0.345085 0.0565635)
(-0.349374 0.318214 0.0482688)
(-0.361134 0.290629 0.037619)
(-0.367931 0.259742 0.0148124)
(-0.369382 0.227705 0.00478294)
(-0.359592 0.20209 -0.00468847)
(-0.343868 0.188805 -0.0121023)
(-0.323027 0.17794 -0.0154204)
(-0.328346 0.198081 -0.0249411)
(-0.277792 0.201969 -0.0219437)
(-0.162583 0.178264 -0.0233814)
(-0.0747708 0.161401 -0.0180483)
(-0.0155464 0.12616 -0.011064)
(0.00300239 0.0666294 0.000197494)
(0.00549515 0.0227976 -0.0071877)
(0.0541809 0.0668388 -0.0180926)
(0.120148 0.12261 -0.019791)
(0.152936 0.178878 -0.0144465)
(0.161714 0.239459 -0.0150638)
(0.132921 0.29289 -0.0159412)
(0.0806344 0.326498 -0.00636846)
(0.040637 0.387312 0.00133606)
(0.0163585 0.424915 0.00813044)
(-0.0149392 0.46749 0.00706239)
(-0.0533425 0.501704 0.0117016)
(-0.0843304 0.532153 0.0165159)
(-0.109743 0.554534 0.0251609)
(-0.133321 0.568886 0.0311735)
(-0.156031 0.574761 0.0338211)
(-0.18098 0.570886 0.0344248)
(-0.201115 0.565358 0.0333222)
(-0.226612 0.547376 0.0286152)
(-0.245389 0.533964 0.0222772)
(-0.260001 0.497079 0.00798293)
(-0.309758 0.492221 -0.000838937)
(-0.278396 0.446554 0.0147834)
(-0.216495 0.36673 0.0213943)
(-0.236646 0.350311 0.0300602)
(-0.274067 0.327228 0.0369309)
(-0.31271 0.311666 0.0407041)
(-0.349289 0.294422 0.0452339)
(-0.375258 0.272132 0.0399865)
(-0.396961 0.248859 0.0232026)
(-0.414011 0.214881 0.00616464)
(-0.415877 0.189033 -0.00328352)
(-0.402502 0.165553 -0.0113022)
(-0.386284 0.151628 -0.0150531)
(-0.355677 0.151 -0.0250986)
(-0.34374 0.163032 -0.0275606)
(-0.308369 0.198105 -0.0312251)
(-0.198665 0.182098 -0.026922)
(-0.0904451 0.171913 -0.0253208)
(-0.0208079 0.137169 -0.0141787)
(0.00393764 0.0739697 -0.00202737)
(0.0079157 0.0391987 -0.00985415)
(0.0634393 0.104683 -0.0260026)
(0.138958 0.164746 -0.0251049)
(0.178524 0.218927 -0.0158017)
(0.181571 0.273247 -0.0166422)
(0.152742 0.307227 -0.017343)
(0.11325 0.353895 -0.00721049)
(0.0817381 0.401913 0.00374521)
(0.0533893 0.443027 0.0109925)
(0.0269261 0.469353 0.0215835)
(0.00440929 0.4937 0.0215769)
(-0.0220272 0.507636 0.0300527)
(-0.0469537 0.512554 0.0359563)
(-0.0687127 0.507378 0.041571)
(-0.09086 0.492296 0.0418195)
(-0.117614 0.46958 0.0386219)
(-0.143831 0.446763 0.0330406)
(-0.173823 0.418976 0.0252907)
(-0.203132 0.400337 0.0167851)
(-0.230181 0.379774 0.00287008)
(-0.285393 0.366172 -0.0103159)
(-0.301305 0.360176 -0.00306294)
(-0.238478 0.301373 0.010236)
(-0.23187 0.298435 0.0145594)
(-0.274638 0.281008 0.0259352)
(-0.314471 0.272683 0.0321082)
(-0.356761 0.254091 0.0412339)
(-0.390855 0.237728 0.0336355)
(-0.421469 0.20766 0.0239523)
(-0.436534 0.180332 0.00614868)
(-0.441542 0.151639 0.00653015)
(-0.435017 0.128052 0.0147127)
(-0.415032 0.108942 0.0104358)
(-0.386867 0.109057 0.00755128)
(-0.364889 0.121513 -0.0166541)
(-0.332021 0.168515 -0.026757)
(-0.229361 0.179373 -0.0264011)
(-0.108885 0.172033 -0.0220046)
(-0.0268005 0.144818 -0.0134812)
(0.00477573 0.0784382 -0.000889329)
(0.0088997 0.0637207 -0.0124966)
(0.0726696 0.149102 -0.0322476)
(0.157164 0.212678 -0.0314752)
(0.202726 0.262233 -0.0199006)
(0.201982 0.301232 -0.0128613)
(0.17806 0.335642 -0.0170242)
(0.154016 0.376124 -0.0064543)
(0.12437 0.415066 0.000397261)
(0.10081 0.44524 0.00805503)
(0.0738417 0.467768 0.0232925)
(0.0474739 0.477342 0.0336938)
(0.0263147 0.476758 0.0438163)
(0.00712315 0.466237 0.0485346)
(-0.0171064 0.441083 0.048256)
(-0.0461885 0.414815 0.0477453)
(-0.0764817 0.382213 0.0408878)
(-0.109274 0.353788 0.031883)
(-0.145217 0.325787 0.0220194)
(-0.177782 0.306333 0.0133164)
(-0.212682 0.294263 -2.05272e-05)
(-0.265076 0.282735 -0.0101929)
(-0.294066 0.286967 -0.00817384)
(-0.238031 0.271115 0.00411061)
(-0.22238 0.264078 0.00688369)
(-0.263411 0.25097 0.0198504)
(-0.306091 0.239033 0.0274221)
(-0.353906 0.224165 0.0359032)
(-0.392238 0.201685 0.0319827)
(-0.426581 0.175892 0.0183991)
(-0.449836 0.144954 0.0276342)
(-0.464134 0.10901 0.0294105)
(-0.463695 0.0798617 0.0151972)
(-0.448017 0.061065 0.0108042)
(-0.412783 0.0580969 0.00148093)
(-0.373488 0.0714111 -0.00307652)
(-0.341527 0.121506 -0.0258002)
(-0.254371 0.159312 -0.0294401)
(-0.126774 0.16992 -0.0243092)
(-0.0303432 0.150108 -0.0154147)
(0.0041165 0.084701 -0.00260709)
(0.0103129 0.0830738 -0.0132651)
(0.0787342 0.189021 -0.0362999)
(0.171194 0.255267 -0.0348775)
(0.216448 0.294459 -0.0191222)
(0.221587 0.323063 -0.0118475)
(0.208234 0.356829 -0.0092006)
(0.189142 0.389993 -0.00836399)
(0.165061 0.415027 0.00342896)
(0.139713 0.436552 0.00914318)
(0.115859 0.446012 0.0199792)
(0.0946876 0.450856 0.0290229)
(0.0682237 0.440703 0.0492698)
(0.0391801 0.420612 0.053138)
(0.0172828 0.385079 0.0560122)
(-0.0100265 0.349521 0.0487469)
(-0.0459696 0.318796 0.0403443)
(-0.0821656 0.293096 0.0279951)
(-0.121531 0.270648 0.0172097)
(-0.155594 0.258225 0.00898277)
(-0.195636 0.251217 -0.00374604)
(-0.24638 0.244686 -0.0102869)
(-0.269558 0.246605 -0.00879072)
(-0.219742 0.253344 0.000586417)
(-0.203769 0.238374 0.00233482)
(-0.243809 0.222905 0.0150708)
(-0.283851 0.206678 0.0234425)
(-0.334395 0.190766 0.0306802)
(-0.37605 0.167028 0.0238226)
(-0.415366 0.139541 0.0366992)
(-0.448579 0.103089 0.0430279)
(-0.469368 0.0671017 0.0354083)
(-0.472882 0.0380355 0.0446098)
(-0.464259 0.0174022 0.0374357)
(-0.440363 0.0128262 0.0357775)
(-0.398395 0.0209329 0.024663)
(-0.355072 0.0656136 0.00151424)
(-0.268188 0.122297 -0.0265765)
(-0.140911 0.156503 -0.0259976)
(-0.0368406 0.148171 -0.0149914)
(0.00519091 0.0871635 -0.002484)
(0.0108245 0.104967 -0.0122804)
(0.0839067 0.230245 -0.0385762)
(0.177706 0.297612 -0.037766)
(0.228929 0.327474 -0.020162)
(0.244963 0.351112 -0.00732951)
(0.240038 0.375624 -0.0017247)
(0.222447 0.399986 0.00195314)
(0.199171 0.415355 0.00283891)
(0.179893 0.426094 0.0103373)
(0.157655 0.428997 0.0224875)
(0.132732 0.421295 0.0312691)
(0.106194 0.403029 0.0387672)
(0.0758797 0.376511 0.0492007)
(0.0413098 0.343966 0.053669)
(0.0139827 0.304608 0.0511159)
(-0.0174389 0.272846 0.037079)
(-0.0593224 0.252531 0.0236294)
(-0.0990893 0.235427 0.0130078)
(-0.132523 0.228711 0.00541147)
(-0.173703 0.222062 -0.00522676)
(-0.220447 0.219793 -0.00911757)
(-0.230274 0.221872 -0.00620029)
(-0.186674 0.238539 -0.000661081)
(-0.181413 0.214682 7.62305e-05)
(-0.214431 0.194795 0.011812)
(-0.253228 0.174697 0.0192994)
(-0.302316 0.152407 0.0235804)
(-0.347153 0.129821 0.0312002)
(-0.393576 0.0972153 0.0445482)
(-0.433567 0.0615335 0.0444519)
(-0.458821 0.0285135 0.0649381)
(-0.478259 -0.00837496 0.0495435)
(-0.481954 -0.0453741 0.0330508)
(-0.466586 -0.0664421 0.0104986)
(-0.424515 -0.055913 0.00370061)
(-0.37537 -0.0117411 0.00704129)
(-0.288568 0.0709009 -0.0042283)
(-0.157538 0.128881 -0.031894)
(-0.0420192 0.142636 -0.0149055)
(0.0048379 0.0912913 -0.00410934)
(0.0105153 0.112519 -0.0116469)
(0.0826421 0.254076 -0.0411729)
(0.178602 0.324571 -0.0419714)
(0.235817 0.352161 -0.0233196)
(0.262543 0.367446 -0.00523361)
(0.265203 0.380539 0.00462528)
(0.250263 0.393586 0.0104814)
(0.22887 0.402563 0.0133625)
(0.210064 0.408521 0.0163535)
(0.188524 0.403984 0.020874)
(0.166484 0.390469 0.0240227)
(0.13681 0.367058 0.0369183)
(0.102914 0.33698 0.0377685)
(0.0678541 0.304367 0.0436894)
(0.0323911 0.275227 0.0458872)
(0.00287525 0.241872 0.0351966)
(-0.0337708 0.225427 0.0193638)
(-0.0731034 0.211816 0.00985869)
(-0.106037 0.207896 0.00260383)
(-0.145087 0.200304 -0.00522419)
(-0.183401 0.198535 -0.00678107)
(-0.177534 0.20977 -0.00219389)
(-0.147237 0.221847 -0.0018174)
(-0.155228 0.190761 0.000791785)
(-0.182532 0.167747 0.0079054)
(-0.217577 0.139976 0.015394)
(-0.26253 0.118113 0.0161282)
(-0.307093 0.0894456 0.0343366)
(-0.357691 0.0580657 0.0407546)
(-0.397072 0.0265396 0.0629738)
(-0.441379 -0.0130999 0.0493385)
(-0.481331 -0.0643716 0.0386718)
(-0.498385 -0.111857 0.0235145)
(-0.484446 -0.144804 0.0115776)
(-0.441979 -0.147527 -0.00879608)
(-0.381593 -0.108209 -0.0075166)
(-0.296434 -0.00971534 -0.000460169)
(-0.174087 0.0842218 -0.0179273)
(-0.0476539 0.126475 -0.020453)
(0.00641364 0.0901753 -0.00244123)
(0.00941856 0.121881 -0.00916585)
(0.0821957 0.277665 -0.0401388)
(0.179707 0.353075 -0.0430401)
(0.243481 0.377961 -0.0239668)
(0.27714 0.385601 -0.00347217)
(0.28516 0.385944 0.0109148)
(0.275528 0.388849 0.0202919)
(0.259052 0.391365 0.0228771)
(0.242927 0.391823 0.0252458)
(0.220917 0.382877 0.0276272)
(0.195926 0.367066 0.0288205)
(0.166356 0.3396 0.0280418)
(0.131858 0.310856 0.0260309)
(0.0951672 0.277279 0.0293171)
(0.0554425 0.250079 0.0334771)
(0.0233743 0.225839 0.0290965)
(-0.00903484 0.2035 0.015168)
(-0.0452329 0.194934 0.00720501)
(-0.0759051 0.190917 0.000320613)
(-0.112354 0.180175 -0.00443104)
(-0.132439 0.184318 -0.00246192)
(-0.119674 0.204449 0.00112192)
(-0.112115 0.19476 0.000539197)
(-0.131382 0.16469 0.00304816)
(-0.152812 0.137749 0.00759066)
(-0.181757 0.107557 0.0116693)
(-0.221478 0.0830004 0.0233649)
(-0.266362 0.0527244 0.0308176)
(-0.308884 0.024502 0.0483843)
(-0.359653 -0.0104628 0.0453249)
(-0.41664 -0.0618708 0.0404947)
(-0.465529 -0.115555 0.0299728)
(-0.495274 -0.167848 0.0180798)
(-0.496706 -0.210145 0.00204316)
(-0.46111 -0.229564 -0.0145179)
(-0.393001 -0.201282 -0.0210023)
(-0.303967 -0.112133 -0.0190991)
(-0.186569 0.0291436 0.00186027)
(-0.055666 0.105517 -0.0275037)
(0.00499541 0.0922374 -0.00362603)
(0.00716048 0.104611 -0.00994892)
(0.0761314 0.273688 -0.0406674)
(0.174223 0.35527 -0.0426704)
(0.242862 0.381221 -0.0234207)
(0.28368 0.383698 6.18183e-05)
(0.299309 0.380392 0.0149791)
(0.297159 0.377875 0.0211114)
(0.283465 0.373012 0.0248402)
(0.267164 0.365305 0.0268111)
(0.246872 0.35367 0.0275084)
(0.222598 0.335527 0.0265069)
(0.191403 0.312425 0.0245885)
(0.154626 0.284162 0.0200257)
(0.115931 0.255318 0.0138631)
(0.0794552 0.229082 0.013357)
(0.0428333 0.212406 0.0176528)
(0.0138275 0.194 0.0114444)
(-0.0110848 0.183764 0.00341577)
(-0.0456513 0.176213 -0.00260986)
(-0.0711817 0.174039 -0.00137632)
(-0.0714407 0.185627 0.00167554)
(-0.0743856 0.186821 0.00308668)
(-0.088297 0.164931 0.00481598)
(-0.106941 0.137148 0.00656301)
(-0.127731 0.112005 0.00680325)
(-0.151479 0.081313 0.0104035)
(-0.185613 0.0549796 0.0172862)
(-0.221682 0.0233178 0.0314893)
(-0.266147 -0.00584117 0.0364489)
(-0.320835 -0.0528783 0.0366639)
(-0.379265 -0.103325 0.0322654)
(-0.432987 -0.161418 0.0270607)
(-0.471357 -0.220852 0.016248)
(-0.486827 -0.276527 0.00231173)
(-0.463903 -0.310441 -0.0156789)
(-0.403489 -0.300655 -0.0279513)
(-0.29773 -0.223112 -0.0314783)
(-0.188491 -0.0687918 -0.0190905)
(-0.0664371 0.0613224 -0.0193095)
(0.00631604 0.0830764 -0.00720093)
(0.00864054 0.108284 -0.00305537)
(0.0767728 0.283922 -0.0336633)
(0.173649 0.369298 -0.0386181)
(0.248329 0.392573 -0.0184967)
(0.298671 0.388916 0.00683245)
(0.322733 0.37654 0.0153186)
(0.32212 0.367128 0.0235598)
(0.308879 0.356414 0.0252308)
(0.295306 0.34833 0.0243851)
(0.276047 0.334404 0.0215929)
(0.252925 0.315926 0.0183426)
(0.22253 0.290412 0.0138783)
(0.184435 0.263884 0.00964014)
(0.144219 0.23582 0.00674955)
(0.10699 0.214321 0.003602)
(0.0735168 0.198842 0.00474748)
(0.0415606 0.192799 0.00330175)
(0.0150088 0.191139 0.000436448)
(-0.00478846 0.186426 -0.000597421)
(-0.017768 0.191012 0.000941466)
(-0.0307727 0.184728 0.00421658)
(-0.0484298 0.164221 0.00697658)
(-0.066309 0.142109 0.00908773)
(-0.0855475 0.115029 0.0100748)
(-0.105096 0.0911069 0.0105971)
(-0.12708 0.062517 0.0101573)
(-0.157165 0.0339168 0.0200944)
(-0.192041 0.0032981 0.0249621)
(-0.235273 -0.0352804 0.0259309)
(-0.289203 -0.0798384 0.0263709)
(-0.344574 -0.129444 0.0269769)
(-0.397579 -0.187938 0.0241257)
(-0.440187 -0.251371 0.0175326)
(-0.464973 -0.317989 0.004931)
(-0.454751 -0.368168 -0.0120294)
(-0.404316 -0.383042 -0.0287622)
(-0.308194 -0.320332 -0.0409203)
(-0.192987 -0.176285 -0.0312827)
(-0.0633383 0.0139337 -0.00978288)
(0.00593381 0.0749237 -0.0128348)
(-0.00142728 0.0829107 -0.0153788)
(0.0559969 0.266645 -0.040581)
(0.154809 0.362945 -0.0465541)
(0.237514 0.388996 -0.0258423)
(0.297652 0.388209 -0.00324683)
(0.333827 0.368865 0.0107165)
(0.3452 0.352129 0.0164658)
(0.337412 0.333107 0.0172776)
(0.323568 0.319761 0.0150656)
(0.302079 0.311548 0.0115727)
(0.275802 0.30411 0.0084073)
(0.243122 0.293603 0.00607943)
(0.204507 0.277399 0.00335137)
(0.165703 0.258312 0.00238528)
(0.133927 0.239595 0.00136803)
(0.105771 0.228525 0.0042357)
(0.0869218 0.227696 0.00134232)
(0.0633236 0.227713 -0.00274843)
(0.0367397 0.220551 -0.00117968)
(0.0116707 0.205986 0.000880232)
(-0.0121057 0.180597 0.00728412)
(-0.0297278 0.153489 0.00968095)
(-0.0497787 0.127828 0.0113507)
(-0.0685755 0.10168 0.0128914)
(-0.0872807 0.0758968 0.0144541)
(-0.109302 0.0478794 0.0122958)
(-0.135641 0.0175687 0.0117015)
(-0.168976 -0.0147677 0.0119234)
(-0.209636 -0.0569772 0.0132375)
(-0.25497 -0.104736 0.0157767)
(-0.304162 -0.157043 0.0173154)
(-0.353951 -0.221023 0.0172011)
(-0.398219 -0.290648 0.0128689)
(-0.429875 -0.3684 0.00347994)
(-0.432808 -0.433883 -0.0123479)
(-0.393055 -0.46976 -0.028618)
(-0.303873 -0.425187 -0.0536303)
(-0.190715 -0.292534 -0.0456513)
(-0.0623116 -0.0635041 -0.0134914)
(0.00322637 0.0596167 -0.00219702)
(-0.00152256 0.145818 -0.00452968)
(0.052885 0.344097 -0.0188051)
(0.145333 0.443487 -0.0303915)
(0.231655 0.465259 -0.0107752)
(0.300791 0.454283 -0.00309983)
(0.341897 0.421433 0.0128432)
(0.357375 0.38422 0.0155445)
(0.35334 0.368104 0.0182436)
(0.354605 0.378825 0.0155813)
(0.347252 0.387669 0.0110483)
(0.32768 0.389222 0.00529987)
(0.292774 0.381532 -8.66765e-05)
(0.247229 0.362252 -0.0038625)
(0.20094 0.33622 -0.00485524)
(0.165872 0.308512 -0.00341153)
(0.145365 0.285485 7.19704e-05)
(0.121716 0.267926 0.00453846)
(0.0882071 0.247017 -0.00362613)
(0.0547207 0.229754 -0.00398188)
(0.0239991 0.199792 -0.0014423)
(-0.00192218 0.176245 0.00572075)
(-0.0207781 0.143371 0.00905423)
(-0.0382083 0.118158 0.0108244)
(-0.0568395 0.0911224 0.0126898)
(-0.0755014 0.0655903 0.0149609)
(-0.0969512 0.0379921 0.0126068)
(-0.122815 0.00982153 0.00840757)
(-0.157266 -0.0214883 0.00337903)
(-0.198947 -0.0576468 0.00349766)
(-0.240531 -0.102583 0.00580733)
(-0.283963 -0.151594 0.00988269)
(-0.326325 -0.214141 0.0127945)
(-0.3665 -0.286031 0.0127397)
(-0.39934 -0.372537 0.00641958)
(-0.408934 -0.456078 -0.00770507)
(-0.377717 -0.520914 -0.0258254)
(-0.304766 -0.522388 -0.0575938)
(-0.19285 -0.398013 -0.0583755)
(-0.0550241 -0.181949 -0.032)
(0.00638883 0.0193843 -0.00308579)
(-0.0174292 0.227115 -0.0242568)
(0.0213405 0.466271 -0.0414226)
(0.112771 0.575915 -0.0498465)
(0.199282 0.614672 -0.03382)
(0.271844 0.604702 -0.0220423)
(0.320454 0.57317 -0.00470465)
(0.365203 0.526382 0.00351618)
(0.41113 0.497792 0.00450244)
(0.424704 0.492769 -0.00295806)
(0.397221 0.477967 -0.00813245)
(0.358719 0.456177 -0.0111258)
(0.308603 0.427434 -0.011711)
(0.252953 0.392141 -0.0111582)
(0.20416 0.354514 -0.00906368)
(0.171334 0.321262 -0.00700492)
(0.148896 0.288671 -0.00226662)
(0.129834 0.256365 0.00269493)
(0.105355 0.230762 0.00701989)
(0.0683682 0.211374 -0.000566409)
(0.0360302 0.186575 0.000944495)
(0.00769875 0.162164 0.00378625)
(-0.0132858 0.130432 0.00927889)
(-0.0282868 0.104933 0.0100575)
(-0.0470787 0.0777991 0.0125085)
(-0.064087 0.0519638 0.0112346)
(-0.0843752 0.0226999 0.0118724)
(-0.107204 -0.00520192 0.0098612)
(-0.137144 -0.0345126 0.0025065)
(-0.174885 -0.0668782 -0.0039993)
(-0.210349 -0.115629 -0.00801992)
(-0.248468 -0.16976 -0.0100017)
(-0.286768 -0.24084 -0.0114332)
(-0.324415 -0.318477 -0.011943)
(-0.36022 -0.416597 -0.0143633)
(-0.383868 -0.51396 -0.0231606)
(-0.382541 -0.611063 -0.0409825)
(-0.314554 -0.639561 -0.0645553)
(-0.231102 -0.539779 -0.0787975)
(-0.0898808 -0.257956 -0.0376068)
(0.0129355 0.0101973 -0.00208065)
(0.00117116 0.201733 0.000144812)
(0.040607 0.446253 -0.0375291)
(0.117156 0.57185 -0.0501599)
(0.204532 0.629587 -0.0463273)
(0.27686 0.635243 -0.0365992)
(0.326927 0.617203 -0.026219)
(0.364848 0.581284 -0.0196169)
(0.403667 0.534741 -0.00936201)
(0.419211 0.491107 -0.0109766)
(0.396269 0.45502 -0.0102901)
(0.364062 0.422746 -0.00987486)
(0.317729 0.393004 -0.00768141)
(0.264328 0.357896 -0.00520448)
(0.219333 0.326901 -0.00201057)
(0.187315 0.298755 1.16046e-05)
(0.164896 0.269935 0.00318802)
(0.145201 0.239756 0.00681863)
(0.122355 0.209629 0.00937239)
(0.087365 0.189548 0.0120779)
(0.0490333 0.170149 0.00327009)
(0.0140456 0.145542 0.00550774)
(-0.00752003 0.117353 0.00946195)
(-0.0212855 0.0904525 0.0109962)
(-0.039986 0.0621078 0.0136398)
(-0.0589092 0.0347166 0.00838775)
(-0.078796 0.00442323 0.0125149)
(-0.0985245 -0.0196428 0.0140967)
(-0.127714 -0.0484374 0.0103732)
(-0.173828 -0.0706782 0.0060687)
(-0.214681 -0.107864 0.00600035)
(-0.24979 -0.153652 0.00588195)
(-0.278474 -0.225202 0.00441058)
(-0.305102 -0.317865 -0.000168663)
(-0.326715 -0.456 -0.00943171)
(-0.347783 -0.603526 -0.0176816)
(-0.347164 -0.743526 -0.027573)
(-0.293941 -0.812106 -0.0509717)
(-0.184937 -0.771034 -0.0650775)
(-0.0625009 -0.476364 -0.0667625)
(-0.00186922 -0.10612 0.00827022)
(0.000965756 0.214321 -0.00280793)
(0.0381185 0.433619 -0.0338798)
(0.107193 0.556943 -0.0447255)
(0.187191 0.612881 -0.0429188)
(0.258015 0.619432 -0.0267448)
(0.312343 0.597341 -0.0214046)
(0.355681 0.559523 -0.0128879)
(0.399775 0.516984 -0.00518067)
(0.423346 0.472164 -0.00581387)
(0.407197 0.439641 -0.00499365)
(0.375378 0.409994 -0.00417807)
(0.32503 0.378009 -0.00236492)
(0.270832 0.342015 0.000544059)
(0.230359 0.310678 0.00267571)
(0.199405 0.282201 0.00416506)
(0.173802 0.252318 0.00655266)
(0.151203 0.221828 0.00963541)
(0.133911 0.185282 0.0145061)
(0.104377 0.161287 0.0145924)
(0.0644398 0.141826 0.0151884)
(0.0247345 0.123966 0.00771282)
(-0.000331292 0.0977488 0.0105691)
(-0.0162782 0.0711106 0.0121409)
(-0.0352944 0.042218 0.0114855)
(-0.0527727 0.0161778 0.0112366)
(-0.0667378 -0.00955933 0.0135942)
(-0.0828605 -0.0318773 0.0135104)
(-0.102646 -0.0586665 0.0132851)
(-0.136048 -0.0753029 0.00868091)
(-0.175471 -0.0922001 0.0053666)
(-0.218686 -0.114641 0.00527758)
(-0.265003 -0.163873 0.0072127)
(-0.324767 -0.232397 0.0119075)
(-0.372383 -0.350174 0.0171161)
(-0.382117 -0.490412 0.0142925)
(-0.370635 -0.654246 0.00721077)
(-0.324515 -0.776603 -0.00817217)
(-0.224119 -0.802409 -0.0324423)
(-0.0630906 -0.583763 -0.0439104)
(0.0210516 -0.149653 -0.015491)
(0.00691545 0.194547 -0.00297832)
(0.0458034 0.39428 -0.0275098)
(0.108397 0.525107 -0.0373941)
(0.185267 0.586312 -0.0366217)
(0.252728 0.603112 -0.0250104)
(0.304346 0.586054 -0.0155703)
(0.349121 0.549287 -0.00713013)
(0.390278 0.506289 -0.000627177)
(0.417083 0.452522 -0.00154114)
(0.410481 0.413525 -0.00136314)
(0.379399 0.377821 -0.000769266)
(0.328887 0.339997 0.00212151)
(0.278899 0.30603 0.00511641)
(0.243461 0.276056 0.00712772)
(0.213568 0.248499 0.00791966)
(0.188702 0.220052 0.00962057)
(0.160736 0.192412 0.0120778)
(0.141455 0.158439 0.0164379)
(0.11985 0.125351 0.0217024)
(0.0839262 0.107857 0.0195564)
(0.0391694 0.0941499 0.0185517)
(0.00695817 0.0723928 0.0142199)
(-0.0103168 0.0471874 0.0180063)
(-0.0281512 0.0219383 0.0149902)
(-0.0426535 0.000828676 0.0138673)
(-0.0565008 -0.0220627 0.0133643)
(-0.0732467 -0.0442688 0.0127542)
(-0.0897991 -0.0714658 0.0126399)