/*--------------------------------*- C++ -*----------------------------------*\
| =========                 |                                                 |
| \\      /  F ield         | OpenFOAM: The Open Source CFD Toolbox           |
|  \\    /   O peration     | Version:  v1806                                 |
|   \\  /    A nd           | Web:      www.OpenFOAM.com                      |
|    \\/     M anipulation  |                                                 |
\*---------------------------------------------------------------------------*/
FoamFile
{
    version     2.0;
    format      ascii;
    class       volVectorField;
    location    "0.063";
    object      U_0;
}
// * * * * * * * * * * * * * * * * * * * * * * * * * * * * * * * * * * * * * //

dimensions      [0 1 -1 0 0 0 0];


internalField   nonuniform List<vector> 
64000
(
(-0.00824446 -0.00946524 -0.00572014)
(0.0139983 -0.0100174 -0.003172)
(0.0206045 -0.00371696 0.00122996)
(0.0233731 -0.00374298 0.00158348)
(0.0235662 -0.00278174 0.00220849)
(0.023411 -0.00294289 0.00302598)
(0.0226193 -0.00346116 0.00324359)
(0.0192815 -0.00400044 0.0033291)
(0.0176283 -0.00507034 0.004688)
(0.0108283 -0.00440455 0.00405961)
(0.00489911 -0.00582805 0.00630119)
(-0.0090054 -0.00907757 0.00643818)
(-0.0293342 -0.0130101 0.00664897)
(-0.053183 -0.0179716 0.00415195)
(-0.084934 -0.018099 0.00520277)
(-0.119712 -0.0150117 0.00291394)
(-0.153004 0.00130149 0.0022564)
(-0.195129 -0.00410796 -0.00187961)
(-0.201278 -0.0101015 0.00619488)
(-0.257045 -0.0291139 -0.0159831)
(-0.222933 -0.0250715 -0.0264121)
(-0.107039 -0.0256044 -0.0397895)
(-0.0999192 -0.0115368 -0.0277563)
(-0.0957482 -0.00481659 -0.0373062)
(-0.107356 0.00204467 -0.0480711)
(-0.103763 0.0106301 -0.0569006)
(-0.0901497 0.0203628 -0.0618918)
(-0.0572667 0.0321332 -0.0567959)
(-0.0254085 0.0377538 -0.052716)
(0.01752 0.0538369 -0.033426)
(0.0672339 0.0443329 -0.0319401)
(0.0992412 0.0370499 -0.0226467)
(0.114986 0.0259107 -0.0112362)
(0.110219 0.012251 -0.00392324)
(0.09585 0.00423787 0.00209766)
(0.0757742 -0.00407962 0.00461563)
(0.0543123 -0.00726876 0.00655684)
(0.0325964 -0.00626609 0.00737533)
(0.0173052 -0.00457825 0.00765671)
(0.00259414 -0.00300897 0.00558975)
(-0.0061922 -0.00128289 -0.00242767)
(0.0102387 -0.0173121 -0.00206197)
(0.026306 -0.012716 -0.00054673)
(0.0343805 -0.00888651 -0.000578234)
(0.0389107 -0.00427498 -0.000235434)
(0.0386506 -0.0012735 -0.00113939)
(0.0366504 0.00279575 -0.00273458)
(0.0290445 0.00471478 -0.00253535)
(0.0221178 0.0103473 -0.00701551)
(0.00448581 0.0163179 -0.00438715)
(-0.0201547 0.0245469 -0.00805232)
(-0.0572441 0.0315162 0.000196325)
(-0.105652 0.0428554 -0.00401502)
(-0.157307 0.0646355 -0.00682931)
(-0.217238 0.0770739 -0.0107739)
(-0.275194 0.0859131 -0.0182525)
(-0.360772 0.0930211 -0.0431118)
(-0.46406 0.0956123 -0.0580198)
(-0.519124 0.101131 -0.0755256)
(-0.59824 0.0980535 -0.0996693)
(-0.553814 0.123969 -0.102952)
(-0.41336 0.139222 -0.127544)
(-0.387251 0.183594 -0.139442)
(-0.370437 0.210531 -0.147576)
(-0.35432 0.236046 -0.158641)
(-0.318254 0.258343 -0.16448)
(-0.265401 0.278641 -0.165812)
(-0.197082 0.295185 -0.154129)
(-0.119009 0.300506 -0.133916)
(-0.0506622 0.309094 -0.109759)
(0.0166782 0.289523 -0.0748654)
(0.0817293 0.259565 -0.047459)
(0.116616 0.208175 -0.0386947)
(0.128812 0.159111 -0.0268941)
(0.122736 0.107988 -0.0128578)
(0.102776 0.0681252 -0.00523613)
(0.0821242 0.0397108 -0.000777605)
(0.0561652 0.0251776 0.000335983)
(0.0334715 0.015419 0.00198201)
(0.00848995 0.00689215 0.00287953)
(-0.000421918 -0.00933131 0.00167414)
(0.0157279 -0.024025 -0.000971747)
(0.0341536 -0.0194958 -0.00166948)
(0.0433287 -0.00723233 -0.00222942)
(0.0447204 0.00465834 -0.00419057)
(0.0420382 0.0157985 -0.00600684)
(0.0338778 0.031756 -0.00735347)
(0.0199059 0.0456741 -0.00931041)
(0.00383113 0.0694661 -0.00200552)
(-0.0263894 0.0899217 -0.00460962)
(-0.0650593 0.117789 -0.00820666)
(-0.11816 0.150975 -0.0132135)
(-0.172834 0.184293 -0.0170003)
(-0.251998 0.210388 -0.0318796)
(-0.353871 0.228847 -0.0344432)
(-0.449461 0.242337 -0.0423908)
(-0.539164 0.24736 -0.0585047)
(-0.62446 0.268932 -0.0759074)
(-0.673585 0.29765 -0.0936447)
(-0.736939 0.330406 -0.115907)
(-0.678967 0.368866 -0.111446)
(-0.512733 0.396829 -0.123813)
(-0.462565 0.452942 -0.127598)
(-0.435354 0.486851 -0.123653)
(-0.410092 0.518559 -0.125481)
(-0.370197 0.541499 -0.123401)
(-0.316929 0.555082 -0.118966)
(-0.253706 0.559362 -0.104535)
(-0.184942 0.549279 -0.0831287)
(-0.121687 0.530204 -0.0594466)
(-0.0649081 0.501638 -0.0398262)
(-0.0237718 0.45304 -0.027699)
(0.0112291 0.380105 -0.0148783)
(0.0345172 0.30747 -0.00800405)
(0.0444312 0.228134 -0.010927)
(0.049945 0.162661 -0.0107616)
(0.0489955 0.113991 -0.00693366)
(0.039448 0.0762916 -0.00463705)
(0.0277659 0.0502637 -0.000798856)
(0.00837689 0.0231632 0.00222044)
(0.00030288 -0.014469 0.00236196)
(0.0178781 -0.0270333 -0.00143319)
(0.0400527 -0.0143412 -0.00199129)
(0.0485381 0.00439416 -0.00579459)
(0.0453301 0.0287206 -0.0061686)
(0.0396718 0.0543653 -0.00829839)
(0.0261413 0.089615 -0.00842311)
(0.00615166 0.122544 -0.00506224)
(-0.0205938 0.168014 -0.0102681)
(-0.0652953 0.208645 -0.0125374)
(-0.111311 0.251583 -0.0167489)
(-0.177815 0.283769 -0.0237352)
(-0.266424 0.310597 -0.0263355)
(-0.357905 0.326244 -0.0285151)
(-0.444527 0.348195 -0.030438)
(-0.522885 0.374262 -0.0370893)
(-0.59712 0.404164 -0.0506574)
(-0.669005 0.434158 -0.0592488)
(-0.70337 0.472954 -0.0682328)
(-0.751443 0.515151 -0.0765324)
(-0.681538 0.549456 -0.0537759)
(-0.495231 0.568251 -0.0469954)
(-0.430944 0.610553 -0.0430601)
(-0.404472 0.621547 -0.0297413)
(-0.381182 0.633922 -0.0260992)
(-0.350735 0.635926 -0.0204371)
(-0.309477 0.627788 -0.017015)
(-0.263287 0.610134 -0.00995889)
(-0.212225 0.584928 0.00165374)
(-0.168112 0.553286 0.00886354)
(-0.135435 0.514507 0.014431)
(-0.112049 0.470832 0.0128683)
(-0.0901916 0.417196 0.00779213)
(-0.0675892 0.351766 -0.000531463)
(-0.0460774 0.272759 -0.00449554)
(-0.0187316 0.202555 -0.00984129)
(0.000913107 0.146474 -0.0100538)
(0.00986309 0.109706 -0.00745538)
(0.0177423 0.0759196 -0.00302784)
(0.00674525 0.034688 0.00185651)
(0.000943477 -0.0155116 0.000775747)
(0.0239694 -0.0180948 -0.00495056)
(0.0493059 0.000435181 -0.00591525)
(0.0572409 0.0352616 -0.00751368)
(0.0534247 0.0761275 -0.00635456)
(0.0468567 0.122812 -0.0144072)
(0.0268861 0.180694 -0.011317)
(0.000144057 0.23774 -0.005231)
(-0.0328674 0.290211 -0.0073525)
(-0.0887242 0.330575 -0.0094302)
(-0.155304 0.361795 -0.0123056)
(-0.234968 0.380722 -0.0148516)
(-0.306304 0.4045 -0.0160674)
(-0.37996 0.432847 -0.0211148)
(-0.454805 0.465136 -0.0188802)
(-0.521163 0.497749 -0.0209337)
(-0.581337 0.527469 -0.0232351)
(-0.633067 0.563859 -0.0195938)
(-0.648457 0.605223 -0.0168475)
(-0.683741 0.648841 -0.0255316)
(-0.614563 0.67729 -0.00168344)
(-0.42193 0.68436 0.0134646)
(-0.353855 0.697135 0.0235215)
(-0.33632 0.677455 0.0363748)
(-0.324655 0.658542 0.0379678)
(-0.31355 0.634381 0.0444116)
(-0.293101 0.601559 0.0455078)
(-0.264983 0.5662 0.0494764)
(-0.234709 0.525657 0.042974)
(-0.210868 0.487035 0.035577)
(-0.18995 0.443364 0.0258629)
(-0.179941 0.409874 0.0185014)
(-0.173123 0.374868 0.010503)
(-0.169932 0.343927 -0.00123163)
(-0.150387 0.279486 -0.0121114)
(-0.103634 0.207783 -0.0132419)
(-0.051808 0.16001 -0.0129658)
(-0.0163964 0.128972 -0.0111447)
(0.00318659 0.0941502 -0.00545082)
(0.0038482 0.0434435 0.00181109)
(0.00510255 -0.0122575 0.000242163)
(0.0301133 -0.0033331 -0.00424747)
(0.0634861 0.0219621 -0.00491616)
(0.0785164 0.0724623 -0.00868445)
(0.072265 0.12918 -0.0133942)
(0.0668032 0.194961 -0.0184657)
(0.0459004 0.267985 -0.0137254)
(0.00313698 0.314166 -0.00212258)
(-0.0537922 0.355557 -0.00506957)
(-0.125345 0.388413 -0.00668374)
(-0.189007 0.419215 -0.0087212)
(-0.249967 0.4518 -0.00894073)
(-0.309428 0.487814 -0.00701188)
(-0.36658 0.516287 -0.00402622)
(-0.419578 0.547461 0.00256828)
(-0.468939 0.576609 0.0074618)
(-0.506553 0.60803 0.00783104)
(-0.540606 0.640533 0.00944273)
(-0.549669 0.684594 0.0105956)
(-0.574506 0.717306 0.00857659)
(-0.505945 0.74218 0.0317354)
(-0.329129 0.695412 0.0481128)
(-0.27777 0.677398 0.0574112)
(-0.280828 0.627555 0.0724051)
(-0.28545 0.584499 0.0761381)
(-0.292075 0.543827 0.0770894)
(-0.288353 0.500124 0.0743936)
(-0.280434 0.459905 0.068898)
(-0.26476 0.412892 0.0664305)
(-0.254928 0.375538 0.0466097)
(-0.245447 0.33305 0.036127)
(-0.235275 0.302346 0.0224224)
(-0.222596 0.277866 0.0103507)
(-0.230251 0.263776 -0.000663788)
(-0.237782 0.240136 -0.0140774)
(-0.17433 0.192017 -0.0132379)
(-0.0918125 0.160808 -0.0146558)
(-0.0399841 0.133983 -0.0115657)
(-0.00408023 0.102234 -0.00644767)
(0.00282821 0.046446 0.00226276)
(0.00854836 -0.00849019 0.000498515)
(0.0389175 0.00804595 -0.0100424)
(0.0813256 0.0466178 -0.00930521)
(0.105342 0.100912 -0.010266)
(0.102655 0.159873 -0.0123775)
(0.0979921 0.236195 -0.0155875)
(0.0476064 0.286661 -0.0058021)
(-0.0166777 0.323532 0.00328118)
(-0.0613583 0.367704 -0.0013866)
(-0.11728 0.412694 -0.00234746)
(-0.166536 0.460451 -0.0026383)
(-0.216938 0.503164 -0.000960709)
(-0.263569 0.541354 0.00196675)
(-0.309788 0.57549 0.00766158)
(-0.35078 0.60774 0.0143028)
(-0.38462 0.634139 0.0201388)
(-0.411592 0.659688 0.025785)
(-0.427079 0.675871 0.0294756)
(-0.425904 0.700722 0.0252363)
(-0.447057 0.71632 0.0169548)
(-0.436175 0.734465 0.0292023)
(-0.293803 0.63388 0.0508731)
(-0.228315 0.581135 0.0546003)
(-0.248124 0.524285 0.0685855)
(-0.262434 0.47943 0.0701572)
(-0.28496 0.44249 0.0705006)
(-0.297151 0.40616 0.0667189)
(-0.305386 0.372448 0.0604983)
(-0.303226 0.335897 0.0483206)
(-0.304744 0.301854 0.0337707)
(-0.302517 0.269591 0.0211396)
(-0.293941 0.241852 0.00975388)
(-0.282801 0.223237 -0.000466549)
(-0.281109 0.20749 -0.00668935)
(-0.285097 0.216446 -0.0164647)
(-0.225765 0.193232 -0.0200882)
(-0.127101 0.165798 -0.0214189)
(-0.0558307 0.145202 -0.0165167)
(-0.00956022 0.11067 -0.0102639)
(0.00270728 0.0507588 0.000583807)
(0.00817546 0.000190759 -0.00153987)
(0.0462822 0.0272983 -0.0129008)
(0.0998041 0.0765629 -0.0135246)
(0.124599 0.131217 -0.0104133)
(0.130157 0.189732 -0.011513)
(0.108446 0.257916 -0.010852)
(0.0470744 0.285977 0.000667451)
(0.00329055 0.342201 0.00570848)
(-0.0333712 0.389015 0.00211049)
(-0.0822395 0.44244 0.00343337)
(-0.124143 0.485714 0.00480389)
(-0.166146 0.52262 0.0105343)
(-0.201676 0.555022 0.0168803)
(-0.231628 0.582167 0.0236781)
(-0.260928 0.606355 0.0282549)
(-0.288079 0.622277 0.0324895)
(-0.30977 0.633087 0.0348041)
(-0.326711 0.636673 0.0346249)
(-0.329966 0.631001 0.0302842)
(-0.348022 0.616822 0.0153163)
(-0.387172 0.61644 0.0143168)
(-0.298522 0.545872 0.0326989)
(-0.219361 0.455618 0.035351)
(-0.237374 0.419769 0.0464158)
(-0.259411 0.380846 0.0510354)
(-0.290566 0.357351 0.0527974)
(-0.313414 0.330123 0.0536874)
(-0.332125 0.3046 0.0475309)
(-0.341071 0.275849 0.0391999)
(-0.349604 0.245656 0.0179868)
(-0.351682 0.214046 0.0107712)
(-0.342778 0.18959 0.00169998)
(-0.329476 0.175731 -0.00630347)
(-0.314738 0.16887 -0.0100852)
(-0.323271 0.189637 -0.0194601)
(-0.275513 0.196028 -0.0204323)
(-0.16088 0.171333 -0.0222388)
(-0.0740899 0.154256 -0.0176465)
(-0.0146746 0.117938 -0.0100861)
(0.00399971 0.0541324 0.00125438)
(0.00652147 0.0104832 -0.00534365)
(0.0532454 0.0577689 -0.0184731)
(0.118613 0.113847 -0.0192981)
(0.149604 0.168356 -0.0130316)
(0.156205 0.229477 -0.0142677)
(0.121768 0.273835 -0.0092967)
(0.0662859 0.316654 -0.001256)
(0.031209 0.372187 0.00591207)
(0.00276823 0.410631 0.0119807)
(-0.032085 0.451347 0.0118389)
(-0.0716336 0.489418 0.0161236)
(-0.102445 0.516059 0.0215948)
(-0.128044 0.538247 0.0284334)
(-0.152799 0.55032 0.0340658)
(-0.17708 0.55416 0.0359774)
(-0.201569 0.551358 0.0367401)
(-0.224738 0.543747 0.0355997)
(-0.250703 0.531734 0.0315195)
(-0.27309 0.517945 0.0253004)
(-0.296191 0.49394 0.0104195)
(-0.347751 0.480296 0.000318791)
(-0.321118 0.456586 0.00920176)
(-0.24213 0.356263 0.0169618)
(-0.235624 0.33915 0.0229556)
(-0.264368 0.312713 0.0307203)
(-0.298451 0.29803 0.0356254)
(-0.331273 0.279764 0.0404875)
(-0.357095 0.256571 0.0378568)
(-0.376163 0.232345 0.0238681)
(-0.393803 0.198696 0.00999491)
(-0.397504 0.174114 0.000227572)
(-0.385332 0.151113 -0.00495498)
(-0.370588 0.137272 -0.0111561)
(-0.344763 0.13935 -0.018211)
(-0.334993 0.1514 -0.0221007)
(-0.303885 0.190007 -0.0275454)
(-0.196771 0.17318 -0.0263557)
(-0.089715 0.163142 -0.0243718)
(-0.0198259 0.127563 -0.0134423)
(0.00479332 0.0597267 -0.000851331)
(0.00808689 0.0269141 -0.0083189)
(0.0622942 0.0973574 -0.0260992)
(0.136478 0.157801 -0.0255123)
(0.174392 0.211211 -0.016014)
(0.173275 0.260884 -0.0140754)
(0.140132 0.293921 -0.0121455)
(0.10129 0.343807 -0.00214182)
(0.0691431 0.389932 0.0108887)
(0.0380901 0.426611 0.0169355)
(0.0143199 0.453379 0.0269427)
(-0.0125831 0.474573 0.0241017)
(-0.0429467 0.48788 0.033966)
(-0.0657785 0.495358 0.0388064)
(-0.0882121 0.486263 0.0438294)
(-0.112351 0.470913 0.0425493)
(-0.138613 0.449012 0.0393892)
(-0.166312 0.4251 0.0342816)
(-0.195599 0.401103 0.0276891)
(-0.225944 0.387444 0.0195264)
(-0.26342 0.37006 0.00479779)
(-0.319309 0.358269 -0.00667267)
(-0.341217 0.360227 -0.00707048)
(-0.273102 0.299817 0.00625354)
(-0.234309 0.284888 0.00833857)
(-0.266172 0.26864 0.0185932)
(-0.300288 0.259046 0.0263371)
(-0.339631 0.239638 0.0348148)
(-0.372611 0.221205 0.0312517)
(-0.399923 0.190435 0.0241435)
(-0.41629 0.163477 0.00952215)
(-0.421633 0.135044 0.011276)
(-0.418453 0.113948 0.0177523)
(-0.399097 0.0943334 0.0152109)
(-0.376342 0.0961717 0.0090814)
(-0.356245 0.110056 -0.012237)
(-0.326191 0.157945 -0.0237373)
(-0.226879 0.171186 -0.0243751)
(-0.106593 0.162745 -0.0215632)
(-0.0255239 0.135463 -0.0124736)
(0.00599764 0.0637156 0.000294132)
(0.00874927 0.0470986 -0.0111071)
(0.0696012 0.138391 -0.0323748)
(0.153512 0.203189 -0.031297)
(0.193357 0.249549 -0.0173488)
(0.190462 0.285299 -0.0122754)
(0.167589 0.321068 -0.0122427)
(0.139317 0.362405 -0.00196999)
(0.108923 0.398611 0.00590382)
(0.0837445 0.42697 0.0140334)
(0.0560702 0.447269 0.02908)
(0.0280589 0.45216 0.0376678)
(0.011553 0.452888 0.0471621)
(-0.0117637 0.439698 0.04708)
(-0.0409801 0.41858 0.0500028)
(-0.0675854 0.390553 0.0461979)
(-0.0985959 0.360081 0.0386361)
(-0.131652 0.329637 0.0302549)
(-0.16296 0.304296 0.0224726)
(-0.199125 0.290899 0.0127008)
(-0.241702 0.275213 0.00299645)
(-0.291764 0.271337 -0.00609962)
(-0.328741 0.279446 -0.0106161)
(-0.276598 0.272955 -0.000159768)
(-0.229921 0.253198 -0.000761408)
(-0.255 0.239778 0.0108886)
(-0.293906 0.226084 0.0200408)
(-0.337703 0.208999 0.028517)
(-0.376146 0.185469 0.0283365)
(-0.407128 0.158121 0.018065)
(-0.430457 0.127876 0.030455)
(-0.444644 0.0932114 0.0314707)
(-0.446824 0.064673 0.0192585)
(-0.434428 0.0511393 0.0137847)
(-0.401359 0.0473386 0.00712245)
(-0.364124 0.0631467 0.000350451)
(-0.333163 0.107361 -0.0210237)
(-0.250278 0.150509 -0.0282733)
(-0.124684 0.158684 -0.0233681)
(-0.0283132 0.13904 -0.0150278)
(0.0049638 0.067553 -0.00123691)
(0.00933914 0.0677269 -0.0116124)
(0.0758546 0.181319 -0.0361108)
(0.164611 0.247708 -0.0343297)
(0.205929 0.28267 -0.0175974)
(0.211073 0.31226 -0.00991014)
(0.197077 0.343835 -0.00615231)
(0.174631 0.375052 -0.00478088)
(0.147844 0.39904 0.0090563)
(0.121504 0.418117 0.0132332)
(0.0977343 0.42632 0.0258555)
(0.075186 0.42838 0.0361059)
(0.0476047 0.416933 0.0522816)
(0.0221596 0.390006 0.055173)
(-0.00177323 0.356452 0.0550185)
(-0.0332051 0.324564 0.0463707)
(-0.0684912 0.293213 0.0347314)
(-0.105741 0.265665 0.0237713)
(-0.136833 0.245721 0.0153793)
(-0.176668 0.235791 0.00502192)
(-0.221706 0.227325 -0.000963986)
(-0.265168 0.22662 -0.0072374)
(-0.294126 0.236549 -0.0093827)
(-0.254687 0.261381 -0.00232848)
(-0.217728 0.24 -0.0032281)
(-0.23919 0.215593 0.00611841)
(-0.274141 0.196086 0.0153993)
(-0.320706 0.174741 0.0217064)
(-0.362348 0.150752 0.0188124)
(-0.398148 0.122308 0.0365852)
(-0.43083 0.08697 0.044492)
(-0.452358 0.053461 0.0409875)
(-0.454034 0.0276612 0.0519063)
(-0.44683 0.00385399 0.0406487)
(-0.431869 -1.35454e-05 0.0337167)
(-0.395864 0.0101114 0.0250598)
(-0.350572 0.0561418 0.00356857)
(-0.26242 0.110256 -0.0246536)
(-0.138399 0.147466 -0.0247676)
(-0.0342717 0.137346 -0.0141263)
(0.00613336 0.0710928 -0.00121359)
(0.00968336 0.0853546 -0.011527)
(0.0779941 0.218253 -0.039269)
(0.167809 0.285701 -0.0378052)
(0.216086 0.314542 -0.0192115)
(0.232105 0.336984 -0.00624909)
(0.225481 0.359574 0.000466303)
(0.205059 0.381327 0.00485834)
(0.180404 0.394569 0.00615745)
(0.159402 0.403942 0.016207)
(0.13626 0.405282 0.0264246)
(0.109875 0.3958 0.0353946)
(0.0835637 0.377023 0.0423786)
(0.0514205 0.348767 0.0544977)
(0.0213924 0.312891 0.0547636)
(-0.0065266 0.273079 0.045472)
(-0.043768 0.247214 0.028996)
(-0.0827153 0.221528 0.0174133)
(-0.113514 0.207951 0.00899851)
(-0.152287 0.199026 -0.000475164)
(-0.194708 0.196067 -0.00382998)
(-0.228649 0.197755 -0.00693701)
(-0.237011 0.220172 -0.00446001)
(-0.210778 0.248672 -0.0020335)
(-0.204384 0.225309 -0.00235468)
(-0.220431 0.190857 0.00275679)
(-0.250558 0.162701 0.0102222)
(-0.293044 0.134827 0.0148606)
(-0.335407 0.111237 0.0270403)
(-0.378728 0.0782641 0.0403476)
(-0.415966 0.0469034 0.0454737)
(-0.438064 0.0137486 0.0655018)
(-0.463719 -0.0243725 0.0470854)
(-0.471624 -0.0663142 0.035807)
(-0.453522 -0.087584 0.0157823)
(-0.413974 -0.0749977 0.00411562)
(-0.369423 -0.0257316 0.0103869)
(-0.283806 0.0592104 -0.00273175)
(-0.152159 0.115345 -0.0311086)
(-0.0392349 0.129337 -0.0144167)
(0.00668961 0.0713291 -0.00285582)
(0.00846421 0.0946193 -0.0104151)
(0.0768524 0.245153 -0.0413636)
(0.169005 0.316934 -0.0422478)
(0.223179 0.34268 -0.0224177)
(0.249357 0.356357 -0.00397364)
(0.249916 0.365501 0.00661949)
(0.231854 0.376867 0.012266)
(0.209027 0.38484 0.016082)
(0.189511 0.389948 0.0185834)
(0.166991 0.384015 0.0227825)
(0.143878 0.368951 0.0277139)
(0.112869 0.343989 0.0386577)
(0.0790344 0.311511 0.0405944)
(0.0427992 0.277283 0.0472038)
(0.0129325 0.240904 0.0415)
(-0.020577 0.209964 0.0213965)
(-0.0607635 0.19263 0.0115684)
(-0.0881012 0.183269 0.00368795)
(-0.124409 0.172491 -0.00400954)
(-0.159784 0.171193 -0.00518657)
(-0.173948 0.183726 -0.00273134)
(-0.169576 0.211293 0.00164244)
(-0.168121 0.218092 0.0014526)
(-0.184621 0.19539 0.0011006)
(-0.202645 0.163847 0.00202379)
(-0.222698 0.124009 0.00685808)
(-0.257267 0.0980584 0.0102055)
(-0.297954 0.0674057 0.0281359)
(-0.340637 0.0393332 0.036903)
(-0.378365 0.00884106 0.0584575)
(-0.425787 -0.0337079 0.0442272)
(-0.467516 -0.0878333 0.0378364)
(-0.48549 -0.131777 0.0248145)
(-0.474097 -0.164335 0.0143256)
(-0.433586 -0.167932 -0.00413559)
(-0.371744 -0.125724 -0.00681236)
(-0.29009 -0.0228837 0.000144161)
(-0.171548 0.075781 -0.0167762)
(-0.0434365 0.116654 -0.0194586)
(0.00711223 0.0728437 -0.00185523)
(0.00678947 0.101034 -0.0098689)
(0.0738971 0.266697 -0.0418116)
(0.166961 0.343092 -0.0441002)
(0.227588 0.366772 -0.0238421)
(0.259895 0.372802 -0.00343867)
(0.266282 0.370209 0.0113087)
(0.256898 0.372787 0.0196778)
(0.239713 0.374865 0.022284)
(0.220888 0.372484 0.0246861)
(0.196349 0.360348 0.0260242)
(0.168777 0.341028 0.02744)
(0.137739 0.312031 0.0247976)
(0.101001 0.281235 0.0259914)
(0.0639236 0.245735 0.025644)
(0.0287656 0.219934 0.0289112)
(-0.00201535 0.187052 0.0149383)
(-0.030502 0.172312 0.0055074)
(-0.062461 0.162438 -0.00229281)
(-0.0943474 0.152987 -0.00529479)
(-0.109473 0.163073 -0.00224354)
(-0.10815 0.180476 0.00235096)
(-0.115728 0.188261 0.00555546)
(-0.132267 0.178227 0.00733739)
(-0.156705 0.158954 0.00539564)
(-0.181152 0.135062 0.00415179)
(-0.196603 0.0971379 0.00459394)
(-0.220393 0.0647007 0.0150473)
(-0.256175 0.0334441 0.0244505)
(-0.292271 0.00383744 0.0437859)
(-0.344349 -0.0366754 0.0384016)
(-0.399309 -0.0908111 0.0370431)
(-0.446718 -0.143725 0.0278725)
(-0.476779 -0.197548 0.0178172)
(-0.481143 -0.23882 0.00340014)
(-0.447827 -0.25835 -0.0106529)
(-0.382544 -0.226488 -0.019407)
(-0.291527 -0.137197 -0.0189446)
(-0.176844 0.0106196 0.000469928)
(-0.0533791 0.0906891 -0.0271346)
(0.0066472 0.071741 -0.00339048)
(0.00508354 0.0865392 -0.00698229)
(0.0693665 0.26634 -0.0396677)
(0.162676 0.348458 -0.0419433)
(0.228225 0.37082 -0.0223274)
(0.267318 0.370189 0.000539241)
(0.28251 0.362549 0.0143438)
(0.27963 0.361134 0.0194751)
(0.26216 0.356096 0.0220663)
(0.241963 0.350297 0.0233706)
(0.21865 0.337564 0.0233663)
(0.193668 0.317485 0.0220172)
(0.161601 0.290154 0.0180907)
(0.124213 0.255956 0.0143081)
(0.0881961 0.222562 0.00785961)
(0.0514307 0.195592 0.0125015)
(0.0179946 0.173653 0.00443996)
(-0.00742096 0.162689 -0.000924308)
(-0.0323093 0.154429 -0.00520719)
(-0.0466795 0.159644 -0.0025361)
(-0.0502082 0.168673 0.000649842)
(-0.0609419 0.169957 0.00525323)
(-0.079022 0.156746 0.00981934)
(-0.0991998 0.142347 0.0110802)
(-0.124305 0.12348 0.00982048)
(-0.153612 0.106544 0.00737839)
(-0.173364 0.0769538 0.00879845)
(-0.190802 0.0369054 0.0145255)
(-0.217086 0.00575633 0.0278356)
(-0.257216 -0.032114 0.0266691)
(-0.310323 -0.0784087 0.0305154)
(-0.364994 -0.126504 0.0279984)
(-0.417031 -0.183492 0.0245032)
(-0.45451 -0.242634 0.0157418)
(-0.470305 -0.297623 0.00294065)
(-0.448419 -0.330243 -0.0132341)
(-0.39008 -0.319837 -0.0273678)
(-0.287441 -0.238998 -0.0317484)
(-0.175756 -0.0862124 -0.0204859)
(-0.0562883 0.0491778 -0.0190912)
(0.00859903 0.0620692 -0.00898825)
(0.00293979 0.100246 -0.00787872)
(0.0635945 0.284942 -0.038746)
(0.155856 0.371254 -0.0434389)
(0.227327 0.392369 -0.0226015)
(0.275824 0.387597 0.00199098)
(0.302141 0.372937 0.0132729)
(0.305404 0.36052 0.0184276)
(0.291559 0.34771 0.0192922)
(0.273964 0.334705 0.0167635)
(0.247405 0.313212 0.0130865)
(0.21793 0.287518 0.0100366)
(0.181685 0.259478 0.00555374)
(0.140744 0.233481 0.00263001)
(0.105586 0.209069 -0.000257703)
(0.0727919 0.19513 0.00126654)
(0.0495062 0.18819 -0.00315366)
(0.0294321 0.184001 -0.00546466)
(0.0131589 0.180924 -0.0038142)
(0.00113041 0.180747 -0.00159044)
(-0.0139499 0.169928 0.0028647)
(-0.0310315 0.150198 0.00662123)
(-0.0514092 0.130893 0.0112923)
(-0.0709714 0.112167 0.0122394)
(-0.0942303 0.0935577 0.0121054)
(-0.12446 0.0772732 0.0106337)
(-0.155157 0.059814 0.00356582)
(-0.170069 0.0246921 0.0054212)
(-0.190459 -0.012757 0.00772049)
(-0.226965 -0.0579141 0.0144882)
(-0.271129 -0.104507 0.0172424)
(-0.323134 -0.157607 0.0186371)
(-0.375538 -0.219196 0.0164257)
(-0.417365 -0.286443 0.0105965)
(-0.442557 -0.354565 -0.000478995)
(-0.434104 -0.405021 -0.0163235)
(-0.385595 -0.415441 -0.0330418)
(-0.294702 -0.349625 -0.0501492)
(-0.181329 -0.193423 -0.0362989)
(-0.057363 0.00297354 -0.00932526)
(0.00623263 0.0630728 -0.0103993)
(-0.00655019 0.0781576 -0.0148822)
(0.044759 0.273734 -0.0396634)
(0.139026 0.369658 -0.0462824)
(0.217872 0.391626 -0.027425)
(0.275576 0.386372 -0.00857923)
(0.308774 0.364015 0.00360791)
(0.318642 0.344079 0.00955779)
(0.305196 0.327444 0.0105749)
(0.282968 0.324134 0.0100969)
(0.256766 0.32232 0.00753916)
(0.234753 0.319173 0.00586085)
(0.208576 0.306667 0.00255682)
(0.175417 0.290727 0.000889366)
(0.146599 0.270173 -0.000700585)
(0.120103 0.250719 0.00275081)
(0.0903907 0.236638 -0.00503556)
(0.0655847 0.219928 -0.00971542)
(0.0449185 0.199851 -0.00752534)
(0.0250032 0.179998 -0.00516027)
(0.00409339 0.157409 -0.000514313)
(-0.0138697 0.132414 0.00557298)
(-0.0299939 0.109101 0.00980953)
(-0.0487035 0.0885265 0.0108287)
(-0.069451 0.0689125 0.0121322)
(-0.0941793 0.0513211 0.00662908)
(-0.126246 0.0354025 0.0014575)
(-0.153859 0.0148307 0.00179419)
(-0.176963 -0.0215753 -0.00167158)
(-0.209289 -0.0623363 -0.00054784)
(-0.250134 -0.106845 0.00452271)
(-0.296854 -0.156336 0.00896259)
(-0.345787 -0.219872 0.011101)
(-0.386545 -0.293122 0.00869861)
(-0.412958 -0.373041 -4.51715e-05)
(-0.409694 -0.441942 -0.0135314)
(-0.367911 -0.473967 -0.0324347)
(-0.275116 -0.440145 -0.055569)
(-0.161482 -0.305883 -0.0587652)
(-0.0422817 -0.0919401 -0.0227884)
(0.0105264 0.0302019 -0.00847922)
(-0.00826312 0.184449 -0.0108427)
(0.0391574 0.399702 -0.0263674)
(0.126243 0.499988 -0.0365581)
(0.205871 0.524644 -0.0171601)
(0.270428 0.513501 -0.00716884)
(0.312732 0.48446 0.00899244)
(0.335717 0.44975 0.0132601)
(0.345089 0.43542 0.0143587)
(0.346847 0.439483 0.0084435)
(0.325613 0.438459 0.00217804)
(0.291828 0.427447 -0.0042003)
(0.248514 0.401251 -0.008027)
(0.201577 0.366264 -0.0102924)
(0.159793 0.328318 -0.00882485)
(0.127419 0.288551 -0.00656334)
(0.102378 0.251548 -0.00229955)
(0.0741172 0.22096 -0.00781893)
(0.053986 0.192284 -0.00782334)
(0.0403595 0.162755 -0.00584516)
(0.0202482 0.136881 -0.00297977)
(0.00191967 0.11598 0.00214696)
(-0.0145556 0.0910396 0.00775801)
(-0.0305676 0.0697708 0.00897661)
(-0.050053 0.0488148 0.0125872)
(-0.0739761 0.0286521 0.00444858)
(-0.102208 0.0112722 0.0066276)
(-0.129007 -0.00182033 0.00609802)
(-0.15704 -0.0216087 0.00308551)
(-0.184188 -0.0540664 -0.00131506)
(-0.215185 -0.101693 -0.00737717)
(-0.258949 -0.161722 -0.0110198)
(-0.308546 -0.232249 -0.0119279)
(-0.352616 -0.309379 -0.0125703)
(-0.386045 -0.396099 -0.0168826)
(-0.390232 -0.477111 -0.0290323)
(-0.366699 -0.539685 -0.0593254)
(-0.300372 -0.528945 -0.0812829)
(-0.196248 -0.403419 -0.0783571)
(-0.0607542 -0.151028 -0.0455928)
(0.010599 0.0377596 -0.00705389)
(-0.0180905 0.263018 -0.0205806)
(0.0176963 0.504614 -0.0441774)
(0.10627 0.61554 -0.0531565)
(0.190135 0.65845 -0.0413113)
(0.259688 0.652536 -0.0305115)
(0.305162 0.627061 -0.0166208)
(0.342413 0.5861 -0.00663548)
(0.369846 0.55749 -0.00464863)
(0.364586 0.532499 -0.0082217)
(0.328388 0.499032 -0.00983301)
(0.286075 0.4589 -0.00986895)
(0.239732 0.413325 -0.0100833)
(0.196277 0.364589 -0.0088722)
(0.161 0.319124 -0.00776589)
(0.131384 0.275456 -0.00571242)
(0.106327 0.237151 -0.00342589)
(0.0876909 0.201924 0.000951511)
(0.0670292 0.175213 -0.00414068)
(0.0486062 0.147399 -0.00527358)
(0.0352531 0.121399 -0.00302424)
(0.0166724 0.0969636 -0.000992697)
(-0.00116864 0.0772228 0.00489635)
(-0.016472 0.0511949 0.00730054)
(-0.0357405 0.0325418 0.00885256)
(-0.0545935 0.0131436 0.00723252)
(-0.0751581 -0.00236968 0.0102711)
(-0.097739 -0.0151987 0.010432)
(-0.128834 -0.02903 0.00631472)
(-0.172488 -0.0481784 0.00403862)
(-0.218087 -0.0853477 0.00494792)
(-0.259344 -0.135878 0.00542557)
(-0.289855 -0.207329 0.00139111)
(-0.314021 -0.300701 -0.00842732)
(-0.334469 -0.430659 -0.0208982)
(-0.347134 -0.555179 -0.0321755)
(-0.333436 -0.666485 -0.0543154)
(-0.266022 -0.703447 -0.0804048)
(-0.163883 -0.600542 -0.0885232)
(-0.0479883 -0.319501 -0.0704276)
(0.0111607 -0.0253957 -0.00754497)
(-0.00019231 0.229276 0.00154552)
(0.0364796 0.469465 -0.0342383)
(0.10775 0.593395 -0.045352)
(0.188601 0.647363 -0.0408153)
(0.256101 0.649409 -0.0299846)
(0.304643 0.627574 -0.0205741)
(0.342858 0.591109 -0.0124873)
(0.37027 0.551942 -0.00578333)
(0.367831 0.511448 -0.00641387)
(0.332985 0.474548 -0.00571429)
(0.289619 0.436343 -0.00524574)
(0.241173 0.395295 -0.00428988)
(0.196464 0.35053 -0.00394499)
(0.159647 0.307671 -0.00258031)
(0.132497 0.263881 -0.00309158)
(0.1131 0.22524 -0.00112856)
(0.093544 0.187468 -0.0011149)
(0.0787672 0.156052 0.00123643)
(0.0638095 0.131299 0.00145369)
(0.0446345 0.106213 -0.00283218)
(0.0304004 0.0849361 -0.000284719)
(0.010699 0.0627507 0.00195525)
(-0.00506531 0.0435617 0.00922846)
(-0.0176114 0.0222572 0.00838678)
(-0.0363651 0.00483769 0.00732034)
(-0.0544527 -0.011021 0.0103964)
(-0.0730967 -0.0267747 0.0116257)
(-0.0976064 -0.0432648 0.0110555)
(-0.133471 -0.0561391 0.00781548)
(-0.174506 -0.0696294 0.00625433)
(-0.223473 -0.0912383 0.00501515)
(-0.281851 -0.135361 0.00521542)
(-0.346302 -0.205785 0.00689469)
(-0.377972 -0.318004 0.0062913)
(-0.369129 -0.443557 -0.00161119)
(-0.347625 -0.583052 -0.0146226)
(-0.280489 -0.673301 -0.0301208)
(-0.169594 -0.65825 -0.055356)
(-0.0310833 -0.409871 -0.05415)
(0.0282468 -0.0459935 -0.0078618)
(3.46566e-07 0.245073 0.00125105)
(0.03647 0.460776 -0.0275427)
(0.103684 0.58348 -0.0378097)
(0.178829 0.639623 -0.0355309)
(0.245135 0.645066 -0.0210903)
(0.294525 0.622789 -0.0149762)
(0.336084 0.584424 -0.00556835)
(0.36443 0.543871 -0.000688639)
(0.362783 0.497229 -0.000490774)
(0.330748 0.457649 6.15685e-05)
(0.286717 0.41656 0.000262066)
(0.237376 0.374038 0.000338366)
(0.194925 0.331577 0.000157826)
(0.161576 0.29162 -0.000374836)
(0.135328 0.251862 -0.000611917)
(0.114488 0.213151 0.000463256)
(0.100567 0.174107 0.00213676)
(0.0900161 0.141319 0.00383356)
(0.0748341 0.113548 0.00403315)
(0.0620094 0.0909835 0.00678392)
(0.043775 0.0714994 0.00258006)
(0.026171 0.052785 0.00244169)
(0.0108921 0.0343546 0.00643845)
(-0.00634902 0.0177276 0.0071171)
(-0.0181996 -0.00416189 0.00788262)
(-0.0339492 -0.0189264 0.00897879)
(-0.0518381 -0.0378965 0.0105007)
(-0.0717035 -0.0566825 0.0114645)
(-0.0993704 -0.0750613 0.0121128)
(-0.134046 -0.0933374 0.0110966)
(-0.177078 -0.113847 0.0115044)
(-0.217791 -0.146232 0.0116326)
(-0.268674 -0.183641 0.0118214)
(-0.308526 -0.243603 0.0105778)
(-0.337389 -0.333877 0.00590712)
(-0.353099 -0.47081 -0.000250399)
(-0.324041 -0.576283 -0.0136183)
(-0.225857 -0.608464 -0.0369107)
(-0.0557761 -0.399686 -0.0506736)
(0.0284336 -0.00665857 -0.0220531)
(0.00645924 0.217973 0.00071246)
(0.0434648 0.414225 -0.0231335)
(0.103232 0.543598 -0.0319311)
(0.175781 0.604114 -0.0309674)
(0.24015 0.618854 -0.0184279)
(0.289547 0.599676 -0.0112288)
(0.33327 0.563738 -0.00194376)
(0.359258 0.520597 0.00229603)
(0.358224 0.47073 0.00303256)
(0.329517 0.428482 0.00335858)
(0.284483 0.386553 0.00392798)
(0.237316 0.347182 0.00430854)
(0.198047 0.309822 0.00358665)
(0.165623 0.273275 0.00306357)
(0.139947 0.23579 0.00233901)
(0.12022 0.199455 0.00312591)
(0.104539 0.164332 0.004649)
(0.0981151 0.130193 0.0070344)
(0.0898989 0.101617 0.00714901)
(0.0754671 0.0765324 0.00629407)
(0.0621565 0.0608065 0.00667403)
(0.0416128 0.0426407 0.00602521)
(0.0269851 0.0269725 0.00409847)
(0.0111298 0.010636 0.00417767)
(-0.00452722 -0.0056648 0.00772792)
(-0.017193 -0.0240888 0.00794361)
(-0.0355699 -0.0418849 0.00919992)