/*--------------------------------*- C++ -*----------------------------------*\
| =========                 |                                                 |
| \\      /  F ield         | OpenFOAM: The Open Source CFD Toolbox           |
|  \\    /   O peration     | Version:  v1806                                 |
|   \\  /    A nd           | Web:      www.OpenFOAM.com                      |
|    \\/     M anipulation  |                                                 |
\*---------------------------------------------------------------------------*/
FoamFile
{
    version     2.0;
    format      ascii;
    class       vectorField;
    location    "0.007";
    object      currentcloudofpoints;
}
// * * * * * * * * * * * * * * * * * * * * * * * * * * * * * * * * * * * * * //


2409
(
(0.702793 1.04907 1)
(0.974139 0.714411 1)
(1.03664 1.3187 0.999996)
(1.00152 1.01353 0.707364)
(1.00153 1.01353 1.29264)
(1.00835 1.01975 1)
(0.496234 1.0788 0.999997)
(0.94062 0.512757 1)
(1.05238 1.51749 0.999999)
(0.991667 1.00634 0.50934)
(0.991668 1.00634 1.49066)
(1.03501 1.30367 1.09162)
(1.03006 1.26003 1.17402)
(1.02214 1.19216 1.23883)
(1.01214 1.1071 1.27958)
(1.03593 1.31132 1.04582)
(1.03267 1.28197 1.13286)
(1.02623 1.2262 1.20649)
(1.01725 1.1497 1.25926)
(1.00687 1.06036 1.28611)
(0.97531 0.72899 1.08913)
(0.978734 0.771312 1.16992)
(0.984336 0.837315 1.2347)
(0.992013 0.920676 1.27705)
(0.974879 0.721798 1.04454)
(0.97715 0.750253 1.12945)
(0.981611 0.804412 1.20224)
(0.988211 0.879092 1.25581)
(0.996757 0.96716 1.28481)
(1.035 1.30366 0.908381)
(1.03006 1.26003 0.825973)
(1.02213 1.19216 0.761171)
(1.01214 1.1071 0.720415)
(1.03593 1.3113 0.954181)
(1.03266 1.28198 0.867133)
(1.02622 1.2262 0.793505)
(1.01724 1.1497 0.740735)
(1.00686 1.06036 0.713884)
(0.99201 0.920672 0.722947)
(0.984335 0.837315 0.765295)
(0.978729 0.77131 0.830082)
(0.975311 0.728984 0.910865)
(0.996755 0.96716 0.715194)
(0.988208 0.879084 0.744177)
(0.98161 0.80442 0.797773)
(0.977144 0.750241 0.870541)
(0.974885 0.721804 0.955458)
(0.909287 1.0245 1.27692)
(0.826333 1.03435 1.23412)
(0.760313 1.04213 1.16887)
(0.717589 1.04723 1.08836)
(0.955494 1.01914 1.28473)
(0.867897 1.02954 1.25555)
(0.793494 1.03832 1.20139)
(0.739067 1.04472 1.12848)
(0.710264 1.04821 1.04414)
(0.717596 1.04723 0.911645)
(0.760288 1.04214 0.831117)
(0.826312 1.03436 0.765858)
(0.909285 1.0245 0.723094)
(0.710277 1.04821 0.955865)
(0.739054 1.04474 0.87151)
(0.793468 1.03833 0.798597)
(0.867887 1.02955 0.744449)
(0.955494 1.01914 0.715283)
(0.88254 0.73918 1)
(0.803098 0.790886 0.999993)
(0.743367 0.86499 0.999994)
(0.708769 0.954096 1)
(0.928459 0.726944 1)
(0.842874 0.76505 1)
(0.773375 0.827928 0.999989)
(0.726227 0.909569 1)
(0.705861 1.00164 1)
(0.726403 1.14046 1)
(0.777487 1.2195 0.999995)
(0.851431 1.27881 1)
(0.941064 1.31291 0.999999)
(0.714683 1.09481 1)
(0.751982 1.18002 0.999997)
(0.814502 1.24917 0.999999)
(0.896302 1.29586 0.999999)
(0.989001 1.31582 0.999997)
(0.941775 0.522064 1.09384)
(0.945927 0.5497 1.18442)
(0.953123 0.59483 1.26841)
(0.961038 0.655995 1.3428)
(0.968337 0.730598 1.40477)
(0.975203 0.81594 1.45136)
(0.982781 0.909026 1.48033)
(0.941475 0.517448 1.0469)
(0.943991 0.535904 1.13908)
(0.949741 0.572248 1.22634)
(0.957467 0.625418 1.30549)
(0.96501 0.693344 1.3737)
(0.971937 0.773283 1.42805)
(0.979024 0.862478 1.46584)
(0.987201 0.957678 1.48546)
(1.00193 1.10424 1.48222)
(1.01333 1.19913 1.4553)
(1.02505 1.28726 1.41065)
(1.03571 1.36507 1.34956)
(1.04405 1.42946 1.2744)
(1.04913 1.47774 1.18867)
(1.05163 1.5075 1.09606)
(0.996763 1.05526 1.48639)
(1.00764 1.15164 1.46874)
(1.01927 1.24319 1.43302)
(1.03055 1.32619 1.3802)
(1.04013 1.39731 1.31204)
(1.0468 1.45369 1.23151)
(1.05044 1.49276 1.14234)
(1.052 1.5126 1.04802)
(0.941774 0.522065 0.906159)
(0.945924 0.549695 0.815579)
(0.953117 0.594815 0.731574)
(0.961026 0.655963 0.657164)
(0.968329 0.730588 0.595218)
(0.975202 0.815941 0.54865)
(0.982782 0.909027 0.519672)
(0.941478 0.517453 0.953103)
(0.943987 0.535898 0.860921)
(0.94974 0.572244 0.773655)
(0.957455 0.625389 0.69448)
(0.964998 0.693324 0.626284)
(0.971931 0.773278 0.571953)
(0.979025 0.86248 0.534171)
(0.987199 0.957678 0.514544)
(1.05163 1.5075 0.903936)
(1.04913 1.47774 0.811329)
(1.04405 1.42945 0.725597)
(1.03571 1.36507 0.650436)
(1.02505 1.28726 0.589346)
(1.01333 1.19913 0.544698)
(1.00193 1.10423 0.517783)
(1.052 1.5126 0.951975)
(1.05044 1.49276 0.857662)
(1.0468 1.45369 0.768488)
(1.04013 1.3973 0.68796)
(1.03055 1.32619 0.619792)
(1.01927 1.24319 0.566978)
(1.00763 1.15164 0.531257)
(0.996763 1.05526 0.513614)
(0.505792 1.07637 1.09305)
(0.534659 1.07016 1.18199)
(0.582219 1.06184 1.26425)
(0.645096 1.05207 1.33851)
(0.719561 1.0412 1.40173)
(0.803701 1.02978 1.44967)
(0.895586 1.01811 1.47961)
(0.501082 1.0777 1.04657)
(0.520168 1.07318 1.13755)
(0.558432 1.06589 1.22295)
(0.613928 1.05689 1.30106)
(0.682608 1.0466 1.36999)
(0.76174 1.03546 1.42578)
(0.849649 1.02395 1.46469)
(0.94373 1.01226 1.48518)
(0.505753 1.07637 0.906937)
(0.534631 1.07017 0.818003)
(0.582254 1.06183 0.73578)
(0.645079 1.05208 0.661475)
(0.719561 1.0412 0.598271)
(0.803707 1.02977 0.550334)
(0.89558 1.01811 0.520373)
(0.501073 1.07769 0.953425)
(0.520114 1.07319 0.862437)
(0.558449 1.06589 0.777067)
(0.613936 1.05688 0.69895)
(0.682595 1.0466 0.63)
(0.761746 1.03544 0.574227)
(0.849647 1.02394 0.535306)
(0.943727 1.01226 0.514813)
(0.841866 0.53364 1)
(0.750577 0.573024 1)
(0.670066 0.629676 1)
(0.602683 0.701641 0.999999)
(0.55048 0.786294 0.999996)
(0.514829 0.880174 1)
(0.496589 0.979133 1)
(0.891465 0.523129 1)
(0.796295 0.553247 1)
(0.710476 0.601183 1)
(0.636559 0.665465 0.999997)
(0.576756 0.74374 0.999997)
(0.532907 0.833071 0.999998)
(0.505933 0.929527 1)
(0.496657 1.0289 0.999999)
(0.513947 1.17497 0.999998)
(0.550065 1.26382 0.999996)
(0.604043 1.34242 0.999998)
(0.674346 1.40855 1)
(0.758356 1.4605 1)
(0.852353 1.49687 1)
(0.952054 1.51641 1)
(0.505248 1.12686 0.999997)
(0.532036 1.21937 0.999999)
(0.577012 1.30305 0.999995)
(0.639112 1.37539 1)
(0.716313 1.43438 1)
(0.805379 1.47853 0.999999)
(0.902344 1.50648 1)
(1.00244 1.51693 1)
(0.997146 1.00959 0.608873)
(0.994568 1.00777 0.559133)
(0.999467 1.01157 0.658339)
(0.997152 1.00959 1.39113)
(0.999473 1.01157 1.34166)
(0.994571 1.00777 1.44087)
(0.960379 0.612707 1)
(0.967708 0.66355 0.999999)
(0.951603 0.56231 1)
(1.04462 1.41795 0.999997)
(1.04069 1.36823 0.999996)
(1.04851 1.4677 0.999998)
(0.648724 1.25797 1.26036)
(0.629709 1.3054 1.18679)
(0.837173 1.19585 1.42762)
(0.771909 1.4295 1.17053)
(0.533782 1.20602 1.08762)
(0.924471 1.15865 1.46345)
(0.954005 1.49472 1.1408)
(0.872117 1.44389 1.22146)
(0.574627 1.21911 1.18362)
(0.704665 1.35021 1.22886)
(0.66713 1.37721 1.12877)
(0.616003 1.15292 1.28359)
(0.796863 1.37073 1.28241)
(0.853434 1.47454 1.13958)
(0.736183 1.29158 1.31657)
(0.895896 1.50224 1.06962)
(0.921354 1.24613 1.42757)
(0.808362 1.47434 1.0812)
(0.527501 1.14507 1.13223)
(0.855611 1.09628 1.46217)
(0.756682 1.13542 1.40995)
(0.832831 1.29667 1.36975)
(0.960771 1.44703 1.24639)
(0.589153 1.30572 1.09489)
(0.558783 1.133 1.20933)
(0.766967 1.22903 1.37854)
(0.965959 1.39358 1.31922)
(0.886845 1.38682 1.30836)
(0.510068 1.141 1.06271)
(0.93302 1.07728 1.48201)
(0.98148 1.51457 1.06182)
(0.69148 1.20597 1.33614)
(0.681246 1.11986 1.36014)
(0.942753 1.33577 1.37182)
(0.628916 1.3635 1.05744)
(0.730404 1.43744 1.07842)
(0.963337 1.13148 1.47287)
(0.968944 1.17888 1.45942)
(0.962393 1.04182 1.48634)
(0.967499 1.09076 1.48212)
(0.928762 1.11796 1.47272)
(0.96757 1.22272 1.44153)
(0.973307 1.26668 1.41922)
(0.922951 1.20242 1.44552)
(0.984118 1.31163 1.39135)
(0.989317 1.35038 1.36078)
(0.932153 1.29101 1.39979)
(1.00096 1.37937 1.33444)
(1.00512 1.41148 1.2969)
(0.954453 1.36468 1.34556)
(1.00256 1.43829 1.26043)
(1.00511 1.46237 1.21763)
(0.963593 1.42037 1.2828)
(1.00178 1.48634 1.16472)
(1.00299 1.50109 1.11851)
(0.957584 1.4711 1.19354)
(1.01666 1.51106 1.07891)
(1.01703 1.51605 1.03098)
(0.967758 1.5047 1.10132)
(0.966783 1.51554 1.03088)
(0.541959 1.23504 1.04384)
(0.523863 1.19056 1.04383)
(0.521945 1.17349 1.07516)
(0.512037 1.15805 1.03137)
(0.50325 1.10994 1.03136)
(0.596596 1.32416 1.04748)
(0.569552 1.2848 1.04744)
(0.561453 1.25586 1.09123)
(0.651581 1.38604 1.02876)
(0.61646 1.35297 1.02871)
(0.609032 1.33463 1.07618)
(0.744338 1.449 1.03924)
(0.702315 1.42297 1.03914)
(0.679537 1.40029 1.06787)
(0.830316 1.48563 1.04066)
(0.783331 1.46742 1.04052)
(0.769388 1.45577 1.0798)
(0.924008 1.50933 1.03488)
(0.874117 1.49956 1.03475)
(0.852147 1.48816 1.07543)
(0.93885 1.50836 1.06574)
(0.611721 1.23846 1.2217)
(0.602152 1.26227 1.18517)
(0.639322 1.28174 1.22348)
(0.667197 1.32774 1.20769)
(0.676671 1.30413 1.24465)
(0.581897 1.26256 1.13932)
(0.609371 1.30556 1.14078)
(0.64841 1.34137 1.15782)
(0.685972 1.36379 1.17867)
(0.628045 1.34134 1.11175)
(0.880949 1.17727 1.44558)
(0.879222 1.22094 1.4276)
(0.890028 1.12746 1.46279)
(0.846443 1.14611 1.44491)
(0.835123 1.24634 1.39873)
(0.877316 1.27145 1.39875)
(0.79689 1.16563 1.41885)
(0.806271 1.11582 1.4362)
(0.802212 1.21244 1.40313)
(0.761837 1.18229 1.39428)
(0.799852 1.26283 1.37417)
(0.751176 1.43351 1.12436)
(0.790119 1.45199 1.1259)
(0.7195 1.40317 1.14952)
(0.698722 1.40729 1.10364)
(0.834492 1.40726 1.25203)
(0.784694 1.40036 1.2263)
(0.822118 1.43663 1.1959)
(0.812671 1.45192 1.15512)
(0.862867 1.45934 1.18045)
(0.830915 1.47445 1.11033)
(0.738237 1.38988 1.19978)
(0.750909 1.36042 1.2555)
(0.551055 1.18204 1.15786)
(0.5307 1.17558 1.10995)
(0.554127 1.21251 1.13561)
(0.51877 1.14303 1.0975)
(0.51671 1.11068 1.11262)
(0.531201 1.10761 1.15711)
(0.508036 1.10869 1.07788)
(0.546775 1.10157 1.19562)
(0.570608 1.09738 1.23671)
(0.543116 1.13898 1.17075)
(0.599248 1.10742 1.27384)
(0.630818 1.1025 1.31093)
(0.58747 1.14288 1.24621)
(0.700543 1.08054 1.38092)
(0.66325 1.086 1.34929)
(0.648997 1.13636 1.32159)
(0.738135 1.08837 1.40585)
(0.780308 1.08261 1.42988)
(0.719109 1.12761 1.38502)
(0.829617 1.06306 1.45594)
(0.875641 1.0572 1.47088)
(0.914299 1.0477 1.48079)
(0.894403 1.08679 1.4721)
(0.632397 1.20552 1.27199)
(0.670402 1.232 1.29807)
(0.653917 1.17944 1.30966)
(0.713803 1.24883 1.32639)
(0.692623 1.27474 1.28827)
(0.595507 1.18601 1.2334)
(0.720756 1.321 1.27255)
(0.925041 1.49853 1.10512)
(0.686397 1.16297 1.34815)
(0.724435 1.17069 1.373)
(0.729329 1.21748 1.35731)
(0.751797 1.26035 1.34752)
(0.647978 1.37034 1.09306)
(0.90386 1.4845 1.14021)
(0.913185 1.46928 1.18125)
(0.916599 1.44543 1.23393)
(0.874654 1.4884 1.10464)
(0.879762 1.41547 1.26485)
(0.841881 1.37871 1.29539)
(0.923972 1.41687 1.27748)
(0.566807 1.17609 1.19646)
(0.76648 1.33117 1.29955)
(0.784699 1.29407 1.34314)
(0.815252 1.33382 1.32605)
(0.859886 1.34178 1.33916)
(0.887791 1.31614 1.37087)
(0.915072 1.36136 1.34011)
(0.926506 1.39017 1.31384)
(0.702956 0.788238 1.32339)
(0.572662 0.811844 1.16736)
(0.725522 0.624483 1.16576)
(0.791723 0.590057 1.17584)
(0.581603 0.868174 1.22727)
(0.722848 0.871381 1.37923)
(0.869575 0.548462 1.14273)
(0.515567 1.00431 1.13631)
(0.895964 0.877837 1.46123)
(0.622806 0.79487 1.24056)
(0.78813 0.64566 1.26309)
(0.530569 0.902314 1.13821)
(0.646336 0.88188 1.31612)
(0.877716 0.779299 1.41628)
(0.674434 0.966599 1.36368)
(0.603984 0.957667 1.28932)
(0.866149 0.588459 1.22924)
(0.844522 0.95225 1.46171)
(0.78249 0.566275 1.09053)
(0.561768 0.783379 1.09136)
(0.810419 0.866125 1.42867)
(0.548914 0.969678 1.20917)
(0.75529 0.959605 1.42156)
(0.611769 0.702066 1.08433)
(0.829151 0.709462 1.35084)
(0.882617 0.6433 1.31078)
(0.684124 0.702656 1.23195)
(0.75741 0.719888 1.31677)
(0.902378 0.699376 1.36997)
(0.779436 0.784478 1.37596)
(0.64943 0.678934 1.13959)
(0.609724 0.740772 1.16093)
(0.874859 0.529137 1.06598)
(0.921226 0.952101 1.48098)
(0.676603 0.631043 1.07095)
(0.501698 0.971629 1.06356)
(0.524465 0.861371 1.06063)
(0.826134 0.557311 1.11657)
(0.787185 0.578164 1.13317)
(0.830702 0.569239 1.15931)
(0.872334 0.538831 1.10433)
(0.828766 0.547676 1.07826)
(0.829003 0.589191 1.20246)
(0.867938 0.568437 1.18596)
(0.905848 0.535259 1.11831)
(0.907939 0.549012 1.16354)
(0.908459 0.525561 1.07989)
(0.90619 0.569043 1.2069)
(0.93562 0.846847 1.45635)
(0.939464 0.89347 1.47084)
(0.92308 0.754917 1.41058)
(0.926675 0.797639 1.43391)
(0.88701 0.828573 1.43877)
(0.95203 0.930558 1.48068)
(0.956474 0.979257 1.48583)
(0.90862 0.914989 1.4711)
(0.551793 0.8569 1.15275)
(0.556046 0.885038 1.18268)
(0.577205 0.839937 1.1973)
(0.53981 0.935911 1.17367)
(0.565474 0.918801 1.21816)
(0.614143 0.874892 1.27134)
(0.593012 0.912875 1.25813)
(0.62528 0.919704 1.30267)
(0.602344 0.831428 1.23387)
(0.63487 0.838326 1.27811)
(0.57649 0.963529 1.24901)
(0.597752 0.80322 1.20386)
(0.758683 0.607195 1.17079)
(0.754184 0.595326 1.1282)
(0.729781 0.598394 1.08073)
(0.701157 0.627694 1.11834)
(0.766748 0.569665 1.04525)
(0.812428 0.549992 1.04529)
(0.858518 0.531392 1.03297)
(0.713867 0.601945 1.03551)
(0.523317 0.953213 1.13722)
(0.532228 0.986899 1.17272)
(0.516269 0.936887 1.10091)
(0.508662 0.987968 1.09998)
(0.548627 0.836468 1.11404)
(0.52759 0.88184 1.09947)
(0.513387 0.916332 1.06207)
(0.660671 0.924262 1.33976)
(0.639539 0.962097 1.32617)
(0.698738 0.918953 1.37147)
(0.684854 0.876588 1.34748)
(0.674767 0.834961 1.31977)
(0.713249 0.829844 1.35115)
(0.663057 0.791388 1.28168)
(0.935554 0.715002 1.38738)
(0.890244 0.739351 1.39306)
(0.844032 0.822684 1.42249)
(0.853207 0.872011 1.44497)
(0.828626 0.781895 1.39612)
(0.795206 0.825328 1.40228)
(0.853849 0.744449 1.38343)
(0.865816 0.704417 1.3604)
(0.804375 0.746952 1.36337)
(0.659868 1.00932 1.35108)
(0.624841 1.00489 1.31371)
(0.697172 1.00394 1.38265)
(0.737486 1.0004 1.41166)
(0.715078 0.963073 1.39257)
(0.739281 0.915534 1.40037)
(0.593293 1.00973 1.27675)
(0.565728 1.01569 1.23654)
(0.870056 0.985215 1.47068)
(0.82413 0.991016 1.45569)
(0.799954 0.95592 1.4417)
(0.779546 0.994724 1.43564)
(0.908412 0.985113 1.48029)
(0.882911 0.952195 1.47136)
(0.870238 0.915049 1.46146)
(0.827546 0.909225 1.44521)
(0.782884 0.912844 1.42515)
(0.756961 0.634898 1.21428)
(0.790072 0.617776 1.21943)
(0.705039 0.663431 1.19889)
(0.736277 0.673964 1.24745)
(0.66313 0.65495 1.10531)
(0.687613 0.651536 1.15264)
(0.666812 0.69066 1.18573)
(0.827201 0.617028 1.24619)
(0.525176 1.03718 1.15912)
(0.510805 1.04032 1.11468)
(0.503982 1.02393 1.07829)
(0.499286 1.0252 1.03179)
(0.542009 1.01988 1.19554)
(0.751197 0.827879 1.37763)
(0.741414 0.786347 1.34953)
(0.693928 0.745344 1.27742)
(0.653671 0.748579 1.23626)
(0.730262 0.754011 1.32008)
(0.721005 0.711143 1.2741)
(0.768752 0.752223 1.34619)
(0.907987 0.520946 1.03301)
(0.673457 0.63041 1.03548)
(0.639923 0.666155 1.03546)
(0.556272 0.784933 1.0457)
(0.58255 0.74244 1.04573)
(0.607357 0.70192 1.04219)
(0.644357 0.666368 1.07764)
(0.586963 0.742542 1.08784)
(0.519722 0.870821 1.03032)
(0.537712 0.823799 1.03032)
(0.543289 0.822243 1.07598)
(0.499201 0.975445 1.0318)
(0.508531 0.925865 1.03178)
(0.909902 0.591578 1.24879)
(0.922047 0.649636 1.32677)
(0.918011 0.619015 1.28965)
(0.874693 0.61585 1.26988)
(0.931789 0.677662 1.35641)
(0.892798 0.671367 1.34026)
(0.766788 0.868738 1.40396)
(0.835529 0.644451 1.2868)
(0.591351 0.776208 1.16413)
(0.616359 0.767709 1.20071)
(0.646968 0.721484 1.19635)
(0.855998 0.676364 1.33079)
(0.809144 0.677545 1.30669)
(0.772981 0.682712 1.28989)
(0.793372 0.714657 1.33374)
(0.585799 0.761957 1.12614)
(0.567239 0.797578 1.1294)
(0.630643 0.69045 1.11196)
(0.610824 0.721391 1.12268)
(0.629699 0.709759 1.15027)
(0.741905 0.68792 0.725286)
(0.62194 0.859527 0.7207)
(0.76311 0.635335 0.771576)
(0.787337 0.588932 0.831492)
(0.544534 0.860599 0.855785)
(0.78495 0.864037 0.584556)
(0.523285 0.953516 0.854391)
(0.839032 0.944996 0.541167)
(0.69462 0.689634 0.771005)
(0.59111 0.812007 0.795399)
(0.85152 0.719998 0.631086)
(0.60593 0.958717 0.708132)
(0.703119 0.848604 0.644961)
(0.668795 0.760634 0.729428)
(0.777769 0.793696 0.619839)
(0.56379 0.899373 0.787277)
(0.745769 0.945923 0.58618)
(0.855826 0.585835 0.781107)
(0.895707 0.878612 0.538603)
(0.865621 0.546576 0.86658)
(0.699881 0.610426 0.939904)
(0.570286 0.773077 0.89557)
(0.635694 0.674455 0.912819)
(0.783208 0.563934 0.919547)
(0.55504 0.985791 0.777107)
(0.633243 0.719004 0.823179)
(0.834818 0.6501 0.702799)
(0.706995 0.631405 0.84924)
(0.67212 0.955847 0.63985)
(0.516494 0.891304 0.934648)
(0.87033 0.792447 0.579102)
(0.872858 0.529114 0.93793)
(0.502259 1.00786 0.916335)
(0.755333 0.737484 0.670636)
(0.647173 0.90409 0.675491)
(0.920153 0.950886 0.519346)
(0.681873 0.725075 0.750239)
(0.705488 0.72416 0.727373)
(0.718324 0.688723 0.748218)
(0.752616 0.661584 0.748442)
(0.728963 0.662387 0.771291)
(0.748806 0.712699 0.698074)
(0.712253 0.748949 0.700212)
(0.799162 0.642643 0.737364)
(0.788422 0.668934 0.714087)
(0.795214 0.693722 0.686725)
(0.840363 0.871356 0.561504)
(0.812125 0.904554 0.562818)
(0.867358 0.911807 0.53989)
(0.765398 0.904964 0.585344)
(0.792483 0.94545 0.563597)
(0.883156 0.835537 0.558828)
(0.827562 0.828212 0.581797)
(0.78151 0.828883 0.602234)
(0.740506 0.821099 0.632408)
(0.74432 0.856329 0.614862)
(0.724838 0.897316 0.615674)
(0.824116 0.793091 0.599484)
(0.907871 0.984505 0.519869)
(0.955938 0.978651 0.514335)
(0.951497 0.929952 0.519493)
(0.54357 0.92633 0.820865)
(0.554173 0.879913 0.821541)
(0.534126 0.906969 0.855118)
(0.559567 0.942534 0.782222)
(0.539133 0.969566 0.815781)
(0.520003 0.922383 0.894477)
(0.530573 0.875925 0.895181)
(0.545015 1.02794 0.797601)
(0.529254 1.01176 0.836271)
(0.512841 0.980639 0.885346)
(0.518439 1.03889 0.867155)
(0.509692 0.949435 0.925518)
(0.879629 0.947965 0.530233)
(0.907955 0.914768 0.528979)
(0.774824 0.987884 0.568206)
(0.821383 0.987387 0.545736)
(0.867307 0.981595 0.530751)
(0.663966 0.704176 0.79715)
(0.651118 0.739665 0.776436)
(0.735097 0.633249 0.810476)
(0.700918 0.660409 0.810091)
(0.670379 0.674975 0.836187)
(0.935492 0.847237 0.543581)
(0.939338 0.893861 0.529093)
(0.922956 0.804202 0.563775)
(0.645554 0.809969 0.725063)
(0.630022 0.786088 0.762565)
(0.606618 0.835674 0.758194)
(0.612415 0.765334 0.809291)
(0.577639 0.855608 0.791363)
(0.567844 0.836145 0.825634)
(0.59293 0.879313 0.754143)
(0.580728 0.792438 0.845441)
(0.557618 0.816702 0.875671)
(0.601868 0.745842 0.859413)
(0.76678 0.765611 0.645345)
(0.814628 0.756812 0.625455)
(0.803531 0.728722 0.650935)
(0.861191 0.756259 0.60517)
(0.910224 0.72527 0.61307)
(0.906422 0.687895 0.644022)
(0.843586 0.685069 0.667118)
(0.898363 0.652965 0.680006)
(0.919392 0.761461 0.587089)
(0.614139 0.909083 0.714458)
(0.584998 0.928966 0.74794)
(0.58055 0.972145 0.742811)
(0.625789 1.00542 0.684993)
(0.594279 1.01025 0.721994)
(0.568764 1.02377 0.756552)
(0.639295 0.957245 0.674267)
(0.658714 1.00395 0.650666)
(0.626638 0.931352 0.691873)
(0.634687 0.881808 0.698211)
(0.659786 0.929977 0.657751)
(0.662821 0.853977 0.683151)
(0.686446 0.804613 0.687528)
(0.72942 0.792968 0.657799)
(0.709132 0.950857 0.613072)
(0.687758 0.902202 0.642389)
(0.675227 0.876287 0.66026)
(0.732725 0.993566 0.592204)
(0.69605 0.998576 0.619121)
(0.809521 0.610524 0.77634)
(0.821629 0.587321 0.806369)
(0.775292 0.6121 0.801515)
(0.826517 0.567721 0.849005)
(0.860776 0.566193 0.823855)
(0.901053 0.567723 0.79827)
(0.904819 0.590234 0.756401)
(0.905991 0.548057 0.841125)
(0.845559 0.617918 0.742005)
(0.894194 0.622336 0.717061)
(0.543772 0.831892 0.915141)
(0.747272 0.610059 0.840392)
(0.824501 0.555194 0.893111)
(0.785349 0.576422 0.87552)
(0.74533 0.597557 0.884333)
(0.504111 1.04209 0.911647)
(0.49945 1.0434 0.958134)
(0.767083 0.568509 0.959787)
(0.812761 0.54884 0.959757)
(0.85751 0.531394 0.968981)
(0.906982 0.520929 0.968948)
(0.828118 0.546496 0.928733)
(0.685082 0.620056 0.969956)
(0.725399 0.591699 0.969938)
(0.741685 0.587022 0.929734)
(0.619367 0.688079 0.956402)
(0.653111 0.652084 0.956377)
(0.667956 0.642298 0.926348)
(0.586801 0.737354 0.947723)
(0.560526 0.779763 0.947745)
(0.603302 0.723492 0.904203)
(0.515728 0.885803 0.967311)
(0.533869 0.838683 0.967311)
(0.50676 0.935175 0.967314)
(0.499525 0.993584 0.958142)
(0.907473 0.525546 0.922059)
(0.903876 0.53431 0.886343)
(0.869346 0.537875 0.902266)
(0.703536 0.620927 0.894553)
(0.671459 0.652757 0.88106)
(0.634567 0.696678 0.867946)
(0.65399 1.3283 0.806331)
(0.626045 1.25447 0.765102)
(0.867852 1.4703 0.837044)
(0.751302 1.21665 0.624661)
(0.5307 1.16515 0.874114)
(0.965114 1.49641 0.861199)
(0.914225 1.16209 0.539333)
(0.850334 1.25533 0.59653)
(0.577529 1.25974 0.854486)
(0.699357 1.28694 0.710662)
(0.652433 1.18804 0.691549)
(0.631269 1.3575 0.909629)
(0.792407 1.32821 0.676569)
(0.820724 1.17367 0.570355)
(0.74365 1.37227 0.760973)
(0.850852 1.09625 0.539365)
(0.947808 1.45943 0.777838)
(0.77269 1.11916 0.576988)
(0.532803 1.21314 0.931612)
(0.900998 1.5032 0.929749)
(0.78879 1.46351 0.905581)
(0.845881 1.41193 0.741616)
(0.93827 1.26917 0.582378)
(0.578795 1.16396 0.771916)
(0.570444 1.28921 0.93723)
(0.78709 1.43043 0.815433)
(0.959302 1.34265 0.631712)
(0.881376 1.34197 0.648278)
(0.510257 1.1429 0.939092)
(0.984601 1.51474 0.93837)
(0.930072 1.07785 0.518473)
(0.707772 1.39915 0.848461)
(0.707104 1.42491 0.930989)
(0.950949 1.3993 0.689412)
(0.610417 1.11864 0.711409)
(0.702918 1.12653 0.624029)
(0.96835 1.51562 0.96922)
(1.01858 1.51614 0.969122)
(1.01821 1.51114 0.921182)
(0.615678 1.29393 0.830552)
(0.60179 1.25706 0.809937)
(0.640032 1.29144 0.785701)
(0.662829 1.27066 0.738081)
(0.676953 1.30768 0.758744)
(0.642608 1.34296 0.858031)
(0.604392 1.3087 0.88202)
(0.721517 1.32968 0.735773)
(0.698861 1.3502 0.783808)
(0.68085 1.36374 0.827361)
(0.66945 1.37823 0.879162)
(0.725834 1.3858 0.804857)
(0.523403 1.19409 0.965796)
(0.541469 1.23856 0.965784)
(0.503336 1.11089 0.969539)
(0.512155 1.15899 0.969531)
(0.521578 1.17801 0.935365)
(0.560254 1.27655 0.968609)
(0.587228 1.31584 0.968594)
(0.551638 1.25119 0.934427)
(0.617609 1.35001 0.954826)
(0.652747 1.3831 0.954757)
(0.600796 1.32328 0.923466)
(0.732686 1.4427 0.965438)
(0.690687 1.41674 0.965529)
(0.669116 1.39114 0.9203)
(0.77352 1.46207 0.952846)
(0.820509 1.48022 0.952687)
(0.747937 1.44407 0.918333)
(0.87667 1.50004 0.964939)
(0.926555 1.5098 0.964818)
(0.844913 1.48317 0.917602)
(0.942961 1.50892 0.934036)
(0.960923 1.04211 0.513899)
(0.912819 1.04799 0.519441)
(0.966031 1.09105 0.518115)
(0.532799 1.11768 0.846039)
(0.518328 1.12072 0.890557)
(0.52047 1.15401 0.906592)
(0.508105 1.10964 0.923013)
(0.556799 1.11703 0.795082)
(0.554642 1.16446 0.823088)
(0.555101 1.2364 0.893069)
(0.531805 1.18918 0.902844)
(0.554159 1.21243 0.864348)
(0.578257 1.21193 0.813186)
(0.916625 1.48325 0.849046)
(0.908017 1.46489 0.807532)
(0.956549 1.47803 0.819535)
(0.998637 1.46855 0.794475)
(1.00729 1.48717 0.836295)
(0.933171 1.49986 0.895556)
(0.974867 1.50564 0.899781)
(0.884416 1.48685 0.883368)
(1.0085 1.50194 0.882502)
(0.580725 1.11292 0.753895)
(0.627926 1.08534 0.686558)
(0.596418 1.09025 0.723665)
(0.594738 1.14129 0.741789)
(0.711312 1.08389 0.611155)
(0.674142 1.08933 0.642826)
(0.657127 1.12254 0.668073)
(0.78826 1.07448 0.56365)
(0.746148 1.08022 0.587615)
(0.737927 1.12282 0.600511)
(0.873259 1.05719 0.52987)
(0.827254 1.06304 0.544844)
(0.811827 1.1077 0.558102)
(0.890544 1.08705 0.528904)
(0.821736 1.29184 0.636508)
(0.771862 1.27253 0.650535)
(0.800809 1.23595 0.610524)
(0.786196 1.19515 0.597472)
(0.835502 1.21453 0.583414)
(0.796689 1.14643 0.573661)
(0.762128 1.16796 0.600831)
(0.727086 1.17163 0.624333)
(0.675872 1.23755 0.701067)
(0.702135 1.2023 0.658251)
(0.725759 1.25186 0.667772)
(0.745939 1.30751 0.693666)
(0.677957 1.15728 0.657902)
(0.602439 1.20926 0.768535)
(0.639465 1.2213 0.728473)
(0.615853 1.17593 0.732118)
(0.867522 1.16788 0.554793)
(0.882501 1.2088 0.567812)
(0.926256 1.21566 0.5608)
(0.894355 1.26221 0.589425)
(0.835836 1.13499 0.554842)
(0.882512 1.12916 0.539371)
(0.922185 1.11997 0.528926)
(0.963847 1.18061 0.541938)
(0.976018 1.23426 0.563434)
(0.958261 1.13321 0.528504)
(0.865924 1.29867 0.622354)
(0.836914 1.33504 0.662397)
(0.910124 1.30565 0.615257)
(0.573972 1.27452 0.895832)
(0.768379 1.35034 0.718927)
(0.631473 1.15335 0.701539)
(0.707415 1.4121 0.889735)
(0.794806 1.39197 0.751312)
(0.81921 1.37011 0.709024)
(0.864037 1.37711 0.694976)
(0.816683 1.42125 0.778668)
(0.765375 1.40138 0.788167)
(0.747442 1.41471 0.832017)
(0.898684 1.40562 0.715515)
(0.949669 1.4295 0.733626)
(0.896906 1.43556 0.759598)
(0.997631 1.41434 0.707388)
(0.996214 1.44456 0.751696)
(0.857009 1.44125 0.789354)
(0.916233 1.37058 0.668769)
(0.955279 1.37102 0.660534)
(0.920443 1.34229 0.639957)
(0.993551 1.38225 0.669857)
(0.997555 1.35384 0.641013)
(0.828378 1.4669 0.871431)
(0.787953 1.44708 0.86054)
(0.748234 1.43125 0.876939)
(0.827468 1.45027 0.82619)
(0.948869 1.30593 0.60699)
(0.981737 1.27821 0.585795)
(0.992361 1.31506 0.610444)
(0.908727 0.894064 1.24972)
(0.885403 0.771018 1.1258)
(0.785351 0.83271 1.0929)
(0.863998 0.958898 1.2515)
(0.72951 0.919405 1.0745)
(0.839859 0.899024 1.21531)
(0.907106 0.824265 1.20399)
(0.824353 0.842547 1.16178)
(0.768775 0.924936 1.15746)
(0.931765 0.959257 1.27778)
(0.84991 0.762845 1.05611)
(0.803086 0.970766 1.21127)
(0.737052 0.98186 1.13004)
(0.910919 0.734152 1.0557)
(0.709856 0.989723 1.06027)
(0.706397 1.01945 1.03013)
(0.713757 1.0185 1.07429)
(0.727414 1.01458 1.10918)
(0.748718 1.01204 1.1494)
(0.723535 0.985812 1.0951)
(0.896416 0.797757 1.16476)
(0.865822 0.833508 1.18282)
(0.85494 0.806818 1.14379)
(0.83552 0.801908 1.10931)
(0.804966 0.83767 1.12725)
(0.81776 0.797804 1.07452)
(0.867764 0.766985 1.0909)
(0.898249 0.752635 1.09074)
(0.880436 0.748522 1.0559)
(0.942973 0.797892 1.18691)
(0.932241 0.771362 1.14772)
(0.930459 0.750151 1.10745)
(0.943209 0.731666 1.07236)
(0.777252 0.878908 1.1251)
(0.749254 0.922221 1.11587)
(0.757612 0.876085 1.08368)
(0.736577 0.892274 1.03723)
(0.764567 0.848945 1.04638)
(0.752973 0.953421 1.14375)
(0.733339 0.950675 1.10222)
(0.719246 0.936799 1.03723)
(0.719761 0.954584 1.06738)
(0.709362 0.971952 1.03012)
(0.950449 0.907539 1.2633)
(0.961927 0.940039 1.27738)
(0.920269 0.92674 1.26371)
(0.966647 0.98648 1.28516)
(0.897931 0.959164 1.26463)
(0.886394 0.926528 1.25062)
(0.920549 0.99192 1.27735)
(0.88666 0.991793 1.26417)
(0.87354 0.861712 1.20965)
(0.832201 0.870857 1.18845)
(0.796698 0.883783 1.15962)
(0.804484 0.912049 1.1863)
(0.866298 0.751058 1.02806)
(0.82661 0.776919 1.02802)
(0.896803 0.736712 1.02783)
(0.794408 0.811898 1.04643)
(0.946597 0.865803 1.24215)
(0.907976 0.859243 1.22679)
(0.874343 0.896628 1.23251)
(0.945814 0.830945 1.21926)
(0.851962 0.929028 1.23337)
(0.845236 0.996684 1.24284)
(0.781848 1.00651 1.19006)
(0.814738 1.00261 1.22267)
(0.833623 0.964894 1.23138)
(0.770274 0.976384 1.17049)
(0.942649 0.724409 1.02789)
(0.786008 0.947917 1.18427)
(0.821533 0.934935 1.21331)
(0.751347 1.12145 1.12463)
(0.943821 1.284 1.12455)
(0.890326 1.28935 1.06464)
(0.917855 1.23492 1.18459)
(0.857755 1.18057 1.20047)
(0.937688 1.15516 1.25188)
(0.863229 1.24392 1.13725)
(0.819028 1.24496 1.07299)
(0.877477 1.10212 1.25165)
(0.968695 1.31163 1.05779)
(0.803087 1.19184 1.13846)
(0.807945 1.12348 1.1959)
(0.755179 1.17632 1.06714)
(0.721484 1.10971 1.05748)
(0.94603 1.08222 1.27979)
(0.854688 1.26717 1.06883)
(0.876858 1.26672 1.10098)
(0.841217 1.24449 1.10503)
(0.811142 1.21846 1.10574)
(0.833176 1.2179 1.13786)
(0.903555 1.26398 1.13093)
(0.930908 1.25953 1.1546)
(0.89062 1.2395 1.16088)
(0.917169 1.28674 1.09452)
(0.887806 1.20777 1.19256)
(0.860612 1.21235 1.16887)
(0.830548 1.18629 1.16939)
(0.719588 1.0785 1.07292)
(0.712203 1.07943 1.0287)
(0.755936 1.08185 1.14675)
(0.734519 1.08437 1.10643)
(0.736467 1.11561 1.09098)
(0.987117 1.27212 1.14919)
(0.989535 1.29384 1.10815)
(0.95633 1.29787 1.09121)
(1.00193 1.30771 1.07465)
(1.00276 1.31523 1.02899)
(0.975049 1.13126 1.26575)
(0.979956 1.17366 1.24533)
(0.97029 1.2137 1.21161)
(0.974115 1.24746 1.17929)
(0.927981 1.19518 1.21824)
(0.979095 1.09469 1.27966)
(0.973857 1.04798 1.28621)
(0.941933 1.11875 1.26587)
(0.851908 1.06831 1.24288)
(0.893477 1.06338 1.26433)
(0.911836 1.09225 1.26574)
(0.927656 1.05339 1.27834)
(0.84286 1.11291 1.22373)
(0.817284 1.07899 1.21502)
(0.907576 1.12867 1.25177)
(0.867777 1.14144 1.22606)
(0.832863 1.15206 1.19819)
(0.897877 1.16798 1.22615)
(0.723988 1.12512 1.02875)
(0.784193 1.08287 1.18232)
(0.779789 1.12252 1.16013)
(0.753339 1.14893 1.09589)
(0.738367 1.14304 1.06229)
(0.779234 1.18411 1.10267)
(0.777266 1.15668 1.13151)
(0.805639 1.15775 1.16717)
(0.95494 1.31231 1.02885)
(0.929609 1.30047 1.06123)
(0.915767 1.30118 1.0324)
(0.740834 1.15843 1.0335)
(0.766391 1.19796 1.03361)
(0.835296 1.26195 1.03656)
(0.798327 1.23228 1.03639)
(0.787156 1.21065 1.07004)
(0.87093 1.28413 1.03225)
(0.871172 1.11407 0.755543)
(0.966743 1.28294 0.864961)
(0.782813 1.19836 0.903318)
(0.947528 1.15925 0.747855)
(0.81242 1.17016 0.82987)
(0.880453 1.2527 0.861172)
(0.810329 1.09095 0.788899)
(0.883523 1.19274 0.793095)
(0.754849 1.11317 0.863658)
(0.944542 1.23215 0.80268)
(0.934029 1.30347 0.934695)
(0.946625 1.0856 0.720855)
(0.836715 1.2616 0.938813)
(0.730535 1.13466 0.943285)
(0.736271 1.08024 0.887741)
(0.757637 1.0777 0.847383)
(0.716772 1.09193 0.971708)
(0.724152 1.09101 0.927456)
(0.742776 1.12396 0.903545)
(0.782782 1.10213 0.826414)
(0.785365 1.0666 0.810084)
(0.818371 1.06269 0.777371)
(0.890365 1.06939 0.739264)
(0.909013 1.09993 0.738176)
(0.927955 1.05508 0.72199)
(0.947141 1.12248 0.734324)
(0.909362 1.1367 0.751706)
(0.848019 1.1815 0.811527)
(0.877441 1.15346 0.774308)
(0.842058 1.14226 0.792766)
(0.915665 1.1761 0.770487)
(0.848746 1.07429 0.760701)
(0.840793 1.10257 0.772242)
(0.811481 1.13062 0.809376)
(0.728508 1.13759 0.971654)
(0.783693 1.1417 0.846841)
(0.768916 1.15584 0.883463)
(0.797742 1.18433 0.866674)
(0.756705 1.16656 0.923381)
(0.974157 1.04968 0.714107)
(0.979391 1.09638 0.720651)
(0.979949 1.1333 0.734119)
(0.912643 1.24254 0.831987)
(0.91404 1.21246 0.797874)
(0.882126 1.22283 0.827132)
(0.946166 1.1958 0.775244)