/*--------------------------------*- C++ -*----------------------------------*\
| =========                 |                                                 |
| \\      /  F ield         | OpenFOAM: The Open Source CFD Toolbox           |
|  \\    /   O peration     | Version:  v1806                                 |
|   \\  /    A nd           | Web:      www.OpenFOAM.com                      |
|    \\/     M anipulation  |                                                 |
\*---------------------------------------------------------------------------*/
FoamFile
{
    version     2.0;
    format      ascii;
    class       surfaceScalarField;
    location    "0.0815";
    object      phi;
}
// * * * * * * * * * * * * * * * * * * * * * * * * * * * * * * * * * * * * * //

dimensions      [0 3 -1 0 0 0 0];
oriented        oriented;


internalField   nonuniform List<scalar> 
187200
(
7.17354e-06
2.60567e-06
-9.78026e-06
5.12609e-05
-2.21635e-05
-2.19238e-05
7.32744e-05
-1.00174e-05
-1.19959e-05
9.25998e-05
-9.47607e-06
-9.84924e-06
0.000108433
-5.83886e-06
-9.99446e-06
0.00012545
-4.96488e-06
-1.20518e-05
0.000140599
-7.14318e-07
-1.44337e-05
0.000157391
5.41544e-07
-1.73339e-05
0.000170738
5.16689e-06
-1.85136e-05
0.000183257
6.26687e-06
-1.87861e-05
0.000195001
7.7998e-06
-1.95446e-05
0.000202698
1.27501e-05
-2.04476e-05
0.000193888
2.20092e-05
-1.31991e-05
0.00016611
3.61216e-05
-8.34474e-06
0.000121429
4.45547e-05
1.2669e-07
8.27849e-05
2.93155e-05
9.32767e-06
2.93912e-05
3.17762e-05
2.16171e-05
-2.2562e-05
4.55946e-05
6.35846e-06
-0.000119899
9.92172e-05
-1.87978e-06
-0.000253143
0.000137224
-3.9805e-06
-0.0005061
0.000226222
2.6735e-05
-0.000690995
0.000235158
-5.02636e-05
-0.000821983
0.000281898
-0.00015091
-0.000865871
0.000307496
-0.000263608
-0.00084977
0.000338491
-0.000354592
-0.00078043
0.000367196
-0.000436536
-0.000669655
0.000392017
-0.000502793
-0.000530795
0.000408051
-0.000546911
-0.00036413
0.000400637
-0.000567302
-0.000199448
0.000385243
-0.000549925
-6.64187e-05
0.000343282
-0.000476312
2.00131e-05
0.000298584
-0.000385016
5.41923e-05
0.000236257
-0.000270437
4.85644e-05
0.000174448
-0.00016882
2.55028e-05
0.000120502
-9.74405e-05
4.89651e-06
8.08774e-05
-6.02707e-05
-6.11571e-06
5.49642e-05
-4.39519e-05
-1.02911e-05
4.25578e-05
-3.83825e-05
-9.45637e-06
3.28871e-05
-3.37217e-05
2.30196e-05
-3.24766e-05
4.09339e-06
1.64066e-05
-1.78943e-05
4.47249e-05
-3.17414e-05
-3.10534e-05
8.62732e-05
-2.4528e-05
-2.70374e-05
0.000116935
-1.43378e-05
-2.57995e-05
0.000138929
-2.99696e-06
-2.48356e-05
0.000155772
7.22533e-06
-2.90328e-05
0.000163491
2.67739e-05
-3.52066e-05
0.000167133
3.81916e-05
-4.12927e-05
0.000160645
6.32267e-05
-5.15718e-05
0.000143397
8.19411e-05
-5.84268e-05
0.000101563
0.000125046
-7.54129e-05
3.85309e-05
0.000166233
-9.04506e-05
-4.5994e-05
0.00020336
-9.68267e-05
-0.000147924
0.00024568
-0.000107629
-0.000271355
0.000300264
-0.000132279
-0.000452621
0.000374611
-0.00016403
-0.000628803
0.000450365
-0.000242407
-0.000815161
0.000533086
-0.000301135
-0.000980981
0.000635436
-0.000370399
-0.00113861
0.000736012
-0.000441158
-0.00129269
0.000863114
-0.000482815
-0.00139131
0.000938975
-0.000605199
-0.00145015
0.00104501
-0.000704276
-0.00144112
0.00108908
-0.000790606
-0.00136015
0.00113394
-0.00087642
-0.0012176
0.00115807
-0.000933423
-0.0010252
0.00116442
-0.000964802
-0.000797555
0.00114233
-0.000961926
-0.000559902
0.00108362
-0.00092064
-0.000332114
0.00100412
-0.000846666
-0.000138177
0.000877401
-0.000728055
2.13054e-05
0.000734499
-0.000595398
0.000109277
0.000580494
-0.000432209
0.000135995
0.0004525
-0.000304769
0.000124338
0.000333273
-0.000201113
9.60282e-05
0.00024724
-0.000138053
6.4352e-05
0.000185426
-9.87853e-05
3.94458e-05
0.000145524
-7.80608e-05
1.48479e-05
0.000115992
-5.85069e-05
8.02905e-05
-4.24235e-05
1.88874e-05
1.00355e-05
-1.25163e-05
5.74129e-05
-3.55738e-05
-3.46931e-05
9.83607e-05
-2.5191e-05
-4.02847e-05
0.000127868
-2.36744e-06
-4.14775e-05
0.000143671
2.88171e-05
-4.76165e-05
0.000149024
5.88479e-05
-5.69756e-05
0.000140516
0.000100411
-6.51288e-05
0.000123959
0.000137724
-8.29758e-05
9.58981e-05
0.000199074
-0.000107787
3.94822e-05
0.000266588
-0.000128232
-4.41008e-05
0.000349532
-0.000140904
-0.000148476
0.000433317
-0.00016271
-0.000303597
0.000537407
-0.000178927
-0.000480943
0.000645225
-0.0002222
-0.000679176
0.000754301
-0.000255803
-0.000862874
0.000865166
-0.000306857
-0.00102323
0.00097348
-0.000362762
-0.00116629
0.00109507
-0.00041892
-0.00129939
0.00123894
-0.000470403
-0.00142956
0.00138536
-0.000519179
-0.00155468
0.00152351
-0.000535274
-0.00162354
0.00160747
-0.000599639
-0.001645
0.00171401
-0.000647537
-0.00161307
0.00173393
-0.000676778
-0.00152109
0.00175671
-0.000714743
-0.00138242
0.00174503
-0.000725633
-0.00120674
0.00170477
-0.000716034
-0.00100611
0.00162524
-0.000683544
-0.000793678
0.001507
-0.000635812
-0.000573669
0.00135815
-0.000574042
-0.000384408
0.00118143
-0.000493288
-0.000223588
0.00099992
-0.00042624
-0.000104667
0.000799177
-0.000337604
-2.15203e-05
0.000637789
-0.000268437
2.1618e-05
0.000489059
-0.000198924
3.75005e-05
0.000383334
-0.000151976
3.95918e-05
0.00030453
-0.000121196
3.16054e-05
0.000253577
-0.000100067
1.42539e-05
0.000204775
-7.14317e-05
0.000136867
-4.23229e-05
2.09261e-05
6.85667e-06
-1.77472e-05
5.89422e-05
-2.66664e-05
-4.69235e-05
9.9127e-05
-6.52131e-06
-5.88544e-05
0.000120684
4.19464e-05
-6.58703e-05
0.000125052
9.62726e-05
-7.18236e-05
0.000114164
0.00015479
-8.50536e-05
9.41505e-05
0.000230204
-0.00010978
5.67628e-05
0.000310663
-0.000135551
8.19396e-07
0.000422281
-0.000167263
-8.168e-05
0.000535836
-0.000186748
-0.000199191
0.000669221
-0.000202177
-0.000344926
0.000799786
-0.000220734
-0.000505244
0.000931319
-0.000233595
-0.00065992
0.00105
-0.000250099
-0.000810797
0.00117716
-0.000271982
-0.000951801
0.0013054
-0.00029923
-0.00108109
0.00143007
-0.000327304
-0.0011953
0.0015532
-0.000343917
-0.0013012
0.00169437
-0.000349538
-0.00140458
0.00182462
-0.000335884
-0.00152098
0.00192306
-0.000283143
-0.00158451
0.00196201
-0.000291018
-0.00160444
0.00202432
-0.000290379
-0.00158183
0.00198909
-0.000277777
-0.00151031
0.00196677
-0.000281579
-0.00140824
0.00191144
-0.000268478
-0.00128222
0.00182952
-0.000250776
-0.00113994
0.00171425
-0.000231275
-0.000986056
0.00156294
-0.000209828
-0.000819062
0.00139681
-0.000205647
-0.000640244
0.00120709
-0.000204481
-0.000463652
0.00102623
-0.000202906
-0.000307511
0.000840427
-0.000197392
-0.000181957
0.000702442
-0.000190207
-9.42582e-05
0.000571905
-0.000170545
-3.41664e-05
0.000472888
-0.000149646
3.71616e-06
0.000401377
-0.000134729
1.80059e-05
0.000348986
-0.000109699
1.55325e-05
0.000285652
-7.84039e-05
0.00019236
-3.99613e-05
2.14898e-05
2.13075e-05
-3.59406e-05
6.07463e-05
9.9259e-06
-7.58486e-05
0.000103174
4.2712e-05
-9.16613e-05
0.000121251
0.000122083
-9.82131e-05
0.000116729
0.000206596
-0.000105802
8.83137e-05
0.000304206
-0.000121
4.67471e-05
0.000423637
-0.000151867
4.6138e-06
0.000534978
-0.000182182
-4.23687e-05
0.000678533
-0.00020927
-0.000116081
0.000828634
-0.000219085
-0.000211176
0.000984916
-0.0002206
-0.000318261
0.00112414
-0.000217272
-0.000446164
0.00126779
-0.000208567
-0.000584719
0.00139689
-0.000208338
-0.000722535
0.00151729
-0.000202312
-0.000844125
0.00162515
-0.000198163
-0.000946889
0.00171758
-0.000184742
-0.00102298
0.00178359
-0.000154299
-0.00111275
0.00187296
-8.88203e-05
-0.0012075
0.001942
-2.26229e-05
-0.00134209
0.00198287
7.47786e-05
-0.001413
0.0019337
9.92228e-05
-0.00145031
0.00195086
0.000110777
-0.00145916
0.00188344
0.000114499
-0.00143241
0.00184287
9.71409e-05
-0.00138736
0.0017788
8.75866e-05
-0.0013235
0.00169215
7.35232e-05
-0.00125332
0.00158488
5.9189e-05
-0.00115757
0.00144889
1.8306e-05
-0.00103721
0.00130327
-2.68306e-05
-0.000889841
0.00113835
-7.86255e-05
-0.000723046
0.000987522
-0.000128083
-0.000555397
0.000831346
-0.000158568
-0.000391366
0.000715425
-0.000177015
-0.000253352
0.00061677
-0.00018288
-0.000138985
0.000525825
-0.000167304
-5.67966e-05
0.000467358
-0.00014817
-6.28373e-06
0.000420935
-0.000122462
8.95307e-06
0.000352766
-8.23514e-05
0.000237221
-3.59077e-05
1.45066e-05
6.96911e-05
-6.28901e-05
6.29509e-05
7.78401e-05
-0.000116358
0.000107209
0.000137103
-0.000138649
0.000126072
0.00024149
-0.00013827
0.000116057
0.000355282
-0.000138672
8.35478e-05
0.000486264
-0.00014955
5.57572e-05
0.000637029
-0.000185602
2.30701e-05
0.000783935
-0.00021627
-2.46459e-05
0.000953866
-0.000227617
-8.87777e-05
0.0011082
-0.000215432
-0.000161706
0.00125479
-0.000196941
-0.000245085
0.00138151
-0.000173988
-0.000331613
0.00150117
-0.000146855
-0.000413926
0.00159643
-0.000117227
-0.000495691
0.00168215
-8.30958e-05
-0.00056372
0.00173913
-4.59486e-05
-0.000651729
0.00178216
2.34325e-05
-0.000753807
0.00179835
8.73218e-05
-0.000854132
0.00180808
0.000165202
-0.000947612
0.0017874
0.000248077
-0.00108648
0.00180978
0.000311959
-0.00118799
0.00170972
0.000325483
-0.00126042
0.00169913
0.000324161
-0.00131573
0.00161898
0.000319773
-0.00134111
0.00157078
0.000297468
-0.0013532
0.0015124
0.000278495
-0.00135074
0.00144341
0.000246269
-0.00133765
0.00136393
0.000207864
-0.0012996
0.00126311
0.000147737
-0.00121482
0.00115963
5.8859e-05
-0.00109965
0.00103965
-1.64659e-05
-0.000936427
0.00092615
-0.000101854
-0.000759239
0.000812659
-0.000158501
-0.000564785
0.000716896
-0.000195925
-0.00038598
0.000647487
-0.000209523
-0.000233844
0.000566655
-0.000192966
-0.000112315
0.000519233
-0.000173404
-3.23981e-05
0.000477695
-0.000136677
5.28786e-06
0.000404665
-8.95846e-05
0.000277167
-3.46578e-05
1.76246e-05
0.000147031
-9.49642e-05
8.2683e-05
0.000182519
-0.000169737
0.000132257
0.000272291
-0.000184762
0.000153757
0.000395446
-0.000175455
0.000145208
0.000533833
-0.000170001
0.000100421
0.000704377
-0.000173326
9.00447e-05
0.000857241
-0.000209835
6.89003e-05
0.00102392
-0.00021884
4.94181e-05
0.00117961
-0.000206257
9.63907e-06
0.00132032
-0.000172347
-4.2773e-05
0.00144507
-0.000137872
-0.000108847
0.00154762
-0.000100033
-0.000178561
0.00163201
-6.11269e-05
-0.00024963
0.00168383
-1.63268e-05
-0.000320262
0.00171353
3.92497e-05
-0.000381902
0.00171117
8.95993e-05
-0.000447745
0.0016976
0.000150404
-0.000514625
0.00164802
0.000217206
-0.000616099
0.00161378
0.000295775
-0.000720896
0.00152908
0.000363115
-0.000857787
0.00152589
0.000420787
-0.000996997
0.00140969
0.00043925
-0.0010823
0.00136485
0.000419576
-0.00118437
0.00131853
0.000402523
-0.0012584
0.00128227
0.000362536
-0.00132472
0.00125021
0.000328511
-0.00137543
0.00121221
0.000281912
-0.00140928
0.0011675
0.000230279
-0.00141854
0.00111001
0.000162364
-0.00136868
0.00104747
6.22999e-05
-0.001282
0.0009662
-1.32258e-05
-0.00114144
0.000879594
-9.40046e-05
-0.000955656
0.000794057
-0.000167184
-0.000734397
0.000703048
-0.000207411
-0.000502754
0.000660919
-0.000245074
-0.00032035
0.000610536
-0.000226287
-0.000160246
0.000564328
-0.000205199
-5.47417e-05
0.000530834
-0.000158643
5.82798e-07
0.000453354
-0.000104015
0.000315472
-3.77226e-05
2.75383e-05
0.000247428
-0.000127935
0.000110149
0.000317133
-0.000217224
0.000175167
0.000434642
-0.00022737
0.000201268
0.000570218
-0.000200873
0.000192987
0.000722372
-0.000180258
0.000178813
0.000899011
-0.000180459
0.000185623
0.00105049
-0.00020006
0.000182365
0.00121886
-0.000191684
0.000167301
0.00135443
-0.000159758
0.000127868
0.00147412
-0.000114366
8.04025e-05
0.00156907
-7.65361e-05
2.42452e-05
0.00163198
-2.82019e-05
-3.70422e-05
0.00166787
2.54264e-05
-0.000101265
0.00166591
8.21432e-05
-0.000163291
0.00164102
0.000134539
-0.000227305
0.00158493
0.000190254
-0.000292664
0.00151878
0.00024417
-0.000363016
0.00143156
0.000286817
-0.000452643
0.00136408
0.00033932
-0.000558606
0.00125617
0.00037888
-0.000676013
0.00122506
0.000418231
-0.00084475
0.00115355
0.000424874
-0.000955858
0.0010748
0.000401161
-0.00109426
0.00107904
0.000377892
-0.00120778
0.00105481
0.000340982
-0.00130869
0.00104752
0.000303604
-0.00139453
0.00103427
0.000263774
-0.00146305
0.00101395
0.00022207
-0.00150023
0.000989112
0.000158072
-0.00148422
0.000945796
8.56731e-05
-0.00142181
0.00088826
1.55259e-05
-0.00130145
0.000818233
-5.89935e-05
-0.00111347
0.000753095
-0.000147021
-0.000896057
0.000688264
-0.000202632
-0.000641677
0.00064816
-0.000241621
-0.000413231
0.000639644
-0.000257554
-0.000216288
0.000595803
-0.000228417
-8.0005e-05
0.000576388
-0.000181838
-6.39251e-06
0.000496339
-0.000116598
0.000351315
-4.2237e-05
4.6004e-05
0.000358365
-0.000156941
0.000152553
0.000470634
-0.00026005
0.000245991
0.000609363
-0.000268158
0.000289363
0.000750804
-0.000223958
0.000285087
0.000915105
-0.000188457
0.000282653
0.00107664
-0.000175191
0.000279849
0.00122153
-0.000168232
0.000283261
0.00136423
-0.00014878
0.000277704
0.00147347
-0.000113487
0.000247144
0.00156697
-6.22872e-05
0.000203499
0.00162102
-8.29842e-06
0.000150506
0.00163993
4.50359e-05
8.42887e-05
0.00163313
0.000100965
1.61725e-05
0.00158573
0.000148291
-5.10965e-05
0.0015152
0.000193088
-0.00012129
0.00142053
0.000234598
-0.000193749
0.00132349
0.000267756
-0.000268132
0.00121665
0.000289289
-0.000346435
0.00113274
0.00030964
-0.000461978
0.00103864
0.000333067
-0.00057232
0.000985121
0.000350284
-0.000739829
0.000965692
0.000355365
-0.000888371
0.000881626
0.000341713
-0.0010383
0.000911313
0.000317651
-0.00117588
0.000896611
0.000295778
-0.0012949
0.000905085
0.000261459
-0.00140502
0.000901108
0.000243275
-0.0014956
0.00090042
0.000204108
-0.00156289
0.000881761
0.000174642
-0.00158333
0.000847241
0.000118997
-0.00154095
0.000797146
4.87312e-05
-0.00143473
0.000742341
-3.03278e-05
-0.00125205
0.000684216
-0.000113795
-0.00102071
0.000637616
-0.00018069
-0.000749119
0.00060627
-0.000229707
-0.000492105
0.000633994
-0.000251364
-0.000268645
0.000619378
-0.000247034
-0.000101917
0.000609251
-0.00019959
-1.46548e-05
0.000539801
-0.000130725
0.000385738
-4.90784e-05
6.4094e-05
0.000466798
-0.000172526
0.000196536
0.000629309
-0.000291116
0.000316358
0.000784432
-0.00029489
0.000373727
0.000927007
-0.000233572
0.000388742
0.00107887
-0.000178784
0.000387516
0.00122064
-0.00014278
0.00037812
0.00135365
-0.00012273
0.000374333
0.0014651
-9.709e-05
0.000366012
0.00154379
-6.19964e-05
0.000349138
0.00159286
-9.01236e-06
0.000312647
0.00161891
3.85998e-05
0.000243155
0.00160662
0.000102808
0.000173712
0.00155357
0.000149003
9.9226e-05
0.00146916
0.00019106
2.32517e-05
0.00136822
0.000222951
-5.52773e-05
0.00125303
0.00024603
-0.000133936
0.00114382
0.00025833
-0.000214185
0.00103773
0.000259165
-0.000298664
0.000958046
0.000259177
-0.000414748
0.000890934
0.000263793
-0.000539508
0.000837827
0.000272054
-0.000684196
0.000831265
0.000279117
-0.000853661
0.000767841
0.00028325
-0.000993946
0.000784558
0.00026704
-0.00113977
0.000779031
0.000263402
-0.00126212
0.000790529
0.000236911
-0.00138511
0.000790396
0.000233699
-0.00149707
0.000790352
0.000222032
-0.00158365
0.000767135
0.000201205
-0.00162979
0.000736666
0.000156715
-0.00161427
0.000698637
8.29842e-05
-0.0015276
0.000656728
-1.05334e-06
-0.00136616
0.000613861
-9.10908e-05
-0.00113521
0.00057778
-0.00017111
-0.000862861
0.00054395
-0.00021003
-0.000569322
0.000577329
-0.000236875
-0.000320035
0.000614228
-0.000244137
-0.000127748
0.000624043
-0.00020708
-2.32408e-05
0.000572622
-0.000137328
0.000416055
-5.35582e-05
8.02488e-05
0.000565236
-0.000178686
0.000242172
0.000778281
-0.000310895
0.000388663
0.000947285
-0.000309345
0.000464903
0.00108533
-0.000234565
0.000495812
0.00121556
-0.000167599
0.000493249
0.00133357
-0.000110366
0.000483747
0.00144156
-7.84094e-05
0.000467541
0.00152364
-4.23263e-05
0.000441056
0.00157836
-8.08211e-06
0.00040611
0.00160001
2.77938e-05
0.000371683
0.00157813
7.51989e-05
0.000315516
0.00152889
0.00013389
0.00023967
0.00145485
0.000174556
0.000151232
0.00134633
0.00021127
6.52353e-05
0.00122575
0.000228465
-2.19207e-05
0.00110406
0.000236117
-0.000108799
0.000997451
0.000233243
-0.000197363
0.000901762
0.000224535
-0.000293894
0.00083641
0.000218168
-0.0003982
0.000782535
0.000212704
-0.000518086
0.000742344
0.00021537
-0.000634854
0.000722776
0.000225256
-0.000803492
0.000695953
0.000240526
-0.000938194
0.00068037
0.00023889
-0.00107815
0.000675262
0.000243721
-0.00120585
0.000677351
0.000240885
-0.00133683
0.000680479
0.000240891
-0.00146504
0.000669052
0.000249514
-0.00157483
0.00065031
0.000226611
-0.00164452
0.000625731
0.000180626
-0.00166569
0.000591461
0.000128351
-0.00161055
0.000566078
3.55043e-05
-0.00146673
0.000529294
-5.92452e-05
-0.00122539
0.000504516
-0.000168074
-0.000937507
0.000476973
-0.00022091
-0.000631922
0.000506939
-0.000235194
-0.000366537
0.000572431
-0.000223589
-0.000149763
0.00062639
-0.000219121
-2.98293e-05
0.0005954
-0.000142712
0.000446722
-6.04955e-05
9.2919e-05
0.000646032
-0.000173715
0.000281632
0.000908511
-0.000318944
0.000453011
0.00109131
-0.000315402
0.000547591
0.00121747
-0.000226716
0.000590381
0.001323
-0.000150226
0.00059256
0.00141314
-8.17518e-05
0.000580761
0.00149301
-3.96464e-05
0.00055253
0.00154777
4.10111e-06
0.000512645
0.00157683
4.14125e-05
0.000459906
0.0015662
8.65453e-05
0.000403102
0.00152727
0.000107666
0.00033624
0.00144868
0.000147072
0.000266539
0.00133999
0.000184566
0.000181647
0.00122177
0.000209448
9.13652e-05
0.00109824
0.000217796
-9.59263e-07
0.000982364
0.000214024
-9.06436e-05
0.000883789
0.000203347
-0.000184516
0.000802543
0.000193093
-0.000285785
0.000750808
0.000186871
-0.000386145
0.000701924
0.000180971
-0.00049453
0.000667501
0.000183228
-0.000595197
0.000629858
0.000193586
-0.000739976
0.000624747
0.000215986
-0.000862184
0.000583232
0.000219345
-0.000989985
0.000567626
0.000235437
-0.00111329
0.000563188
0.000237465
-0.00125343
0.000554665
0.000265958
-0.00139276
0.000545749
0.000262639
-0.00151733
0.000532738
0.000242139
-0.00161928
0.000517955
0.00020972
-0.00165937
0.000505639
0.000125921
-0.00163709
0.000487227
5.65631e-05
-0.00153225
0.000454023
-2.95635e-05
-0.00133272
0.000429274
-0.000124286
-0.00103814
0.000414139
-0.000231755
-0.000701589
0.000428062
-0.000257671
-0.000400685
0.000499138
-0.000227611
-0.000173021
0.000596691
-0.000197965
-3.72308e-05
0.00060556
-0.000145949
0.000473124
-6.36326e-05
0.000103106
0.000703261
-0.000160335
0.000315042
0.00101311
-0.000316533
0.000512112
0.00120567
-0.000311431
0.000626656
0.00131746
-0.000214534
0.000675637
0.0014022
-0.000128185
0.000683266
0.00146587
-6.03539e-05
0.000668886
0.00151411
-6.72538e-06
0.00063367
0.00153988
4.31019e-05
0.000581476
0.00154216
8.68609e-05
0.000513407
0.00151261
0.00012166
0.000437506
0.0014501
0.000153075
0.000355563
0.00135756
0.00017306
0.000273853
0.00123972
0.000181983
0.000188841
0.00111099
0.00019579
0.000100571
0.000990396
0.00019611
1.03603e-05
0.000882927
0.000189648
-7.72772e-05
0.000794389
0.000177038
-0.000169276
0.000723492
0.00017105
-0.000264824
0.000678277
0.000168079
-0.000362171
0.00063073
0.000168541
-0.000455104
0.000589234
0.000171201
-0.000549803
0.000546478
0.00017808
-0.000660683
0.00053922
0.000196407
-0.000762442
0.000482853
0.000202137
-0.000874723
0.000460792
0.000219114
-0.000997729
0.000443751
0.000242443
-0.00113731
0.000435035
0.000259206
-0.00128177
0.000428428
0.000261781
-0.00142493
0.000423661
0.000252242
-0.00154193
0.000425393
0.000209566
-0.00162891
0.000423252
0.000169366
-0.00164199
0.000400858
9.94491e-05
-0.00158419
0.000359158
3.70581e-05
-0.00141815
0.000322198
-5.89667e-05
-0.00114606
0.000311048
-0.000168992
-0.000794251
0.000334763
-0.000258514
-0.000451342
0.000418467
-0.000262238
-0.000195292
0.000532841
-0.000192199
-4.48646e-05
0.000601335
-0.000146203
0.000498251
-6.99908e-05
0.000106809
0.000739957
-0.000143506
0.000337552
0.00108926
-0.000306893
0.000559032
0.00129101
-0.000306824
0.000690921
0.00138978
-0.000204214
0.000746135
0.00145325
-0.000106263
0.000753215
0.00149276
-3.39751e-05
0.0007339
0.00151692
1.65101e-05
0.000688049
0.00151265
7.30776e-05
0.000627337
0.00148984
0.000113031
0.000554136
0.00143706
0.000148746
0.000466802
0.00136093
0.000176507
0.00037103
0.00125749
0.000195847
0.000275187
0.00113829
0.000197268
0.000190985
0.00101107
0.00018412
0.000105927
0.000896115
0.00017934
2.39604e-05
0.000798575
0.000166319
-6.12888e-05
0.000720624
0.000159014
-0.000151705
0.000656818
0.00015709
-0.000234795
0.000605288
0.00015608
-0.000322377
0.000555988
0.000162324
-0.000400575
0.000504824
0.000162608
-0.000488903
0.000465576
0.000169229
-0.00056296
0.000440357
0.000172919
-0.000650183
0.000385788
0.000184288
-0.000751298
0.000358758
0.000203149
-0.000863261
0.000329473
0.00022624
-0.00099482
0.000321908
0.000244686
-0.00113702
0.000318026
0.000252606
-0.00128402
0.000328086
0.000242569
-0.00143213
0.00033734
0.00023617
-0.0015449
0.00032776
0.000208252
-0.00161224
0.000289622
0.000178579
-0.0016004
0.000237797
0.000109525
-0.0014812
0.000187488
1.55034e-05
-0.0012367
0.000161849
-9.53017e-05
-0.000890884
0.000192168
-0.000203217
-0.000508359
0.000305067
-0.000269124
-0.000217889
0.000463786
-0.000221415
-4.9222e-05
0.000579606
-0.000146936
0.000524459
-7.54277e-05
0.000112008
0.000745764
-0.000117816
0.000359889
0.00112833
-0.000286953
0.000600662
0.00134225
-0.000292013
0.000749355
0.00143519
-0.000194099
0.000809741
0.00147866
-8.57931e-05
0.000814579
0.00149254
-4.61433e-06
0.000788339
0.00148849
5.46657e-05
0.000741229
0.00146267
9.7096e-05
0.00067462
0.00141857
0.000137884
0.000592724
0.00135179
0.000167165
0.000498134
0.00126366
0.00019186
0.00039412
0.00115469
0.00020681
0.000287328
0.0010378
0.000207279
0.000193684
0.000918536
0.000186181
0.000108837
0.000814118
0.000166844
3.25478e-05
0.000720935
0.000153929
-4.22896e-05
0.000650002
0.00014546
-0.000122426
0.000587094
0.000149861
-0.000196965
0.000530645
0.000149182
-0.000272214
0.000477968
0.00015327
-0.000344185
0.000422551
0.000154244
-0.000412999
0.000382025
0.000152364
-0.00046783
0.000345839
0.000149349
-0.000538199
0.000296946
0.000159212
-0.000623822
0.000269806
0.000174575
-0.00072323
0.000232289
0.000196592
-0.000838348
0.000221304
0.000215721
-0.000971309
0.000226459
0.000224528
-0.00112324
0.00024338
0.000236637
-0.00127207
0.00024662
0.000239553
-0.00141588
0.000227028
0.000244538
-0.00152708
0.000185545
0.000215274
-0.00157187
0.000121776
0.000160809
-0.00151165
4.96961e-05
7.7573e-05
-0.00131514
-6.6774e-07
-3.39957e-05
-0.000999757
1.36452e-05
-0.000136859
-0.000592845
0.000132851
-0.000234698
-0.000246017
0.000370373
-0.000253415
-6.01409e-05
0.000537568
-0.000143838
0.000540391
-7.60707e-05
0.000112638
0.000726705
-9.35788e-05
0.000369831
0.00113359
-0.000262457
0.000624525
0.00136085
-0.000273293
0.000786434
0.00145102
-0.000177742
0.000854487
0.00148121
-7.06025e-05
0.000854492
0.0014703
2.22394e-05
0.000822199
0.00144515
7.56358e-05
0.000764621
0.00139679
0.00012346
0.000692452
0.00133723
0.000153508
0.000609265
0.00125806
0.000176919
0.000511407
0.00115992
0.000201598
0.000406437
0.00105175
0.000207908
0.000301791
0.000937472
0.000204978
0.00020477
0.000827926
0.000187632
0.000124318
0.000731018
0.000163552
5.23414e-05
0.000645624
0.000147289
-1.61093e-05
0.000578199
0.000140254
-8.80083e-05
0.000519089
0.000139904
-0.000154434
0.000457661
0.00013941
-0.000213508
0.000395978
0.000141064
-0.000277733
0.000347693
0.000139082
-0.000333139
0.000306898
0.000130533
-0.000383003
0.000267663
0.000128039
-0.000437763
0.00022143
0.000130275
-0.000506007
0.000191815
0.000146234
-0.000594797
0.000156629
0.00016445
-0.000690995
0.000139307
0.000178194
-0.000815656
0.000151711
0.000199407
-0.000948596
0.000154361
0.000221959
-0.00110013
0.000145529
0.000252623
-0.0012582
0.00012485
0.000260253
-0.00139934
7.83077e-05
0.000248375
-0.00149054
8.43975e-06
0.000204541
-0.0014868
-8.49938e-05
0.000130946
-0.00135361
-0.000164186
3.03283e-05
-0.00107035
-0.000187707
-8.19097e-05
-0.000678739
-7.71725e-05
-0.000181586
-0.00027842
0.000199751
-0.000229697
-6.33104e-05
0.000483933
-0.000161476
0.000552181
-7.51e-05
0.000123639
0.000638315
-3.52484e-05
0.000390888
0.00108613
-0.000219791
0.000658253
0.00133551
-0.000242027
0.000838427
0.00142392
-0.000153076
0.000909608
0.0014432
-3.31753e-05
0.000905182
0.00141668
5.80444e-05
0.000863717
0.00137132
0.000115295
0.000803136
0.00130561
0.000151759
0.000729344
0.00123619
0.000174834
0.0006435
0.00115302
0.000190885
0.000546894
0.00105929
0.000197228
0.000439882
0.000953772
0.000204993
0.000332391
0.000849085
0.000195878
0.000232076
0.000747433
0.000180808
0.000147466
0.000656878
0.000158749
6.98918e-05
0.000579601
0.000143598
4.25006e-06
0.00051104
0.000132801
-4.82914e-05
0.000442233
0.000129397
-9.90928e-05
0.00038426
0.000124203
-0.000159277
0.00033481
0.000121353
-0.000216722
0.000288532
0.000116605
-0.000263364
0.00024352
0.00011002
-0.00030668
0.000202785
0.000108194
-0.000354858
0.000161266
0.000108342
-0.000406388
0.000125913
0.000117432
-0.000479928
9.2481e-05
0.000137687
-0.000564038
6.87506e-05
0.000154667
-0.000662894
7.0918e-05
0.000179649
-0.000784127
6.11904e-05
0.000214404
-0.00092856
4.72843e-05
0.000242677
-0.00109042
2.3062e-05
0.000263653
-0.00124907
-2.74451e-05
0.000264393
-0.00137579
-0.000104013
0.000239179
-0.00142506
-0.000214872
0.000179146
-0.00135447
-0.000322028
8.72512e-05
-0.00113386
-0.000384681
-2.36369e-05
-0.000775077
-0.000311125
-0.000124829
-0.000348515
-4.36273e-05
-0.000183181
-6.6493e-05
0.000383158
-0.000181246
0.000549551
-6.38642e-05
0.000119181
0.000529149
-1.00141e-05
0.000374205
0.00103252
-0.00020141
0.000652676
0.00129511
-0.000238073
0.000847438
0.00138498
-0.000155822
0.000930361
0.00139391
-3.36323e-05
0.000927036
0.00134964
7.03605e-05
0.000887195
0.00128443
0.000126728
0.000816605
0.00121291
0.000163289
0.000728947
0.00113745
0.000186399
0.000636378
0.00104604
0.000199552
0.000540633
0.000949508
0.00020553
0.000442286
0.000850506
0.000201614
0.00034538
0.000753395
0.000192596
0.000256275
0.000665321
0.000171217
0.000180976
0.000581534
0.000150644
0.000114643
0.00050931
0.000136625
5.16506e-05
0.000444779
0.000129252
-1.33282e-05
0.000386827
0.000120384
-6.8855e-05
0.000330927
0.00010886
-0.000116214
0.000279813
0.000102355
-0.000161445
0.000235552
9.82111e-05
-0.0002016
0.000191329
9.23464e-05
-0.000242978
0.000152048
9.21143e-05
-0.000282578
0.000111822
8.90438e-05
-0.000330189
7.27583e-05
0.000100766
-0.000389542
3.56078e-05
0.000116226
-0.000464937
4.65687e-06
0.000139489
-0.000546549
-1.7725e-05
0.000170255
-0.000648019
-4.15746e-05
0.000204235
-0.000768826
-7.06732e-05
0.000238764
-0.000914435
-9.80823e-05
0.000266754
-0.00107394
-0.000148321
0.000280384
-0.00122649
-0.000219672
0.000268201
-0.00132254
-0.000341844
0.000223027
-0.00131042
-0.000480232
0.000146082
-0.00114119
-0.000604083
5.01689e-05
-0.000808105
-0.000581382
-6.28234e-05
-0.000394994
-0.000314207
-0.000142531
-6.25402e-05
0.000201795
-0.000151089
0.000531828
-4.48169e-05
0.000147532
0.000333209
4.84072e-05
0.000382311
0.000919176
-0.000121439
0.000666322
0.00119668
-0.000185582
0.000865355
0.0012928
-0.000106846
0.000957841
0.00129277
8.65704e-06
0.000952054
0.00124752
0.000107906
0.000904931
0.00117218
0.000159379
0.00083601
0.00108843
0.0001934
0.000764901
0.00100338
0.000205171
0.000688596
0.000914606
0.000207733
0.000603959
0.000831643
0.000202502
0.000509461
0.000751036
0.000193969
0.000410712
0.000672491
0.000179654
0.000315074
0.000600758
0.000160201
0.000232525
0.000532491
0.000131593
0.000157324
0.000470599
0.000113911
8.93605e-05
0.000404713
0.000108029
2.16563e-05
0.000345685
0.000108846
-3.21965e-05
0.000289339
9.54403e-05
-7.65649e-05
0.000238777
8.54045e-05
-0.000114849
0.000190619
8.32155e-05
-0.000150986
0.000149971
7.74944e-05
-0.000185863
0.000110015
7.69082e-05
-0.000221694
7.16045e-05
7.60489e-05
-0.000265706
2.99203e-05
8.68499e-05
-0.000314933
-1.14781e-05
9.63129e-05
-0.000372903
-5.0152e-05
0.000112778
-0.000440625
-9.37636e-05
0.000143761
-0.000530174
-0.000131849
0.000179823
-0.000645291
-0.000172248
0.000216692
-0.000788332
-0.000210653
0.000255612
-0.000944143
-0.000285182
0.000292672
-0.00110415
-0.000374524
0.000314863
-0.00122581
-0.000523884
0.000303697
-0.0012703
-0.000687847
0.000252105
-0.00117714
-0.00086794
0.000170696
-0.000894443
-0.000918653
5.45757e-05
-0.000461754
-0.000693843
-5.30533e-05
-8.66898e-05
-7.28813e-05
-0.000100388
0.000459232
-1.40949e-05
0.000118827
0.000203133
1.12483e-05
0.000335506
0.000840409
-0.000137912
0.000623286
0.00111475
-0.000205843
0.000836843
0.0012138
-0.000134558
0.000947037
0.00120122
-1.86412e-05
0.000969793
0.00114239
8.23762e-05
0.000936887
0.0010508
0.000154279
0.000876892
0.000971263
0.000177161
0.000798854
0.000896686
0.000184735
0.000707866
0.000822386
0.000183209
0.000612807
0.000748573
0.00017813
0.000515563
0.00067801
0.000170271
0.000422197
0.000608836
0.000157021
0.000333328
0.000548156
0.000141472
0.000252012
0.000488658
0.000125149
0.000186659
0.000433943
0.000102009
0.000129639
0.000374034
8.76985e-05
7.32592e-05
0.000317254
8.481e-05
1.78812e-05
0.000259094
8.5622e-05
-2.49572e-05
0.000203662
7.79535e-05
-6.91026e-05
0.000162335
7.24293e-05
-0.000103003
0.000114295
6.9575e-05
-0.000138082
7.76019e-05
6.74927e-05
-0.000171522
3.49545e-05
7.00896e-05
-0.000212557
-7.153e-06
7.81085e-05
-0.000262165
-4.6681e-05
8.48107e-05
-0.000315797
-8.80965e-05
9.15756e-05
-0.000374775
-0.000147001
0.000112214
-0.00044014
-0.000210131
0.000143647
-0.000512877
-0.000280783
0.000181272
-0.000602305
-0.000349108
0.000227882
-0.000721689
-0.000443757
0.000277959
-0.000878575
-0.000539587
0.00032195
-0.00104763
-0.000699264
0.000344439
-0.00116854
-0.000899381
0.000332443
-0.00115492
-0.00114572
0.000264155
-0.000975583
-0.00125869
0.000160701
-0.000573574
-0.00112872
3.28653e-05
-0.000149485
-0.000474027
-2.29414e-05
0.000262296
4.74527e-05
8.66468e-05
9.98557e-05
1.66296e-05
0.00032754
0.000721491
-0.000121976
0.000605778
0.00102207
-0.00018556
0.000835122
0.00113046
-0.000146006
0.000956957
0.00112162
-4.22418e-05
0.000985725
0.00106021
5.34146e-05
0.000941543
0.00096662
0.000128365
0.000873651
0.000879166
0.000159989
0.000805647