/*--------------------------------*- C++ -*----------------------------------*\
| =========                 |                                                 |
| \\      /  F ield         | OpenFOAM: The Open Source CFD Toolbox           |
|  \\    /   O peration     | Version:  v1806                                 |
|   \\  /    A nd           | Web:      www.OpenFOAM.com                      |
|    \\/     M anipulation  |                                                 |
\*---------------------------------------------------------------------------*/
FoamFile
{
    version     2.0;
    format      ascii;
    class       volVectorField;
    location    "0.0815";
    object      U;
}
// * * * * * * * * * * * * * * * * * * * * * * * * * * * * * * * * * * * * * //

dimensions      [0 1 -1 0 0 0 0];


internalField   nonuniform List<vector> 
64000
(
(-0.00973167 -0.0110108 -0.00756733)
(0.0142047 -0.0109104 -0.00504974)
(0.0201791 -0.00366706 0.000585723)
(0.024551 -0.00333493 0.00121553)
(0.0255824 -0.00243026 0.00154904)
(0.0258192 -0.0027156 0.00227794)
(0.0253744 -0.00360342 0.00251097)
(0.0220042 -0.00397544 0.00287924)
(0.0207597 -0.00492569 0.00431687)
(0.0136096 -0.00449109 0.00372417)
(0.00820034 -0.00519928 0.00606754)
(-0.00466888 -0.00863294 0.00631773)
(-0.0238489 -0.01253 0.00621489)
(-0.0477399 -0.017696 0.00389226)
(-0.0768785 -0.0181133 0.00493642)
(-0.11295 -0.0167361 0.00252583)
(-0.142062 0.000277605 0.00176499)
(-0.186795 -0.00444532 -0.002671)
(-0.186347 -0.00966755 0.00535674)
(-0.246892 -0.0277368 -0.014818)
(-0.215875 -0.0221696 -0.0224908)
(-0.107336 -0.0236532 -0.0386833)
(-0.107881 -0.00890305 -0.0259162)
(-0.104649 -0.0035676 -0.0372262)
(-0.121429 0.00280447 -0.0481064)
(-0.115574 0.01105 -0.057578)
(-0.103785 0.0210596 -0.0622739)
(-0.067949 0.0321277 -0.0581575)
(-0.034523 0.0386783 -0.0537815)
(0.00914154 0.0516454 -0.0378853)
(0.0553314 0.0468458 -0.0320472)
(0.0904212 0.0380158 -0.0240821)
(0.106594 0.0273111 -0.0122359)
(0.102909 0.0137809 -0.00478393)
(0.089223 0.00533585 0.00134302)
(0.0704048 -0.00270602 0.00395562)
(0.0507827 -0.0065575 0.00524508)
(0.0303159 -0.00579484 0.00610204)
(0.0161874 -0.0042667 0.0066042)
(0.00214342 -0.0027204 0.00440659)
(-0.00705606 0.00160223 -0.00386958)
(0.00860976 -0.0164326 -0.00367222)
(0.0237206 -0.0108641 -0.00151376)
(0.0337127 -0.00755922 -0.000799439)
(0.03925 -0.00277506 -0.00108107)
(0.0392796 -0.000609 -0.00159605)
(0.0379023 0.00342758 -0.00307619)
(0.030597 0.00500489 -0.00286217)
(0.0236016 0.0106873 -0.00706978)
(0.00591221 0.0162418 -0.00430883)
(-0.0182055 0.0250199 -0.00814251)
(-0.0552025 0.0316648 0.000579748)
(-0.102819 0.0426151 -0.00399697)
(-0.155006 0.0625759 -0.00682054)
(-0.213798 0.0758401 -0.0112177)
(-0.271786 0.0848025 -0.018172)
(-0.351403 0.0929979 -0.0435993)
(-0.456828 0.0951724 -0.0585492)
(-0.504644 0.101211 -0.0760247)
(-0.590076 0.0997764 -0.0985188)
(-0.543655 0.126913 -0.0970411)
(-0.407611 0.141948 -0.126219)
(-0.38968 0.187144 -0.136473)
(-0.372922 0.211715 -0.146124)
(-0.36263 0.236711 -0.157678)
(-0.323902 0.258225 -0.163851)
(-0.274688 0.279131 -0.165216)
(-0.203302 0.294755 -0.153619)
(-0.12722 0.300776 -0.133692)
(-0.0554163 0.30611 -0.109917)
(0.00953299 0.2895 -0.076163)
(0.0733814 0.259216 -0.0469324)
(0.110377 0.210276 -0.0388936)
(0.122625 0.159415 -0.0264675)
(0.117416 0.10863 -0.0127824)
(0.0985099 0.0689832 -0.0052997)
(0.0789354 0.0404275 -0.000926644)
(0.0541449 0.0257861 6.60938e-05)
(0.0323621 0.0159894 0.001615)
(0.00790007 0.00757747 0.00184226)
(-0.000619581 -0.00573663 0.0015117)
(0.0148273 -0.0225061 -0.00168633)
(0.0315594 -0.0173501 -0.00270462)
(0.0421545 -0.00523094 -0.00371464)
(0.0445284 0.00484639 -0.00549237)
(0.0421703 0.0161379 -0.00691456)
(0.0347604 0.0314026 -0.00811198)
(0.0206014 0.0455844 -0.00966942)
(0.00466753 0.0695884 -0.00195028)
(-0.0257907 0.0900629 -0.00489263)
(-0.0638394 0.117117 -0.00813707)
(-0.116945 0.149524 -0.013311)
(-0.171938 0.18324 -0.017605)
(-0.250266 0.211378 -0.0322702)
(-0.347533 0.230966 -0.0353615)
(-0.443931 0.244614 -0.04227)
(-0.529498 0.249468 -0.0588704)
(-0.617381 0.269731 -0.0772973)
(-0.659877 0.299502 -0.0950163)
(-0.729995 0.333669 -0.116155)
(-0.669699 0.371879 -0.106816)
(-0.507272 0.40101 -0.123802)
(-0.465781 0.457859 -0.125785)
(-0.437931 0.489147 -0.123467)
(-0.418561 0.52133 -0.12609)
(-0.375704 0.543137 -0.124512)
(-0.325986 0.5574 -0.119959)
(-0.26027 0.560892 -0.104937)
(-0.193595 0.55087 -0.0829762)
(-0.128304 0.531018 -0.0593801)
(-0.0723954 0.500113 -0.0400017)
(-0.0288684 0.452181 -0.0278034)
(0.00506549 0.379509 -0.0166671)
(0.0273655 0.306938 -0.00831612)
(0.0401151 0.227256 -0.010968)
(0.0464075 0.16245 -0.0109009)
(0.0466404 0.114685 -0.00719746)
(0.0377918 0.077553 -0.00495773)
(0.0268686 0.0514669 -0.00122025)
(0.00783605 0.024926 0.00156359)
(0.000451355 -0.0100704 0.00218123)
(0.0171105 -0.023909 -0.00113028)
(0.0379756 -0.0110478 -0.0034106)
(0.0457076 0.00642186 -0.00656078)
(0.0437595 0.0302969 -0.00728952)
(0.039445 0.0550806 -0.00908015)
(0.0265468 0.0903319 -0.00888104)
(0.00758969 0.122975 -0.00574309)
(-0.0196382 0.167675 -0.0105792)
(-0.0653821 0.207785 -0.0129748)
(-0.111396 0.251962 -0.0172734)
(-0.176361 0.288201 -0.0247486)
(-0.261381 0.316654 -0.0271651)
(-0.352457 0.333081 -0.0289588)
(-0.43874 0.354131 -0.0314471)
(-0.51799 0.37805 -0.0365212)
(-0.587635 0.40811 -0.051288)
(-0.662311 0.437043 -0.0609341)
(-0.690726 0.477945 -0.0702467)
(-0.74645 0.522174 -0.0775736)
(-0.675168 0.555701 -0.0486263)
(-0.491954 0.575627 -0.0459731)
(-0.436169 0.618138 -0.0406623)
(-0.408707 0.62561 -0.0294902)
(-0.390569 0.638797 -0.0268692)
(-0.356963 0.639436 -0.0217934)
(-0.318926 0.631985 -0.018329)
(-0.270011 0.613492 -0.010865)
(-0.220918 0.58796 0.00106963)
(-0.175606 0.555621 0.00829237)
(-0.14412 0.515295 0.0133882)
(-0.119262 0.471084 0.0120067)
(-0.0957445 0.41312 0.00633477)
(-0.0736409 0.349754 -0.00180093)
(-0.0506538 0.269963 -0.00547902)
(-0.0210606 0.201862 -0.0104496)
(-0.000551404 0.146821 -0.0105827)
(0.00844394 0.110548 -0.00790754)
(0.0166446 0.0772637 -0.00340813)
(0.00622418 0.0370669 0.00124983)
(0.000986607 -0.0103547 0.000775486)
(0.0233394 -0.0132513 -0.00428398)
(0.0457967 0.00391411 -0.00747189)
(0.0542569 0.0387504 -0.00844349)
(0.0517384 0.0764354 -0.007874)
(0.045782 0.122386 -0.0152797)
(0.0270127 0.177481 -0.0128109)
(-0.000719717 0.236858 -0.00623448)
(-0.0336478 0.2926 -0.00789831)
(-0.0872304 0.338599 -0.0099915)
(-0.148612 0.374587 -0.0127031)
(-0.227869 0.394176 -0.0153722)
(-0.30217 0.416659 -0.0162012)
(-0.376891 0.44201 -0.0213708)
(-0.449862 0.472225 -0.0203031)
(-0.51738 0.504856 -0.0213179)
(-0.57405 0.532603 -0.0250257)
(-0.629517 0.568655 -0.0222469)
(-0.638404 0.61342 -0.0175176)
(-0.679854 0.659396 -0.0261249)
(-0.609739 0.687489 0.00319428)
(-0.420156 0.692635 0.0158042)
(-0.360024 0.706026 0.026852)
(-0.341783 0.680615 0.0365205)
(-0.335612 0.663491 0.0371533)
(-0.321314 0.637532 0.0429805)
(-0.303439 0.605507 0.0442563)
(-0.272933 0.569018 0.0483552)
(-0.244455 0.528106 0.0416415)
(-0.219306 0.48876 0.0336376)
(-0.198992 0.444095 0.0236014)
(-0.18934 0.411135 0.0162748)
(-0.181415 0.374212 0.00857407)
(-0.175932 0.34344 -0.00344844)
(-0.153361 0.278401 -0.0133938)
(-0.104122 0.208707 -0.0143607)
(-0.0526357 0.16076 -0.0136831)
(-0.0170977 0.130267 -0.0116459)
(0.00273297 0.0958964 -0.00606005)
(0.00336521 0.0466143 0.00122597)
(0.0056742 -0.00531428 -0.000198268)
(0.0284374 0.00173693 -0.00639131)
(0.0601942 0.0282451 -0.00611348)
(0.0724227 0.0805428 -0.00984588)
(0.066588 0.138529 -0.0147564)
(0.0627588 0.202462 -0.0185005)
(0.0456828 0.278043 -0.0138038)
(0.0103582 0.330063 -0.00462426)
(-0.0436926 0.374426 -0.00543955)
(-0.114751 0.407972 -0.00745539)
(-0.183434 0.437568 -0.0095539)
(-0.247988 0.465566 -0.0097379)
(-0.307554 0.499431 -0.00795355)
(-0.365936 0.527151 -0.00500296)
(-0.416406 0.557005 0.000935067)
(-0.468556 0.585296 0.00623553)
(-0.501557 0.61537 0.00853854)
(-0.53623 0.646833 0.00853701)
(-0.539782 0.69389 0.0106868)
(-0.567993 0.728218 0.00920747)
(-0.50132 0.752985 0.0369421)
(-0.32865 0.703974 0.0516409)
(-0.284685 0.686329 0.0618872)
(-0.288166 0.630114 0.0743417)
(-0.296936 0.589145 0.0768851)
(-0.301378 0.546721 0.0767287)
(-0.299611 0.503832 0.074068)
(-0.289324 0.462378 0.0678908)
(-0.274492 0.415309 0.0656331)
(-0.263365 0.377211 0.0448056)
(-0.253577 0.333958 0.0336428)
(-0.242795 0.303396 0.0191438)
(-0.229036 0.277986 0.00778635)
(-0.23715 0.265947 -0.00401616)
(-0.241191 0.241756 -0.0161084)
(-0.175183 0.192822 -0.0143515)
(-0.0932042 0.161758 -0.0152771)
(-0.0407107 0.135587 -0.0119529)
(-0.00482756 0.103941 -0.00687167)
(0.00239325 0.0500741 0.001755)
(0.00713934 0.000105147 -0.000260338)
(0.0381999 0.0144171 -0.0101071)
(0.0809282 0.0549993 -0.0100847)
(0.105372 0.110072 -0.0120678)
(0.100451 0.175036 -0.0165044)
(0.0976803 0.249113 -0.019142)
(0.0561643 0.313475 -0.0117249)
(-0.00866306 0.343436 0.00185959)
(-0.0583698 0.386996 -0.00312232)
(-0.115647 0.426126 -0.00371522)
(-0.164705 0.471423 -0.00375978)
(-0.215925 0.513507 -0.00191576)
(-0.262724 0.552683 0.0014043)
(-0.309812 0.586079 0.00663061)
(-0.349904 0.618815 0.0144098)
(-0.384711 0.643623 0.0198468)
(-0.408179 0.670871 0.0258594)
(-0.425964 0.683022 0.0292366)
(-0.416642 0.708432 0.0268574)
(-0.437529 0.721783 0.0175211)
(-0.430494 0.741453 0.0333445)
(-0.292085 0.635668 0.0548257)
(-0.234347 0.586312 0.0590432)
(-0.25466 0.524486 0.0712825)
(-0.273636 0.482033 0.0717296)
(-0.294665 0.44376 0.071219)
(-0.308713 0.408523 0.0673817)
(-0.314945 0.374291 0.0603138)
(-0.313393 0.33761 0.0473018)
(-0.314135 0.303476 0.0316792)
(-0.311069 0.270619 0.0184936)
(-0.303023 0.242785 0.00607776)
(-0.289357 0.223077 -0.00269833)
(-0.285746 0.207575 -0.00979801)
(-0.289187 0.218329 -0.0187795)
(-0.227225 0.193258 -0.0209623)
(-0.127809 0.167207 -0.0220216)
(-0.0561514 0.146597 -0.0169753)
(-0.0100307 0.112848 -0.0108343)
(0.00233629 0.0548746 -3.64323e-06)
(0.00721148 0.0068382 -0.00355694)
(0.0453895 0.0333618 -0.0136799)
(0.0994895 0.0825492 -0.0138059)
(0.125079 0.138472 -0.0113416)
(0.128474 0.19741 -0.0122699)
(0.115402 0.270282 -0.0128886)
(0.0542868 0.300958 -0.00228912)
(0.00439821 0.350475 0.00485041)
(-0.0287207 0.397007 0.000835572)
(-0.0790396 0.450558 0.00231941)
(-0.121668 0.494861 0.00310329)
(-0.164813 0.532297 0.00946003)
(-0.201165 0.565799 0.0153746)
(-0.232702 0.592754 0.0233483)
(-0.260332 0.618439 0.0278003)
(-0.289197 0.633665 0.0319715)
(-0.307908 0.645201 0.0347512)
(-0.326245 0.64431 0.0339833)
(-0.32434 0.639412 0.0311956)
(-0.33854 0.616461 0.0151282)
(-0.380457 0.621306 0.0163649)
(-0.29505 0.541635 0.0354687)
(-0.222807 0.459067 0.0382088)
(-0.243202 0.418024 0.0495121)
(-0.269521 0.38223 0.0531516)
(-0.300526 0.357323 0.0544998)
(-0.324709 0.331464 0.0554753)
(-0.342155 0.305787 0.0482224)
(-0.35185 0.278004 0.038921)
(-0.359496 0.248083 0.0168759)
(-0.360798 0.216619 0.00837385)
(-0.351192 0.192098 -0.000906712)
(-0.336647 0.179292 -0.00863309)
(-0.319845 0.170376 -0.0125517)
(-0.32739 0.192123 -0.0220167)
(-0.277208 0.196585 -0.0209642)
(-0.161862 0.172622 -0.0226782)
(-0.0746307 0.15586 -0.0176894)
(-0.0151554 0.120165 -0.0104696)
(0.00339359 0.0586962 0.000797523)
(0.00602748 0.0190386 -0.00615298)
(0.0537048 0.0642812 -0.0178766)
(0.119715 0.12074 -0.0194106)
(0.151604 0.176422 -0.0134618)
(0.159615 0.237819 -0.0142094)
(0.128993 0.289264 -0.0125467)
(0.0723622 0.324456 -0.00309828)
(0.0333933 0.382018 0.00455199)
(0.00540794 0.419734 0.0106606)
(-0.0295347 0.460368 0.0104799)
(-0.0693791 0.498388 0.0147068)
(-0.101219 0.525495 0.0202032)
(-0.127568 0.548413 0.027479)
(-0.152856 0.561591 0.0338638)
(-0.176467 0.56624 0.0361186)
(-0.20222 0.562944 0.036626)
(-0.224596 0.556708 0.0353216)
(-0.251468 0.54078 0.0305917)
(-0.272373 0.526788 0.0245645)
(-0.288802 0.493464 0.0101558)
(-0.340822 0.483115 -0.00037903)
(-0.318273 0.45391 0.0104208)
(-0.24349 0.355044 0.0197524)
(-0.242159 0.337119 0.0257804)
(-0.27359 0.311774 0.0336103)
(-0.308597 0.29723 0.0378457)
(-0.34212 0.279397 0.0430955)
(-0.366982 0.257795 0.0390287)
(-0.386851 0.234397 0.0238984)
(-0.404016 0.201598 0.0084397)
(-0.406326 0.177033 -0.00141337)
(-0.393447 0.154057 -0.00684528)
(-0.378192 0.140755 -0.0124065)
(-0.350697 0.141767 -0.0207939)
(-0.340722 0.155011 -0.0247026)
(-0.306909 0.191458 -0.0292166)
(-0.197436 0.175192 -0.026596)
(-0.0898836 0.165242 -0.0247573)
(-0.020148 0.130162 -0.0137836)
(0.00430154 0.0648666 -0.00139123)
(0.00766478 0.0352024 -0.00893735)
(0.0627423 0.102672 -0.0255352)
(0.13819 0.163279 -0.0245904)
(0.176869 0.217106 -0.0148706)
(0.179107 0.271016 -0.0154437)
(0.147516 0.303971 -0.0141587)
(0.104512 0.350808 -0.00402236)
(0.0718061 0.397575 0.00785331)
(0.0410968 0.435354 0.0148432)
(0.0166984 0.461994 0.0255586)
(-0.0103174 0.484924 0.0224065)
(-0.0415771 0.498013 0.0329039)
(-0.0647043 0.506825 0.0380002)
(-0.0882201 0.497612 0.0436963)
(-0.111649 0.482681 0.0438917)
(-0.138657 0.459578 0.0407489)
(-0.166355 0.43655 0.0354098)
(-0.197507 0.410948 0.027692)
(-0.228936 0.394135 0.0190064)
(-0.259914 0.375315 0.00463086)
(-0.313248 0.359761 -0.00833125)
(-0.342304 0.359226 -0.00723975)
(-0.275312 0.291918 0.0087222)
(-0.240037 0.282143 0.0112089)
(-0.27468 0.264439 0.0219027)
(-0.309892 0.256783 0.0291196)
(-0.349462 0.238015 0.0384182)
(-0.381649 0.221741 0.0324005)
(-0.410188 0.192232 0.02461)
(-0.425455 0.165971 0.00933089)
(-0.430941 0.138164 0.0105559)
(-0.425933 0.116514 0.0170213)
(-0.406164 0.097209 0.013679)
(-0.381128 0.0990194 0.00868379)
(-0.361327 0.112594 -0.0138156)
(-0.329872 0.161109 -0.0249227)
(-0.227847 0.172456 -0.0253141)
(-0.107599 0.165269 -0.0215801)
(-0.0260111 0.137915 -0.01285)
(0.00532347 0.0691826 -0.000196319)
(0.00879381 0.0578354 -0.0115063)
(0.0713863 0.145819 -0.0318113)
(0.155991 0.21006 -0.0310618)
(0.200211 0.259119 -0.0184996)
(0.19826 0.297337 -0.0117395)
(0.172508 0.330822 -0.0142156)
(0.143793 0.371386 -0.0035922)
(0.112746 0.408597 0.00414834)
(0.0872627 0.437122 0.0124306)
(0.0591575 0.458242 0.0282452)
(0.0305665 0.463416 0.0367078)
(0.0134172 0.464239 0.0468875)
(-0.0103906 0.451767 0.0469204)
(-0.0406175 0.430455 0.0499459)
(-0.0673272 0.402017 0.0483769)
(-0.0989529 0.369949 0.0421198)
(-0.131542 0.340422 0.0337629)
(-0.167273 0.313453 0.0245797)
(-0.202281 0.297391 0.0157808)
(-0.240717 0.283366 0.00272272)
(-0.291923 0.273803 -0.00757841)
(-0.336251 0.277545 -0.0117781)
(-0.280119 0.258968 0.00154904)
(-0.233882 0.245374 0.00241353)
(-0.263081 0.233141 0.0147913)
(-0.301367 0.221544 0.0233513)
(-0.346246 0.206667 0.0325876)
(-0.382914 0.18445 0.0304656)
(-0.415278 0.158998 0.0199449)
(-0.438467 0.129579 0.0298732)
(-0.452553 0.0951878 0.0313097)
(-0.454093 0.0670468 0.0177978)
(-0.440062 0.0525907 0.0127541)
(-0.406232 0.0495499 0.00445889)
(-0.368641 0.0644447 -0.000972064)
(-0.337746 0.111748 -0.0230205)
(-0.251968 0.151901 -0.0286517)
(-0.124835 0.161705 -0.0237109)
(-0.028997 0.142032 -0.0150692)
(0.00466831 0.0739122 -0.00185197)
(0.00968538 0.0766285 -0.0122096)
(0.0773606 0.185984 -0.0357643)
(0.169394 0.253068 -0.0342524)
(0.213542 0.290836 -0.0178629)
(0.217264 0.31913 -0.0101038)
(0.20179 0.351319 -0.00743571)
(0.178469 0.38292 -0.00605693)
(0.151765 0.407377 0.00719995)
(0.125008 0.427552 0.012501)
(0.100706 0.436216 0.0243912)
(0.0775841 0.439448 0.036243)
(0.0488834 0.428534 0.0513987)
(0.023595 0.4025 0.0554536)
(-0.00133868 0.368323 0.0547972)
(-0.0336915 0.336731 0.0486998)
(-0.0685564 0.303387 0.0396791)
(-0.105651 0.276918 0.0287273)
(-0.141903 0.254519 0.0193606)
(-0.180574 0.245718 0.0101574)
(-0.223826 0.234239 0.00039977)
(-0.270999 0.230866 -0.00754969)
(-0.312738 0.231905 -0.0118463)
(-0.264338 0.236211 -0.00134564)
(-0.216676 0.219834 -0.00228761)
(-0.243413 0.204487 0.00985354)
(-0.27909 0.188834 0.0191705)
(-0.326896 0.172051 0.0270304)
(-0.367165 0.149479 0.0217668)
(-0.403888 0.122445 0.0380756)
(-0.436641 0.0878873 0.0451334)
(-0.458426 0.0546957 0.0392003)
(-0.459866 0.0290311 0.0501568)
(-0.452576 0.00613016 0.0391049)
(-0.43495 0.00255793 0.03436)
(-0.397441 0.0119582 0.0247168)
(-0.3537 0.0587046 0.00364199)
(-0.264923 0.113572 -0.0253407)
(-0.138903 0.149577 -0.0252371)
(-0.0350694 0.140491 -0.0145307)
(0.00579763 0.0769307 -0.00182686)
(0.0103662 0.0980986 -0.0114027)
(0.0819951 0.226976 -0.0382384)
(0.174749 0.294743 -0.0372403)
(0.224589 0.323663 -0.0187684)
(0.239287 0.345975 -0.00593318)
(0.231372 0.369517 -9.991e-05)
(0.210332 0.391434 0.0042848)
(0.185794 0.405873 0.00518916)
(0.164413 0.415326 0.0157455)
(0.140908 0.417159 0.0260551)
(0.113845 0.407704 0.0354852)
(0.0868892 0.388572 0.0424781)
(0.0533897 0.360268 0.0553651)
(0.0221838 0.323339 0.0553135)
(-0.00697589 0.283727 0.0474646)
(-0.0444019 0.257001 0.0347605)
(-0.0831922 0.232823 0.022779)
(-0.118458 0.216866 0.0143249)
(-0.15772 0.210547 0.00536371)
(-0.201109 0.20305 -0.000419734)
(-0.242806 0.203719 -0.00696916)
(-0.27471 0.202022 -0.00963568)
(-0.23111 0.226693 -0.00230421)
(-0.193943 0.202385 -0.00408408)
(-0.214427 0.178224 0.00613029)
(-0.249158 0.156575 0.0144928)
(-0.294989 0.133038 0.0193477)
(-0.337802 0.11113 0.0324761)
(-0.382386 0.0787559 0.0446436)
(-0.420114 0.0473455 0.0466581)
(-0.443115 0.0151319 0.0662495)
(-0.468659 -0.0221825 0.0468806)
(-0.475495 -0.062581 0.0347571)
(-0.458201 -0.0830814 0.0129658)
(-0.417293 -0.0705324 0.00419514)
(-0.371894 -0.0223734 0.00809784)
(-0.28603 0.0626152 -0.00245167)
(-0.153413 0.119297 -0.0311993)
(-0.0400259 0.133785 -0.0144894)
(0.00595122 0.0793863 -0.00337589)
(0.00969523 0.103853 -0.0105454)
(0.0804274 0.249634 -0.040518)
(0.175096 0.320673 -0.0411851)
(0.23064 0.346918 -0.0218677)
(0.256113 0.360888 -0.00351306)
(0.255563 0.372375 0.00614504)
(0.236661 0.38415 0.012402)
(0.2139 0.392718 0.0158477)
(0.193435 0.39798 0.0190058)
(0.170621 0.3924 0.0230662)
(0.146431 0.377639 0.0294779)
(0.114349 0.353477 0.0400973)
(0.0803556 0.320739 0.0419523)
(0.0432788 0.287985 0.0500639)
(0.0123901 0.250446 0.0455737)
(-0.0193614 0.221372 0.0280636)
(-0.0608342 0.20259 0.0172768)
(-0.0926158 0.18917 0.00996339)
(-0.130921 0.183186 0.00227689)
(-0.169324 0.179341 -0.000559131)
(-0.206713 0.176319 -0.00565305)
(-0.216108 0.188072 -0.00324421)
(-0.18333 0.213972 -0.00193134)
(-0.173297 0.183783 -0.00203266)
(-0.189018 0.151462 0.00289001)
(-0.216225 0.119985 0.0103353)
(-0.256534 0.0967958 0.0154779)
(-0.29895 0.0678966 0.0332659)
(-0.343776 0.0410321 0.0406796)
(-0.381717 0.0111628 0.0617871)
(-0.430108 -0.0304748 0.0458284)
(-0.471669 -0.0835425 0.0382994)
(-0.48906 -0.127217 0.0240767)
(-0.476348 -0.159306 0.0132351)
(-0.435555 -0.161707 -0.00706198)
(-0.374751 -0.121045 -0.00704327)
(-0.292 -0.0191001 -0.00105293)
(-0.171731 0.0776563 -0.01707)
(-0.044186 0.118985 -0.0202634)
(0.00713472 0.0791377 -0.00224184)
(0.00855865 0.114849 -0.00857969)
(0.0792141 0.27503 -0.0399369)
(0.174706 0.350807 -0.0426028)
(0.236706 0.374397 -0.0228124)
(0.26913 0.380612 -0.00239265)
(0.27427 0.379294 0.0116629)
(0.26253 0.381997 0.0212957)
(0.245303 0.384519 0.0240241)
(0.226141 0.382884 0.0267975)
(0.20189 0.371653 0.0287709)
(0.174513 0.352426 0.0306334)
(0.142603 0.32261 0.0288792)
(0.105318 0.291122 0.0308589)
(0.0661561 0.254314 0.0328525)
(0.0294036 0.227119 0.0342884)
(-0.00204902 0.193635 0.021785)
(-0.0356935 0.177542 0.0113713)
(-0.0668337 0.167995 0.00637603)
(-0.0986659 0.158211 0.000397182)
(-0.1354 0.153026 -0.00120849)
(-0.15413 0.156737 -0.000947088)
(-0.150126 0.181092 0.00252607)
(-0.141137 0.183138 0.000413499)
(-0.153334 0.155385 -0.000349577)
(-0.166773 0.124126 0.00226959)
(-0.183464 0.0880162 0.00628007)
(-0.216831 0.0611741 0.0192195)
(-0.254205 0.0321663 0.0284378)
(-0.292884 0.00531283 0.0472892)
(-0.346756 -0.0337424 0.0406318)
(-0.403399 -0.0859598 0.03841)
(-0.451885 -0.137266 0.0285215)
(-0.482068 -0.188939 0.018033)
(-0.48558 -0.22936 0.00261721)
(-0.451702 -0.248057 -0.0124554)
(-0.385947 -0.216992 -0.0210514)
(-0.295677 -0.12745 -0.0185488)
(-0.179959 0.0181223 0.000975239)
(-0.0539908 0.0972102 -0.0268266)
(0.00618071 0.0814315 -0.0035464)
(0.00620528 0.0942684 -0.00848401)
(0.0730473 0.268186 -0.0397901)
(0.168744 0.349931 -0.0417038)
(0.235314 0.373847 -0.0222462)
(0.274865 0.374598 0.00111111)
(0.288769 0.369016 0.015168)
(0.284266 0.367548 0.0211367)
(0.267407 0.362274 0.0247602)
(0.246969 0.354193 0.0272085)
(0.223395 0.341048 0.0281381)
(0.196242 0.320291 0.0278868)
(0.162729 0.294406 0.0245391)
(0.124692 0.261772 0.0203206)
(0.0868839 0.230637 0.0143403)
(0.0493295 0.203515 0.0189626)
(0.0173544 0.180601 0.0121687)
(-0.00830212 0.160852 0.00625187)
(-0.0373922 0.148438 0.000981193)
(-0.0696504 0.138474 -0.00136225)
(-0.0890578 0.139759 0.000653794)
(-0.0909164 0.152787 0.00368589)
(-0.0970126 0.158402 0.00451237)
(-0.110201 0.147037 0.00320678)
(-0.128085 0.123481 0.00237195)
(-0.145178 0.101025 0.00300951)
(-0.15896 0.0632196 0.00540359)
(-0.181522 0.0330771 0.016323)
(-0.212129 0.00455093 0.0311531)
(-0.255706 -0.0299151 0.0307009)
(-0.310313 -0.0749667 0.0337556)
(-0.366118 -0.122861 0.0302002)
(-0.418892 -0.17926 0.0259572)
(-0.457175 -0.237831 0.0160487)
(-0.473442 -0.292589 0.00263393)
(-0.452065 -0.325025 -0.0145969)
(-0.393442 -0.314404 -0.0276149)
(-0.289748 -0.234823 -0.0312836)
(-0.179026 -0.0819887 -0.0194781)
(-0.0588391 0.0520304 -0.0194769)
(0.00806985 0.0696914 -0.00840925)
(0.0062851 0.105259 -0.00427791)
(0.0712084 0.28553 -0.034768)
(0.165738 0.371141 -0.0396956)
(0.238674 0.39288 -0.0188758)
(0.287745 0.388217 0.00569477)
(0.311544 0.374166 0.0149859)
(0.310484 0.364018 0.0224186)
(0.294726 0.352478 0.0241115)
(0.276766 0.341618 0.022995)
(0.252511 0.323333 0.0203718)
(0.225314 0.298766 0.0174799)
(0.190576 0.268621 0.012805)
(0.149963 0.237627 0.00871127)
(0.110782 0.206987 0.00531826)
(0.0729016 0.183539 0.00405198)
(0.0400062 0.165691 0.00190357)
(0.0112527 0.153799 -0.000768314)
(-0.0107129 0.141944 -0.00128006)
(-0.0260704 0.140781 -0.00104935)
(-0.0359992 0.143665 0.00154846)
(-0.0465733 0.141878 0.00404456)
(-0.0636695 0.128714 0.00619817)
(-0.081183 0.113879 0.00554843)
(-0.101033 0.0948297 0.00466205)
(-0.123767 0.0752074 0.00702626)
(-0.14018 0.0480487 0.00548933)
(-0.153737 0.0122438 0.011889)
(-0.182494 -0.0209169 0.0142672)
(-0.222852 -0.0624343 0.0193747)
(-0.272098 -0.104612 0.0209286)
(-0.326896 -0.153218 0.0224242)
(-0.380508 -0.210115 0.0202157)
(-0.423548 -0.272266 0.0146402)
(-0.448989 -0.337702 0.00287346)
(-0.44032 -0.386726 -0.0134669)
(-0.392115 -0.398614 -0.0305148)
(-0.299625 -0.334407 -0.0445124)
(-0.184566 -0.183307 -0.0333257)
(-0.0582866 0.00978037 -0.00876692)
(0.00660953 0.0708097 -0.0117829)
(-0.00394308 0.0772753 -0.0153475)
(0.0501697 0.266386 -0.040549)
(0.146242 0.362228 -0.0463818)
(0.226567 0.385927 -0.0267466)
(0.285223 0.382889 -0.00556714)
(0.319716 0.361917 0.00740637)
(0.329071 0.344604 0.0136765)
(0.316007 0.32598 0.0143626)
(0.294758 0.312799 0.013426)
(0.266863 0.301016 0.0100364)
(0.237433 0.286613 0.00738969)
(0.203933 0.266493 0.00417274)
(0.16607 0.244418 0.00190074)
(0.130747 0.222243 0.000267396)
(0.0984316 0.202229 0.00196156)
(0.0714703 0.191554 -0.000608055)
(0.0483736 0.182711 -0.00591559)
(0.0301624 0.170037 -0.00306897)
(0.0145178 0.161237 -0.00279264)
(-0.00329569 0.147382 0.00131623)
(-0.0196493 0.126376 0.00452413)
(-0.0379493 0.107183 0.00670927)
(-0.056505 0.0884724 0.00610915)
(-0.0773466 0.0710144 0.00626074)
(-0.098994 0.0524817 0.00269276)
(-0.122611 0.033679 0.00237589)
(-0.141299 0.00285527 0.001709)
(-0.164726 -0.0327745 0.00360887)
(-0.199938 -0.0693602 0.00706055)
(-0.241204 -0.11338 0.0114708)
(-0.288507 -0.164569 0.0141528)
(-0.337231 -0.229514 0.0142124)
(-0.381302 -0.303271 0.010021)
(-0.412728 -0.382401 0.000628182)
(-0.414576 -0.446602 -0.0138191)
(-0.375776 -0.477119 -0.031496)
(-0.285148 -0.436138 -0.0542464)
(-0.172368 -0.305808 -0.0529096)
(-0.04948 -0.0811753 -0.0188333)
(0.0079966 0.0429206 -0.00578063)
(-0.00465133 0.158381 -0.00630325)
(0.0462892 0.365004 -0.0212173)
(0.135804 0.464452 -0.0319882)
(0.218809 0.486668 -0.0122728)
(0.285338 0.475177 -0.00486632)
(0.326693 0.444088 0.0121844)
(0.343034 0.408827 0.0157639)
(0.337921 0.393838 0.0178952)
(0.331376 0.395906 0.0138728)
(0.311421 0.393621 0.00904764)
(0.281824 0.381919 0.00337834)
(0.244355 0.358468 -0.0005444)
(0.203335 0.327036 -0.00358241)
(0.162836 0.295443 -0.00409898)
(0.130353 0.264108 -0.00354236)
(0.103879 0.23745 -0.000288307)
(0.0708341 0.21263 -0.00684006)
(0.048306 0.191272 -0.00815655)
(0.0327597 0.162253 -0.00598776)
(0.0109961 0.138954 -0.00342307)
(-0.00552109 0.116031 0.00256595)
(-0.0211102 0.0904736 0.00518665)
(-0.0371916 0.071607 0.00601393)
(-0.0561175 0.051092 0.00764368)
(-0.0775169 0.0324313 0.000607539)
(-0.100909 0.0136608 0.00321242)
(-0.122764 -0.00425298 0.00214989)
(-0.144739 -0.0347889 -0.00293799)
(-0.176476 -0.0741798 -0.00641148)
(-0.218388 -0.119974 -0.00612946)
(-0.26675 -0.16633 -0.00258262)
(-0.315944 -0.222276 0.00181825)
(-0.357966 -0.287605 0.00556509)
(-0.386154 -0.371685 0.000644488)
(-0.39014 -0.45435 -0.01417)
(-0.365502 -0.521358 -0.0403835)
(-0.302296 -0.517195 -0.0692962)
(-0.191169 -0.391977 -0.0639248)
(-0.0513269 -0.163759 -0.0389708)
(0.00995578 0.0298318 -0.00530127)
(-0.0183944 0.242754 -0.0233561)
(0.0181833 0.483689 -0.0437034)
(0.107732 0.593723 -0.0521678)
(0.192721 0.633872 -0.0381456)
(0.264317 0.625594 -0.0272216)
(0.312277 0.597001 -0.0110729)
(0.352103 0.553762 -0.000671799)
(0.379942 0.527172 -0.00030114)
(0.374208 0.511167 -0.00570599)
(0.336826 0.486339 -0.00932073)
(0.290974 0.453623 -0.0106225)
(0.241464 0.412963 -0.0114119)
(0.196975 0.366728 -0.0108258)
(0.160147 0.321426 -0.00945447)
(0.128628 0.278595 -0.00736662)
(0.103556 0.239091 -0.0040109)
(0.083573 0.203513 -0.000231947)
(0.0600554 0.177245 -0.0051475)
(0.0410936 0.150479 -0.0052188)
(0.0283485 0.123041 -0.00355512)
(0.00807875 0.100924 -0.000986429)
(-0.00762585 0.0790342 0.00375059)
(-0.0218624 0.0546383 0.00501951)
(-0.0421349 0.0350961 0.00504085)
(-0.0597558 0.0158345 0.0040803)
(-0.0780963 -0.00156572 0.00807881)
(-0.101258 -0.0169502 0.00677756)
(-0.134735 -0.0378131 0.00419971)
(-0.168559 -0.0669447 0.00330332)
(-0.193864 -0.109043 0.000530825)
(-0.222594 -0.159991 -0.00454194)
(-0.255349 -0.23318 -0.0117969)
(-0.296212 -0.319798 -0.0193843)
(-0.336657 -0.435256 -0.025984)
(-0.362348 -0.544101 -0.033578)
(-0.357485 -0.645797 -0.0519951)
(-0.287973 -0.673675 -0.0753067)
(-0.201004 -0.56472 -0.0871424)
(-0.074304 -0.281398 -0.0540852)
(0.012043 -0.000364451 -0.00711283)
(0.000165715 0.210399 0.00170642)
(0.0380351 0.453453 -0.0351774)
(0.111533 0.578537 -0.0475136)
(0.195598 0.634661 -0.0431993)
(0.26577 0.639002 -0.0348373)
(0.31578 0.619129 -0.0236655)
(0.353106 0.583027 -0.0164985)
(0.376947 0.542236 -0.0077366)
(0.372681 0.500399 -0.00905818)
(0.337195 0.462531 -0.00820319)
(0.293567 0.424413 -0.00768697)
(0.245268 0.385208 -0.00615904)
(0.201162 0.343679 -0.00499663)
(0.163708 0.304036 -0.00355138)
(0.135023 0.263824 -0.00334444)
(0.112916 0.227573 -0.00123187)
(0.0901288 0.190988 -0.000644321)
(0.0743762 0.159911 0.00165486)
(0.0555885 0.137698 0.000560843)
(0.0359417 0.111963 -0.00269147)
(0.0228574 0.0902435 -0.000186347)
(0.00331221 0.0679152 0.000965154)
(-0.0112904 0.0469506 0.00769663)
(-0.0248108 0.0253297 0.0061769)
(-0.0421032 0.00877211 0.0056497)
(-0.0580257 -0.00901609 0.00869841)
(-0.0769347 -0.0258056 0.0094493)
(-0.102948 -0.0422957 0.00701143)
(-0.141268 -0.053646 0.0036773)
(-0.183202 -0.0772335 0.0035346)
(-0.232742 -0.115625 0.00545375)
(-0.28144 -0.18012 0.00838599)
(-0.325537 -0.266166 0.00903839)
(-0.343281 -0.391132 0.00347788)
(-0.341863 -0.528123 -0.00710779)
(-0.330113 -0.671186 -0.0208988)
(-0.272423 -0.754065 -0.0418003)
(-0.163907 -0.731669 -0.0608209)
(-0.0394228 -0.45673 -0.062603)
(0.0127236 -0.0907145 0.00534331)
(0.000202865 0.227 -0.000686817)
(0.0368082 0.445382 -0.0305852)
(0.104466 0.568455 -0.0412642)
(0.181764 0.624909 -0.0390291)
(0.250478 0.630654 -0.0246749)
(0.302564 0.608926 -0.0181866)
(0.345529 0.570546 -0.00883589)
(0.373089 0.531003 -0.00258368)
(0.370881 0.486178 -0.00233943)
(0.33833 0.448822 -0.00152628)
(0.292839 0.409843 -0.00107272)
(0.24317 0.370011 -0.000250938)
(0.201099 0.330306 5.60268e-05)
(0.166735 0.291887 0.000228549)
(0.137981 0.254484 0.000479862)
(0.114921 0.216158 0.00151847)
(0.0976612 0.179714 0.00256116)
(0.0856404 0.145703 0.00385562)
(0.0689013 0.11924 0.0036318)
(0.0537131 0.0977055 0.00531159)
(0.0342543 0.0784073 0.00175643)
(0.0174455 0.0577825 0.00111863)
(0.00308941 0.0384552 0.00620514)
(-0.0125135 0.0206381 0.00661156)
(-0.0247587 -0.00030112 0.00658071)
(-0.0402849 -0.0170835 0.00823808)
(-0.0568703 -0.0365819 0.00940765)
(-0.0764812 -0.0571071 0.00989241)
(-0.104468 -0.0738602 0.00902342)
(-0.137278 -0.0918832 0.00702018)
(-0.178121 -0.109908 0.00705215)
(-0.220333 -0.144306 0.00699598)
(-0.279591 -0.191616 0.00837407)
(-0.332026 -0.275769 0.0107712)
(-0.362221 -0.390118 0.00947277)
(-0.369277 -0.543571 0.00553259)
(-0.330405 -0.660748 -0.00769928)
(-0.229466 -0.692669 -0.0302235)
(-0.0595212 -0.482861 -0.0447303)
(0.0262731 -0.0670439 -0.0230718)
(0.0068262 0.200108 -0.000831501)
(0.0449092 0.398178 -0.02497)
(0.1058 0.529364 -0.0341572)
(0.180113 0.590949 -0.0333405)
(0.246356 0.607256 -0.0209761)
(0.297618 0.589394 -0.0133946)
(0.342439 0.553488 -0.00409873)
(0.367843 0.510284 0.00151864)
(0.366527 0.461125 0.00224655)
(0.337602 0.419166 0.00253002)
(0.292471 0.378493 0.00326451)
(0.245897 0.341542 0.00421518)
(0.206053 0.306286 0.00431677)
(0.172762 0.271296 0.00442396)
(0.144588 0.236586 0.00388606)
(0.122656 0.201721 0.0041622)
(0.102265 0.169175 0.00476551)
(0.0935772 0.134303 0.00726625)
(0.0837689 0.107184 0.00735189)
(0.0676815 0.0835358 0.00663112)
(0.0525395 0.0687066 0.00668868)
(0.0310929 0.0494715 0.00608306)
(0.0183428 0.0323766 0.00450928)
(0.00344864 0.0149565 0.00415139)
(-0.0115281 -0.00248912 0.0074835)