/*--------------------------------*- C++ -*----------------------------------*\
| =========                 |                                                 |
| \\      /  F ield         | OpenFOAM: The Open Source CFD Toolbox           |
|  \\    /   O peration     | Version:  v1806                                 |
|   \\  /    A nd           | Web:      www.OpenFOAM.com                      |
|    \\/     M anipulation  |                                                 |
\*---------------------------------------------------------------------------*/
FoamFile
{
    version     2.0;
    format      ascii;
    class       volVectorField;
    location    "0.0815";
    object      U_0;
}
// * * * * * * * * * * * * * * * * * * * * * * * * * * * * * * * * * * * * * //

dimensions      [0 1 -1 0 0 0 0];


internalField   nonuniform List<vector> 
64000
(
(-0.00970265 -0.0109586 -0.00751899)
(0.0141508 -0.0108754 -0.00500027)
(0.0201102 -0.00365756 0.000602625)
(0.0244552 -0.00334036 0.00122435)
(0.0254776 -0.00243689 0.00156211)
(0.0257108 -0.00271635 0.00229611)
(0.025268 -0.00359716 0.00253134)
(0.0218965 -0.00397041 0.00289016)
(0.0206575 -0.00492159 0.00432994)
(0.0135006 -0.00447912 0.00372869)
(0.00811516 -0.00519972 0.00609713)
(-0.00478437 -0.00866416 0.00629918)
(-0.0240366 -0.0125365 0.00622708)
(-0.0478898 -0.0177026 0.00389552)
(-0.0770998 -0.0181121 0.00494256)
(-0.113136 -0.0166994 0.00253127)
(-0.142346 0.000311312 0.00177407)
(-0.187042 -0.00442751 -0.00266806)
(-0.186707 -0.00965784 0.0053752)
(-0.247211 -0.0277632 -0.0148636)
(-0.216019 -0.0222157 -0.0225784)
(-0.107317 -0.0236959 -0.0387164)
(-0.107735 -0.00893984 -0.0259469)
(-0.104406 -0.00358139 -0.0372261)
(-0.121114 0.00280396 -0.0480942)
(-0.115271 0.0110513 -0.0575462)
(-0.103449 0.0210539 -0.0622384)
(-0.0676489 0.032135 -0.0580978)
(-0.0342643 0.0386529 -0.0537373)
(0.00938284 0.0516909 -0.0377568)
(0.0556521 0.0467768 -0.0320325)
(0.090655 0.0379938 -0.024028)
(0.106805 0.027268 -0.0122006)
(0.103077 0.0137399 -0.00475128)
(0.0893809 0.00530725 0.00137298)
(0.0705363 -0.00273767 0.00398349)
(0.0508686 -0.00658119 0.00528419)
(0.0303621 -0.00581466 0.00613753)
(0.0162125 -0.0042853 0.00663389)
(0.00214648 -0.00273083 0.00443843)
(-0.00704206 0.00154716 -0.00381774)
(0.00860696 -0.0164406 -0.00362812)
(0.023706 -0.0108906 -0.00148969)
(0.0336612 -0.00759536 -0.000790936)
(0.0391913 -0.00280515 -0.00106073)
(0.0392191 -0.000622319 -0.00158563)
(0.0378331 0.00341648 -0.00306529)
(0.0305188 0.00499643 -0.00285668)
(0.0235345 0.010691 -0.00706308)
(0.00583368 0.0162357 -0.00431994)
(-0.0183016 0.0250221 -0.00813837)
(-0.055287 0.0316297 0.000564316)
(-0.102937 0.0426069 -0.0039978)
(-0.155101 0.0626101 -0.0068255)
(-0.21393 0.0758621 -0.0112121)
(-0.271894 0.0848239 -0.0181758)
(-0.35164 0.0929938 -0.0435978)
(-0.457035 0.09517 -0.0585493)
(-0.504984 0.101199 -0.0760196)
(-0.59031 0.0996972 -0.0985689)
(-0.543817 0.126814 -0.0971843)
(-0.407656 0.141846 -0.126262)
(-0.389567 0.18704 -0.136534)
(-0.372732 0.21164 -0.146154)
(-0.362341 0.236657 -0.157687)
(-0.323632 0.258179 -0.163847)
(-0.274352 0.279079 -0.165209)
(-0.203046 0.294723 -0.153609)
(-0.126934 0.300732 -0.133676)
(-0.0552358 0.30615 -0.109896)
(0.00974606 0.289469 -0.0761162)
(0.0735988 0.259213 -0.0469385)
(0.110542 0.210203 -0.0388839)
(0.122774 0.159397 -0.0264744)
(0.117551 0.108598 -0.0127745)
(0.0986288 0.0689488 -0.00529038)
(0.0790271 0.040383 -0.00091992)
(0.0541919 0.0257451 7.16444e-05)
(0.0323854 0.0159542 0.00162547)
(0.00790779 0.0075473 0.00186889)
(-0.000628102 -0.00580847 0.00151014)
(0.0148084 -0.0225306 -0.00166919)
(0.0315357 -0.0173875 -0.00268558)
(0.042113 -0.00526027 -0.00368095)
(0.0444912 0.00484856 -0.00546505)
(0.0421213 0.0161448 -0.0068941)
(0.0346977 0.0314229 -0.00809666)
(0.0205495 0.0456049 -0.00965879)
(0.0046075 0.0695992 -0.00196228)
(-0.0258514 0.0900539 -0.00488502)
(-0.063908 0.117125 -0.00813959)
(-0.117024 0.149539 -0.0133142)
(-0.172007 0.183262 -0.0175924)
(-0.250331 0.211359 -0.0322691)
(-0.347711 0.230917 -0.0353463)
(-0.444088 0.244568 -0.0422773)
(-0.529752 0.2494 -0.0588713)
(-0.617583 0.269692 -0.0772746)
(-0.660207 0.299426 -0.0949912)
(-0.730212 0.33354 -0.116172)
(-0.66985 0.371746 -0.106922)
(-0.507336 0.400866 -0.12381)
(-0.465713 0.457705 -0.12582)
(-0.437806 0.489034 -0.123467)
(-0.418337 0.521218 -0.12607)
(-0.375524 0.543053 -0.124482)
(-0.32574 0.557306 -0.119932)
(-0.260073 0.56083 -0.104924)
(-0.193354 0.550817 -0.0829754)
(-0.128121 0.530988 -0.0593685)
(-0.0721886 0.500135 -0.0399941)
(-0.0287416 0.452189 -0.0277987)
(0.0052195 0.379505 -0.0166173)
(0.0275298 0.306941 -0.00828635)
(0.0402217 0.227248 -0.0109789)
(0.0465038 0.162425 -0.0108973)
(0.046702 0.114632 -0.00718923)
(0.0378306 0.0774848 -0.0049507)
(0.0268897 0.0514088 -0.00120616)
(0.00784457 0.0248523 0.0015875)
(0.00043447 -0.0101646 0.00219922)
(0.017085 -0.0239723 -0.0011283)
(0.0379564 -0.0110967 -0.0033795)
(0.0457027 0.00640777 -0.00653444)
(0.0437453 0.030281 -0.00725826)
(0.039413 0.0550861 -0.00906177)
(0.0265047 0.0903332 -0.00886471)
(0.00752015 0.122965 -0.00573114)
(-0.0197121 0.167673 -0.0105775)
(-0.06544 0.207791 -0.0129718)
(-0.111453 0.251965 -0.0172674)
(-0.176421 0.288124 -0.0247316)
(-0.261522 0.316536 -0.0271494)
(-0.352618 0.33294 -0.0289534)
(-0.438917 0.353991 -0.0314259)
(-0.518146 0.377957 -0.0365372)
(-0.587891 0.407995 -0.0512777)
(-0.662509 0.436937 -0.0609014)
(-0.691045 0.477781 -0.0702041)
(-0.746632 0.52195 -0.0775677)
(-0.675265 0.555489 -0.0487451)
(-0.491975 0.575393 -0.0460116)
(-0.43607 0.617912 -0.0407124)
(-0.408561 0.625456 -0.0295038)
(-0.390338 0.638632 -0.0268581)
(-0.356776 0.639297 -0.0217746)
(-0.318671 0.631836 -0.0183133)
(-0.269805 0.613372 -0.0108568)
(-0.220665 0.587845 0.00107511)
(-0.175387 0.555539 0.00830226)
(-0.14388 0.515255 0.0134071)
(-0.119069 0.471069 0.012023)
(-0.0955813 0.413196 0.0063651)
(-0.0734977 0.349771 -0.00177335)
(-0.0505483 0.26998 -0.00546194)
(-0.0209922 0.201833 -0.0104386)
(-0.000507814 0.146764 -0.0105665)
(0.0084839 0.110493 -0.00789527)
(0.0166773 0.0771985 -0.00339466)
(0.00623664 0.0369738 0.00126977)
(0.000972905 -0.0104523 0.000784926)
(0.0233341 -0.0133304 -0.00429112)
(0.0458185 0.00386205 -0.00744536)
(0.0542521 0.0387283 -0.00842005)
(0.0517269 0.0764583 -0.00783503)
(0.0457608 0.122425 -0.0152508)
(0.0269503 0.177561 -0.0127605)
(-0.000758931 0.236895 -0.00621032)
(-0.03368 0.292596 -0.00789131)
(-0.0872862 0.3385 -0.00998047)
(-0.148767 0.374379 -0.0126918)
(-0.228075 0.393943 -0.0153605)
(-0.302323 0.416418 -0.0161913)
(-0.37701 0.441818 -0.0213689)
(-0.450031 0.472053 -0.0202684)
(-0.517519 0.504684 -0.021313)
(-0.574279 0.532414 -0.0249911)
(-0.629659 0.568513 -0.0221807)
(-0.638673 0.613165 -0.017514)
(-0.680033 0.659087 -0.0261342)
(-0.609813 0.687195 0.00308032)
(-0.420148 0.692364 0.0157286)
(-0.359912 0.705766 0.0267779)
(-0.341609 0.680467 0.0365116)
(-0.335349 0.663316 0.0371724)
(-0.321098 0.637392 0.0430091)
(-0.303164 0.605355 0.0442833)
(-0.272705 0.568897 0.0483837)
(-0.244179 0.527996 0.0416788)
(-0.219064 0.488683 0.033689)
(-0.198734 0.444044 0.0236586)
(-0.189112 0.411096 0.0163275)
(-0.18123 0.374226 0.00862175)
(-0.175822 0.34345 -0.0033994)
(-0.1533 0.278379 -0.0133649)
(-0.104094 0.208648 -0.0143355)
(-0.0525993 0.160699 -0.0136635)
(-0.0170659 0.130203 -0.0116348)
(0.00274888 0.0958184 -0.00604137)
(0.0033767 0.0464974 0.00124516)
(0.00565958 -0.00544543 -0.000201578)
(0.0284411 0.0016623 -0.00635678)
(0.0602297 0.0281463 -0.00608246)
(0.072497 0.0804539 -0.00982223)
(0.0666423 0.138444 -0.0147298)
(0.0627944 0.202414 -0.018475)
(0.0456476 0.277995 -0.013788)
(0.0102051 0.329849 -0.00456485)
(-0.043911 0.374143 -0.00543203)
(-0.115024 0.407652 -0.00744008)
(-0.183635 0.437242 -0.0095344)
(-0.24811 0.465308 -0.00971813)
(-0.307683 0.499213 -0.00792723)
(-0.366037 0.526918 -0.00498042)
(-0.416553 0.556776 0.000978562)
(-0.468667 0.585064 0.0062506)
(-0.50173 0.615144 0.00851466)
(-0.536374 0.64663 0.00853669)
(-0.540078 0.693593 0.0106837)
(-0.568225 0.727877 0.00918027)
(-0.501402 0.752647 0.0368189)
(-0.328618 0.703674 0.0515331)
(-0.28455 0.686046 0.0617906)
(-0.287954 0.629951 0.0742968)
(-0.29665 0.588941 0.076875)
(-0.301121 0.546557 0.0767413)
(-0.299306 0.503652 0.0740838)
(-0.289065 0.462239 0.0679232)
(-0.274205 0.415174 0.0656533)
(-0.263117 0.377105 0.0448543)
(-0.253332 0.333873 0.0337072)
(-0.242567 0.303316 0.0192325)
(-0.228842 0.277945 0.00784834)
(-0.237026 0.265877 -0.00394449)
(-0.241142 0.241686 -0.0160601)
(-0.175139 0.192753 -0.0143236)
(-0.0931567 0.161694 -0.015259)
(-0.0406792 0.135507 -0.0119389)
(-0.00480527 0.10386 -0.00685631)
(0.00240556 0.0499389 0.00177234)
(0.00717484 -2.48277e-05 -0.00020427)
(0.038216 0.0143068 -0.0100966)
(0.0809341 0.0548804 -0.0100565)
(0.105384 0.109935 -0.0120236)
(0.100482 0.174814 -0.0164189)
(0.0976942 0.248955 -0.0190618)
(0.0559378 0.31303 -0.0115946)
(-0.00893794 0.343119 0.00189903)
(-0.0585117 0.386659 -0.00308665)
(-0.115765 0.425891 -0.0036796)
(-0.164828 0.47123 -0.00372665)
(-0.216046 0.513319 -0.00188441)
(-0.262846 0.552451 0.00142884)
(-0.309912 0.585837 0.00666255)
(-0.350021 0.618542 0.0144134)
(-0.384805 0.643359 0.0198588)
(-0.408347 0.670572 0.0258583)
(-0.426072 0.682756 0.0292442)
(-0.41691 0.70811 0.0268162)
(-0.437848 0.721548 0.0174956)
(-0.430603 0.741177 0.0332485)
(-0.292071 0.635446 0.0547185)
(-0.234243 0.586106 0.0589447)
(-0.254476 0.524351 0.0712265)
(-0.273357 0.481872 0.0717023)
(-0.294405 0.443627 0.0712157)
(-0.308401 0.408377 0.0673836)
(-0.314675 0.374169 0.060333)
(-0.313106 0.337498 0.0473367)
(-0.313868 0.303374 0.0317366)
(-0.310819 0.27053 0.0185623)
(-0.302778 0.242703 0.00617317)
(-0.289177 0.223028 -0.00264288)
(-0.285656 0.207518 -0.00972482)
(-0.289123 0.218265 -0.0187282)
(-0.227178 0.193203 -0.0209364)
(-0.127766 0.16713 -0.0220017)
(-0.0561257 0.146518 -0.0169554)
(-0.0100096 0.112757 -0.0108176)
(0.00234978 0.0547281 1.36407e-05)
(0.00720354 0.00674358 -0.00353404)
(0.0453832 0.0332692 -0.0136596)
(0.0994951 0.0824676 -0.0137946)
(0.125059 0.138371 -0.0113153)
(0.128504 0.197283 -0.0122474)
(0.115232 0.270092 -0.0128284)
(0.0540851 0.300627 -0.00219741)
(0.004319 0.350332 0.00487044)
(-0.028891 0.396895 0.000871343)
(-0.0791998 0.450422 0.00234969)
(-0.121831 0.494693 0.00315578)
(-0.164958 0.532096 0.00949942)
(-0.201297 0.565557 0.0154269)
(-0.232791 0.592494 0.0233737)
(-0.260465 0.618128 0.0278277)
(-0.289297 0.633344 0.0319945)
(-0.308058 0.644831 0.034765)
(-0.326396 0.644025 0.0339951)
(-0.324536 0.639064 0.0312013)
(-0.338828 0.616306 0.0151003)
(-0.380685 0.62109 0.0163117)
(-0.295089 0.541465 0.0353953)
(-0.222735 0.458899 0.0381396)
(-0.243067 0.417907 0.0494605)
(-0.269266 0.382075 0.0531215)
(-0.300268 0.357199 0.0544822)
(-0.324403 0.331314 0.0554606)
(-0.34187 0.305659 0.048225)
(-0.351541 0.277857 0.0389446)
(-0.35922 0.247944 0.016912)
(-0.360533 0.216478 0.00844244)
(-0.350939 0.191968 -0.00083271)
(-0.336435 0.179146 -0.00859031)
(-0.319725 0.170283 -0.0124971)
(-0.327318 0.192041 -0.0219561)
(-0.277161 0.19652 -0.0209431)
(-0.161811 0.172539 -0.0226577)
(-0.0745982 0.155771 -0.0176788)
(-0.01513 0.120064 -0.0104553)
(0.00340905 0.0585366 0.000814081)
(0.00603302 0.0188628 -0.00612102)
(0.0536917 0.0641585 -0.0178704)
(0.119705 0.120622 -0.0194049)
(0.151565 0.176279 -0.0134398)
(0.159542 0.237681 -0.0142137)
(0.128799 0.28895 -0.0124574)
(0.0721417 0.324309 -0.00304366)
(0.0332967 0.381809 0.0045977)
(0.00526985 0.419534 0.0106921)
(-0.0297031 0.46016 0.0105276)
(-0.0695396 0.498215 0.0147529)
(-0.10137 0.525271 0.0202552)
(-0.127711 0.548171 0.0275175)
(-0.152998 0.561301 0.0338946)
(-0.17662 0.565903 0.0361442)
(-0.202349 0.562595 0.0366532)
(-0.22474 0.556309 0.0353545)
(-0.2516 0.540435 0.0306265)
(-0.272509 0.52644 0.0245983)
(-0.289051 0.493251 0.010161)
(-0.341096 0.482902 -0.000374896)
(-0.318304 0.453706 0.0103952)
(-0.243412 0.354865 0.0197003)
(-0.242034 0.336994 0.025733)
(-0.27334 0.311619 0.0335671)
(-0.308334 0.297105 0.0378141)
(-0.341811 0.279261 0.0430614)
(-0.366688 0.257651 0.039013)
(-0.38654 0.234242 0.0239093)
(-0.403722 0.20144 0.00848291)
(-0.406065 0.176891 -0.00136848)
(-0.393209 0.153913 -0.00677993)
(-0.377971 0.140601 -0.012365)
(-0.350533 0.141649 -0.0207236)
(-0.340606 0.154892 -0.0246426)
(-0.306845 0.191373 -0.0291704)
(-0.197389 0.17508 -0.0265878)
(-0.0898556 0.165128 -0.0247429)
(-0.0201229 0.130035 -0.0137714)
(0.00431527 0.0646797 -0.00137063)
(0.00765787 0.0350576 -0.00891682)
(0.0627282 0.102586 -0.0255354)
(0.138163 0.163195 -0.0245978)
(0.176816 0.217008 -0.0148729)
(0.178959 0.270839 -0.0154265)
(0.147309 0.303757 -0.0141189)
(0.104367 0.350681 -0.0039503)
(0.0716672 0.397425 0.00793599)
(0.040943 0.435147 0.0149108)
(0.0165771 0.461795 0.0256166)
(-0.0104727 0.484671 0.0224421)
(-0.0417618 0.497753 0.0329492)
(-0.0648702 0.50656 0.0380346)
(-0.0883799 0.4973 0.0437316)
(-0.111829 0.482335 0.0439031)
(-0.138827 0.459234 0.0407642)
(-0.166524 0.43616 0.0354311)
(-0.197657 0.410577 0.0277242)
(-0.229038 0.393757 0.0190546)
(-0.260088 0.374994 0.00465085)
(-0.313519 0.359503 -0.00830597)
(-0.342313 0.358959 -0.00724115)
(-0.275188 0.291755 0.00866077)
(-0.239885 0.282004 0.0111735)
(-0.27444 0.264304 0.0218486)
(-0.309615 0.256657 0.0290871)
(-0.349162 0.237877 0.0383699)
(-0.381351 0.221582 0.0323907)
(-0.409873 0.192063 0.0246218)
(-0.425169 0.165807 0.00936384)
(-0.430661 0.137999 0.0106017)
(-0.425704 0.116371 0.0170512)
(-0.405944 0.0970676 0.0137242)
(-0.380977 0.0988817 0.00868691)
(-0.361218 0.112479 -0.0137688)
(-0.329802 0.160994 -0.0248871)
(-0.227804 0.172356 -0.0252852)
(-0.107554 0.165148 -0.0215705)
(-0.0259837 0.137792 -0.0128283)
(0.00533951 0.0689898 -0.000169086)
(0.00878763 0.0576352 -0.011484)
(0.0713445 0.145677 -0.031813)
(0.155945 0.209934 -0.031061)
(0.200071 0.258946 -0.0184657)
(0.198062 0.297098 -0.011749)
(0.17234 0.330632 -0.0141616)
(0.143608 0.371212 -0.00354753)
(0.112568 0.408393 0.00420595)
(0.0870784 0.436888 0.0124883)
(0.0589719 0.457979 0.0282972)
(0.0303753 0.463088 0.0367476)
(0.0132693 0.463913 0.0469236)
(-0.010576 0.451399 0.0469131)
(-0.0408465 0.430127 0.0499747)
(-0.0675309 0.401652 0.0483837)
(-0.0991448 0.369593 0.0421031)
(-0.131731 0.34004 0.0337512)
(-0.167433 0.313074 0.0245823)
(-0.202399 0.297035 0.0157984)
(-0.240827 0.282984 0.00273839)
(-0.292126 0.273494 -0.00755506)
(-0.336172 0.277265 -0.0117654)
(-0.279909 0.258836 0.00150538)
(-0.233702 0.245228 0.00235614)
(-0.262835 0.233012 0.0147369)
(-0.30111 0.221418 0.0233106)
(-0.34596 0.20652 0.0325484)
(-0.382647 0.184296 0.0304484)
(-0.41499 0.158831 0.0199464)
(-0.438191 0.129417 0.0299172)
(-0.452294 0.0950376 0.0313377)
(-0.453864 0.0669032 0.017848)
(-0.439883 0.0524926 0.0127875)
(-0.406076 0.0494324 0.00452935)
(-0.368523 0.0643587 -0.000938423)
(-0.337655 0.111592 -0.0229602)
(-0.251912 0.151795 -0.0286316)
(-0.124798 0.161563 -0.0236898)
(-0.028961 0.14189 -0.0150554)
(0.00468041 0.0736859 -0.00182101)
(0.00966286 0.0764584 -0.0121858)
(0.0773186 0.185884 -0.035764)
(0.169304 0.252974 -0.0342447)
(0.213375 0.290668 -0.0178473)
(0.217089 0.318988 -0.0100923)
(0.201633 0.351167 -0.00741255)
(0.178295 0.382756 -0.00600939)
(0.151562 0.407198 0.00725462)
(0.124805 0.427343 0.0125414)
(0.100503 0.435978 0.0244521)
(0.0773766 0.439161 0.0362814)
(0.0486833 0.42821 0.0514452)
(0.023428 0.402086 0.0554738)
(-0.00152841 0.367919 0.0548003)
(-0.0339231 0.336357 0.0487072)
(-0.0687648 0.302995 0.0396407)
(-0.105871 0.276499 0.0286881)
(-0.142057 0.254113 0.0193382)
(-0.180692 0.245324 0.0101302)
(-0.223916 0.233848 0.000396265)
(-0.271126 0.230545 -0.00756256)
(-0.312545 0.23162 -0.0118281)
(-0.264044 0.236292 -0.00140297)
(-0.216499 0.219807 -0.00232986)
(-0.243173 0.204426 0.00980429)
(-0.278838 0.188736 0.019141)
(-0.326631 0.171905 0.026981)
(-0.366916 0.149326 0.0217633)
(-0.403629 0.122286 0.0381015)
(-0.436396 0.0877394 0.045167)
(-0.458196 0.0545877 0.0392788)
(-0.459638 0.0289299 0.0502471)
(-0.45237 0.00599714 0.0391521)
(-0.434837 0.00242517 0.0343368)
(-0.397402 0.0118462 0.0247164)
(-0.353656 0.0586097 0.00366271)
(-0.264857 0.113441 -0.0253089)
(-0.138862 0.149467 -0.0252133)
(-0.0350266 0.140357 -0.0145131)
(0.00581114 0.076716 -0.001802)
(0.0103431 0.0978888 -0.0113931)
(0.0819093 0.226823 -0.0382521)
(0.174601 0.294591 -0.0372391)
(0.224393 0.323492 -0.0187637)
(0.239097 0.345811 -0.00593285)
(0.231177 0.369342 -8.54204e-05)
(0.210118 0.391227 0.004307)
(0.185567 0.405636 0.00521802)
(0.164169 0.415063 0.0158041)
(0.140647 0.416861 0.026091)
(0.113574 0.407373 0.0355218)
(0.086617 0.388206 0.042511)
(0.053117 0.359861 0.0553912)
(0.0219746 0.32288 0.0553346)
(-0.00719859 0.283302 0.0474467)
(-0.0446629 0.25658 0.0347103)
(-0.0834154 0.232369 0.0227334)
(-0.118615 0.21644 0.0142833)
(-0.157819 0.210072 0.00532389)
(-0.201104 0.202683 -0.000460078)
(-0.242843 0.20331 -0.00701432)
(-0.274205 0.20183 -0.00959818)
(-0.230607 0.22699 -0.00232032)
(-0.193903 0.202559 -0.00404781)
(-0.214279 0.178191 0.00608964)
(-0.248998 0.156487 0.0144544)
(-0.294776 0.132874 0.019312)
(-0.337589 0.110962 0.03244)
(-0.382154 0.0785799 0.0446209)
(-0.419859 0.047219 0.0467034)
(-0.442867 0.0149681 0.0662627)
(-0.468484 -0.0223542 0.0468819)
(-0.475362 -0.0628105 0.0348042)
(-0.458044 -0.0833174 0.0130452)
(-0.417174 -0.0707563 0.00421243)
(-0.371839 -0.0225315 0.00815616)
(-0.285984 0.0624763 -0.00242964)
(-0.153351 0.11912 -0.0311809)
(-0.0399813 0.133603 -0.0144816)
(0.00598123 0.0791116 -0.00335849)
(0.00965036 0.103655 -0.0105362)
(0.0803319 0.249514 -0.04053)
(0.174953 0.320578 -0.0411966)
(0.230456 0.346806 -0.0218683)
(0.255933 0.360775 -0.00351163)
(0.255359 0.372216 0.00615265)
(0.236428 0.383976 0.0124124)
(0.213649 0.392523 0.0158642)
(0.193174 0.397769 0.0190204)
(0.170345 0.392168 0.0230772)
(0.146143 0.377389 0.0295102)
(0.114059 0.35318 0.040108)
(0.0800712 0.320405 0.0419831)
(0.0430454 0.28759 0.0500927)
(0.0121747 0.249964 0.0455593)
(-0.0196206 0.220917 0.0280018)
(-0.0610758 0.202104 0.0172222)
(-0.0928021 0.188689 0.00990027)
(-0.130968 0.182731 0.0022161)
(-0.169304 0.178899 -0.000650462)
(-0.206607 0.17582 -0.00570085)
(-0.215206 0.188401 -0.00310618)
(-0.182646 0.213928 -0.00197667)
(-0.173461 0.183816 -0.00199701)
(-0.189067 0.151409 0.00287873)
(-0.216121 0.119814 0.0103061)
(-0.256371 0.0965891 0.0154431)
(-0.298753 0.0676713 0.0332376)
(-0.343527 0.0408559 0.0406628)
(-0.381499 0.0109609 0.0617373)
(-0.429924 -0.0307072 0.0458164)
(-0.471496 -0.0837926 0.0383204)
(-0.488919 -0.127447 0.0241262)
(-0.476237 -0.159532 0.0132934)
(-0.435461 -0.161966 -0.0069762)
(-0.374653 -0.12125 -0.00702226)
(-0.29195 -0.0192562 -0.00102583)
(-0.171711 0.077543 -0.0170471)
(-0.0441265 0.118843 -0.020246)
(0.00715542 0.0788916 -0.0022365)
(0.00851445 0.114656 -0.00859369)
(0.0790932 0.274931 -0.0399706)
(0.174526 0.350729 -0.0426285)
(0.23649 0.374304 -0.0228269)
(0.268901 0.380511 -0.00240534)
(0.274024 0.379151 0.011659)
(0.262292 0.381851 0.0212812)
(0.245048 0.384349 0.0240067)
(0.225863 0.382674 0.026776)
(0.201582 0.371387 0.0287349)
(0.174157 0.352094 0.0306003)
(0.142222 0.322225 0.0288244)
(0.104918 0.290681 0.0308677)
(0.0657706 0.253849 0.0328337)
(0.0291072 0.226608 0.0342493)
(-0.00232099 0.193138 0.02168)
(-0.0359587 0.177063 0.0113)
(-0.0669604 0.167581 0.00629857)
(-0.0987038 0.157708 0.000285917)
(-0.135393 0.152532 -0.00131565)
(-0.153368 0.156813 -0.00088119)
(-0.14917 0.181292 0.00249797)
(-0.140912 0.182721 0.000463002)
(-0.153328 0.155144 -0.000297596)
(-0.166851 0.124014 0.00227902)
(-0.183473 0.0878349 0.00625779)
(-0.216697 0.0609764 0.0191767)
(-0.253997 0.0319775 0.0284035)
(-0.292657 0.00506941 0.0472428)
(-0.34656 -0.0340396 0.0405995)
(-0.403171 -0.0862786 0.0384)
(-0.451666 -0.137615 0.0285275)
(-0.481859 -0.189327 0.0180616)
(-0.485416 -0.229742 0.00266057)
(-0.451556 -0.248439 -0.0123571)
(-0.385832 -0.217341 -0.0210054)
(-0.295563 -0.12779 -0.0185256)
(-0.179872 0.0178712 0.000976664)
(-0.0539668 0.0969942 -0.0268151)
(0.00620687 0.081141 -0.00353812)
(0.0061622 0.0940782 -0.0084574)
(0.0729391 0.268107 -0.0397911)
(0.168576 0.349872 -0.0417091)
(0.23511 0.37375 -0.0222498)
(0.274645 0.374471 0.00109961)
(0.288537 0.368841 0.0151533)
(0.284021 0.367376 0.0211074)
(0.267108 0.362092 0.0247137)
(0.246623 0.35403 0.0271535)
(0.222993 0.340872 0.0280749)
(0.195816 0.320116 0.0278206)
(0.162301 0.294187 0.0244644)
(0.124297 0.261505 0.0202748)
(0.0865556 0.230299 0.0143127)
(0.0490721 0.203131 0.0189349)
(0.0171254 0.180079 0.0120864)
(-0.00847051 0.160376 0.00614584)
(-0.0375923 0.147921 0.000835634)
(-0.0697459 0.138108 -0.00146039)
(-0.0884354 0.139722 0.000674497)
(-0.0901141 0.152945 0.00364699)
(-0.0965969 0.157993 0.00453156)
(-0.10996 0.146547 0.0032546)
(-0.127964 0.123109 0.00242798)
(-0.145179 0.100735 0.00306122)
(-0.158952 0.0630353 0.0054383)
(-0.181384 0.0328102 0.0163826)
(-0.212002 0.00429436 0.0311252)
(-0.25558 -0.0302379 0.0306546)
(-0.310173 -0.0752317 0.0337255)
(-0.365977 -0.123125 0.0301857)
(-0.418748 -0.179511 0.0259622)
(-0.457015 -0.238102 0.0160833)
(-0.473271 -0.292862 0.00267529)
(-0.451899 -0.325292 -0.0145437)
(-0.393301 -0.314674 -0.0275843)
(-0.289637 -0.235077 -0.0312734)
(-0.178886 -0.0822299 -0.0194873)
(-0.0587177 0.0518443 -0.0194682)
(0.00810461 0.0693758 -0.00843815)
(0.00620695 0.105252 -0.0043329)
(0.0710345 0.285621 -0.0348306)
(0.165505 0.371251 -0.0397584)
(0.238402 0.392967 -0.0189311)
(0.287453 0.38829 0.00562966)
(0.311269 0.374214 0.0149515)
(0.310246 0.364017 0.0223453)
(0.294476 0.352446 0.0240296)
(0.276487 0.34152 0.0228918)
(0.252171 0.323141 0.0202533)
(0.224891 0.298465 0.0173611)
(0.190077 0.268229 0.0126796)
(0.149417 0.23717 0.00860003)
(0.110259 0.206493 0.00521246)
(0.0724088 0.183078 0.00396922)
(0.0396394 0.16531 0.00180055)
(0.0109965 0.153506 -0.000886647)
(-0.010717 0.141829 -0.0013156)
(-0.0256205 0.140927 -0.00107746)
(-0.035465 0.143871 0.00155306)
(-0.0461741 0.141522 0.00404844)
(-0.0633555 0.128269 0.00621158)
(-0.0809299 0.113348 0.00557066)
(-0.10083 0.0943852 0.00469602)
(-0.123657 0.0748306 0.00703342)
(-0.140172 0.0479212 0.00546851)
(-0.153682 0.0120461 0.0117421)
(-0.182343 -0.0211476 0.0141722)
(-0.222637 -0.0627075 0.0192935)
(-0.271846 -0.104929 0.0208579)
(-0.326646 -0.153629 0.022347)
(-0.380275 -0.210602 0.0201381)
(-0.423309 -0.272857 0.0145724)
(-0.448757 -0.338307 0.00282249)
(-0.440118 -0.387319 -0.0134952)
(-0.39193 -0.399117 -0.0305465)
(-0.299488 -0.334892 -0.0445772)
(-0.184435 -0.183576 -0.0333765)
(-0.0582382 0.00961382 -0.00875682)
(0.00659658 0.0706139 -0.0117447)
(-0.00401684 0.0773012 -0.0153487)
(0.0500124 0.266542 -0.0405486)
(0.146025 0.362395 -0.0463812)
(0.226297 0.386041 -0.0267752)
(0.284926 0.382964 -0.00563431)
(0.31937 0.361944 0.0073094)
(0.328693 0.344593 0.0135836)
(0.315556 0.325969 0.0142705)
(0.294206 0.312855 0.013356)
(0.266222 0.301115 0.00997458)
(0.236772 0.286771 0.00735222)
(0.203311 0.266688 0.00414144)
(0.165539 0.24469 0.0019009)
(0.130387 0.222532 0.000289936)
(0.0982704 0.202541 0.00203938)
(0.0714008 0.191832 -0.000684611)
(0.0484664 0.182822 -0.00599078)
(0.0304023 0.170096 -0.0031459)
(0.0147493 0.161089 -0.00287541)
(-0.00316559 0.146963 0.0012273)
(-0.0194931 0.125883 0.00448473)
(-0.0377079 0.106614 0.00665428)
(-0.0562564 0.0879184 0.00609022)
(-0.077061 0.0704877 0.00625654)
(-0.0986703 0.0519826 0.00270341)
(-0.122417 0.033294 0.0023245)
(-0.141257 0.00267098 0.00167992)
(-0.164662 -0.0329253 0.00349394)
(-0.199897 -0.0694793 0.00695221)
(-0.241205 -0.11341 0.0113858)
(-0.288542 -0.164548 0.0141114)
(-0.33728 -0.229435 0.0142033)
(-0.381253 -0.303357 0.0100496)
(-0.412517 -0.382472 0.000652597)
(-0.414274 -0.446749 -0.0137983)
(-0.375486 -0.477254 -0.0315079)
(-0.284773 -0.436441 -0.054169)
(-0.171938 -0.305983 -0.0530684)
(-0.0492265 -0.0816258 -0.0189442)
(0.00806412 0.0424525 -0.00590655)
(-0.00473511 0.158972 -0.00636957)
(0.0461246 0.365764 -0.0212995)
(0.135562 0.465247 -0.0320589)
(0.218486 0.487506 -0.0123331)
(0.28495 0.476037 -0.00489871)
(0.326302 0.44501 0.0121638)
(0.342705 0.409763 0.0157301)
(0.337693 0.394743 0.0178414)
(0.33117 0.396705 0.0137922)
(0.311136 0.394298 0.0089296)
(0.281455 0.382481 0.00326479)
(0.243947 0.358902 -0.000665024)
(0.202871 0.327386 -0.00370722)
(0.162349 0.295694 -0.00420246)
(0.129844 0.264203 -0.00363658)
(0.103317 0.237337 -0.000422536)
(0.0703705 0.212303 -0.00691244)
(0.0480538 0.19066 -0.00819604)
(0.0327438 0.161466 -0.00602621)
(0.0111906 0.138106 -0.00344687)
(-0.00526809 0.115264 0.00246305)
(-0.0208471 0.0898386 0.00513105)
(-0.0368802 0.0709828 0.00594975)
(-0.0558426 0.0504663 0.00761302)
(-0.0772511 0.0318854 0.000607305)
(-0.100568 0.0131332 0.00331361)
(-0.122456 -0.00454434 0.00224151)
(-0.144504 -0.0347992 -0.00282693)
(-0.176112 -0.0741686 -0.00643374)
(-0.217976 -0.120119 -0.00628145)
(-0.266386 -0.166765 -0.00286481)
(-0.315834 -0.222825 0.00143111)
(-0.357929 -0.288034 0.00526351)
(-0.386035 -0.372147 0.000324786)
(-0.390035 -0.454834 -0.0144472)
(-0.365495 -0.521697 -0.040801)
(-0.302216 -0.517323 -0.0695399)
(-0.191216 -0.392186 -0.0642882)
(-0.0515207 -0.163318 -0.0391619)
(0.00996583 0.0300324 -0.00535351)
(-0.0184284 0.243356 -0.0233323)
(0.018124 0.48429 -0.0437346)
(0.107655 0.594346 -0.0522165)
(0.192604 0.634568 -0.0382392)
(0.264169 0.626352 -0.0273174)
(0.312043 0.597865 -0.0112226)
(0.351697 0.554683 -0.000787899)
(0.379297 0.528034 -0.000418965)
(0.373387 0.511779 -0.00577428)
(0.335932 0.486702 -0.00934823)
(0.290061 0.453724 -0.0106148)
(0.24063 0.412822 -0.0113909)
(0.196263 0.366366 -0.0107871)
(0.159535 0.32092 -0.00941617)
(0.128109 0.277947 -0.00733606)
(0.103072 0.238401 -0.00402191)
(0.0831717 0.20277 -0.000275346)
(0.0598416 0.17648 -0.005191)
(0.0410974 0.149614 -0.00528257)
(0.0285043 0.122231 -0.00362472)
(0.00845655 0.100052 -0.00105149)
(-0.00722907 0.0783887 0.00362923)
(-0.0215873 0.0538828 0.00496905)
(-0.0417533 0.0345289 0.00506317)
(-0.0593169 0.0153807 0.00413452)
(-0.0776317 -0.00188105 0.00815907)
(-0.100681 -0.0172387 0.00686135)
(-0.134353 -0.0379082 0.00422274)
(-0.168639 -0.0669417 0.00341279)
(-0.194296 -0.108961 0.000748499)
(-0.223023 -0.159865 -0.0042318)
(-0.255358 -0.23305 -0.0115049)
(-0.296003 -0.319753 -0.0193378)
(-0.336393 -0.435655 -0.0260086)
(-0.361786 -0.544984 -0.033661)
(-0.356735 -0.646823 -0.0521924)
(-0.287397 -0.674783 -0.0755703)
(-0.200006 -0.565807 -0.087241)
(-0.0736793 -0.282519 -0.0546255)
(0.011904 -0.00100466 -0.0073019)
(0.000147992 0.210836 0.00173067)
(0.0379941 0.453845 -0.0351237)
(0.111438 0.578896 -0.0474452)
(0.195424 0.634984 -0.0431203)
(0.26553 0.639287 -0.0347299)
(0.315483 0.619373 -0.0235857)
(0.352692 0.583282 -0.0164074)
(0.376337 0.542546 -0.00769163)
(0.371908 0.500713 -0.0089922)
(0.33634 0.4628 -0.00813878)
(0.292648 0.424593 -0.00761279)
(0.244364 0.385282 -0.00609645)
(0.200316 0.343621 -0.00495585)
(0.162927 0.30383 -0.00354224)
(0.134327 0.263461 -0.00336863)
(0.112262 0.22707 -0.00129093)
(0.0895983 0.190397 -0.000750896)
(0.0740108 0.159254 0.00154007)
(0.0555384 0.136921 0.000440787)
(0.0361414 0.111114 -0.0027863)
(0.023287 0.0895043 -0.000284675)
(0.00370621 0.0671183 0.000823602)
(-0.0108847 0.0464001 0.00775104)
(-0.0242172 0.0248357 0.00616023)
(-0.0415675 0.00828758 0.0056569)
(-0.0575023 -0.00932096 0.00870758)
(-0.0763886 -0.0261348 0.00949008)
(-0.1024 -0.0426253 0.00709961)
(-0.140716 -0.0538582 0.00374838)
(-0.182671 -0.0770282 0.00356063)
(-0.232361 -0.115019 0.00540527)
(-0.281495 -0.179092 0.00837427)
(-0.326132 -0.265049 0.0090849)
(-0.34416 -0.389516 0.00367147)
(-0.342341 -0.526072 -0.00683759)
(-0.330188 -0.669121 -0.0206841)
(-0.272233 -0.752404 -0.041488)
(-0.163768 -0.730297 -0.0606968)
(-0.0390151 -0.456154 -0.0623445)
(0.0132381 -0.0901757 0.00517115)
(0.000190489 0.227508 -0.000645557)
(0.0367857 0.445831 -0.0305075)
(0.104426 0.568876 -0.0411693)
(0.181673 0.625325 -0.0389225)
(0.250325 0.631057 -0.0245778)
(0.302317 0.609323 -0.0180784)
(0.345143 0.570932 -0.00873203)
(0.372443 0.531409 -0.00251077)
(0.369982 0.486546 -0.00225868)
(0.337293 0.449079 -0.00145083)
(0.291745 0.409956 -0.000999439)
(0.242124 0.370024 -0.00020297)
(0.200135 0.330192 7.0492e-05)
(0.16584 0.291672 0.000199285)
(0.137182 0.254125 0.000414477)
(0.114221 0.215714 0.00141132)
(0.097118 0.179204 0.00242402)
(0.0852539 0.1452 0.00368978)
(0.068726 0.118695 0.00345722)
(0.0539198 0.0970491 0.00520731)
(0.0346991 0.0777428 0.00166046)
(0.0180467 0.0571562 0.00100463)
(0.00368255 0.0380625 0.00598563)
(-0.0120499 0.0203395 0.00652845)
(-0.024114 -0.000661896 0.0065959)
(-0.0396468 -0.0173705 0.00821103)
(-0.0563006 -0.0368647 0.00940964)
(-0.0759673 -0.0573519 0.00991457)
(-0.103994 -0.0741595 0.00910526)
(-0.13687 -0.0921499 0.00712577)
(-0.177704 -0.110253 0.00716882)
(-0.219814 -0.144403 0.00710317)
(-0.27882 -0.191395 0.00840976)
(-0.330957 -0.274665 0.0106883)
(-0.361384 -0.388327 0.00927773)
(-0.369064 -0.541402 0.0053672)
(-0.330547 -0.658458 -0.00780988)
(-0.22956 -0.690517 -0.0303012)
(-0.0595089 -0.48077 -0.0448423)
(0.0263421 -0.0656193 -0.0231106)
(0.00682277 0.200517 -0.000772645)
(0.0448704 0.398544 -0.024917)
(0.105728 0.529681 -0.0340769)
(0.180008 0.591257 -0.0332518)
(0.246206 0.607534 -0.0208778)
(0.297396 0.589652 -0.0133085)
(0.342088 0.553765 -0.00401531)
(0.367235 0.510561 0.00157337)
(0.365618 0.461402 0.00231351)
(0.336502 0.419403 0.00260402)
(0.291326 0.378679 0.0033362)
(0.244792 0.341699 0.00425205)
(0.205007 0.306368 0.00431139)
(0.171759 0.271297 0.00437905)
(0.143681 0.236469 0.00380897)
(0.121865 0.201525 0.0040515)
(0.101687 0.168926 0.00463007)
(0.0931881 0.134078 0.00708467)
(0.083578 0.106987 0.00712528)
(0.0677756 0.0831768 0.00641779)
(0.0530151 0.0682362 0.00652504)
(0.0317747 0.0489863 0.00594554)
(0.019092 0.0320626 0.00440926)
(0.00408819 0.0146801 0.00396955)
(-0.0109674 -0.00262394 0.00743205)