/*--------------------------------*- C++ -*----------------------------------*\
| =========                 |                                                 |
| \\      /  F ield         | OpenFOAM: The Open Source CFD Toolbox           |
|  \\    /   O peration     | Version:  v1806                                 |
|   \\  /    A nd           | Web:      www.OpenFOAM.com                      |
|    \\/     M anipulation  |                                                 |
\*---------------------------------------------------------------------------*/
FoamFile
{
    version     2.0;
    format      ascii;
    class       volScalarField;
    location    "0.067";
    object      p;
}
// * * * * * * * * * * * * * * * * * * * * * * * * * * * * * * * * * * * * * //

dimensions      [0 2 -2 0 0 0 0];


internalField   nonuniform List<scalar> 
64000
(
5.61081e-06
-0.0992569
-0.225462
-0.299236
-0.359315
-0.403476
-0.448342
-0.487857
-0.520416
-0.564751
-0.57822
-0.63806
-0.654164
-0.701835
-0.706858
-0.75365
-0.709693
-0.789871
-0.654611
-0.887636
-0.56969
-0.848629
-0.709494
-0.810799
-0.664539
-0.639635
-0.517602
-0.460008
-0.417845
-0.399624
-0.420412
-0.438277
-0.510896
-0.541748
-0.596649
-0.601409
-0.634132
-0.628624
-0.645839
-0.640103
-0.10865
-0.20713
-0.276272
-0.31998
-0.369707
-0.406328
-0.442857
-0.480592
-0.511295
-0.550372
-0.570023
-0.605069
-0.614653
-0.635774
-0.633022
-0.654728
-0.671209
-0.739047
-0.612716
-0.793826
-0.513584
-0.76052
-0.663179
-0.74307
-0.593141
-0.570323
-0.462756
-0.420087
-0.383837
-0.375879
-0.40625
-0.402287
-0.479889
-0.506597
-0.56218
-0.571088
-0.60448
-0.609455
-0.634103
-0.634244
-0.251351
-0.2871
-0.323905
-0.337961
-0.389752
-0.411326
-0.451391
-0.477682
-0.50749
-0.541917
-0.569773
-0.612718
-0.629714
-0.692679
-0.718986
-0.777341
-0.749324
-0.827441
-0.717424
-0.929774
-0.714306
-0.994921
-0.973308
-1.0959
-0.994767
-0.999333
-0.918679
-0.87244
-0.815698
-0.747088
-0.724276
-0.672332
-0.680381
-0.634551
-0.641268
-0.624624
-0.638685
-0.635415
-0.651134
-0.651069
-0.331308
-0.340234
-0.356485
-0.381359
-0.388838
-0.419069
-0.44753
-0.482919
-0.531918
-0.573202
-0.602935
-0.669953
-0.730876
-0.800189
-0.830211
-0.883137
-0.894354
-0.996839
-0.925586
-1.16141
-0.986207
-1.2766
-1.31544
-1.4589
-1.38669
-1.40009
-1.31896
-1.26266
-1.17826
-1.08024
-0.998657
-0.884056
-0.825966
-0.755004
-0.712031
-0.676768
-0.689626
-0.667208
-0.677422
-0.676925
-0.387788
-0.380372
-0.407242
-0.394972
-0.42936
-0.442734
-0.499398
-0.521549
-0.585603
-0.646636
-0.74984
-0.871459
-0.935561
-1.01915
-1.06813
-1.14634
-1.16555
-1.26336
-1.19656
-1.43845
-1.29703
-1.58074
-1.64457
-1.79285
-1.74358
-1.75193
-1.675
-1.60111
-1.51277
-1.39309
-1.28488
-1.15272
-1.02179
-0.900902
-0.799958
-0.748028
-0.725287
-0.711045
-0.713917
-0.712947
-0.428859
-0.438113
-0.428452
-0.468948
-0.447369
-0.486464
-0.512338
-0.636028
-0.77915
-0.929337
-1.03534
-1.11267
-1.1808
-1.24644
-1.28726
-1.37269
-1.35175
-1.4906
-1.43018
-1.63997
-1.53419
-1.78592
-1.87551
-1.99361
-1.95028
-1.95027
-1.86744
-1.79932
-1.69228
-1.58518
-1.45527
-1.31912
-1.1831
-1.07779
-0.926352
-0.820219
-0.785799
-0.758137
-0.758919
-0.760208
-0.481522
-0.475276
-0.509584
-0.565764
-0.658088
-0.688961
-0.863245
-0.967605
-1.08922
-1.16959
-1.26954
-1.35927
-1.43519
-1.51295
-1.55581
-1.61688
-1.62812
-1.70604
-1.66731
-1.85396
-1.80791
-1.93817
-2.03282
-2.12259
-2.08762
-2.07911
-2.00775
-1.9405
-1.85042
-1.74156
-1.61182
-1.46529
-1.29303
-1.15848
-1.01266
-0.869771
-0.819776
-0.795089
-0.798395
-0.802854
-0.55621
-0.529565
-0.572156
-0.647185
-0.738457
-0.828269
-1.04681
-1.09816
-1.26026
-1.37003
-1.48767
-1.57828
-1.66277
-1.72464
-1.7787
-1.83456
-1.83501
-1.90429
-1.84615
-1.99466
-1.993
-2.01197
-2.1216
-2.19333
-2.17411
-2.15994
-2.09683
-2.04185
-1.9597
-1.86806
-1.74534
-1.59834
-1.4408
-1.273
-1.14808
-0.9549
-0.886396
-0.850513
-0.852304
-0.861597
-0.586579
-0.569843
-0.636001
-0.735413
-0.865123
-1.03072
-1.19213
-1.30509
-1.43482
-1.562
-1.68091
-1.77598
-1.86601
-1.93366
-1.99225
-2.04147
-2.0546
-2.08716
-2.05507
-2.08175
-2.13283
-2.08525
-2.17529
-2.23891
-2.23319
-2.22163
-2.16869
-2.12156
-2.06228
-1.97986
-1.86171
-1.7139
-1.55399
-1.36159
-1.22393
-1.04248
-0.930607
-0.900448
-0.899156
-0.914541
-0.663603
-0.645702
-0.725956
-0.842454
-1.00283
-1.18027
-1.34169
-1.45331
-1.60049
-1.70649
-1.85019
-1.93671
-2.02535
-2.08936
-2.14154
-2.18722
-2.20147
-2.21982
-2.18217
-2.1809
-2.21185
-2.1799
-2.14183
-2.2619
-2.2556
-2.26555
-2.21844
-2.19649
-2.14608
-2.06891
-1.9761
-1.83213
-1.67266
-1.49043
-1.33699
-1.15881
-1.0222
-0.977061
-0.967616
-0.987255
-0.71659
-0.706038
-0.802643
-0.938076
-1.15462
-1.30699
-1.47564
-1.60895
-1.75301
-1.87237
-1.98299
-2.06722
-2.17218
-2.21523
-2.26673
-2.29128
-2.31028
-2.31342
-2.23682
-2.27534
-2.24491
-2.19041
-2.09917
-2.26759
-2.25198
-2.30115
-2.25424
-2.26031
-2.21762
-2.16454
-2.06517
-1.9424
-1.77392
-1.57641
-1.39584
-1.24916
-1.08962
-1.03406
-1.02401
-1.04764
-0.83712
-0.826615
-0.92684
-1.10409
-1.29142
-1.45875
-1.62064
-1.7556
-1.89617
-2.0006
-2.1118
-2.18922
-2.24925
-2.31695
-2.35112
-2.37289
-2.39664
-2.38783
-2.33285
-2.33535
-2.27955
-2.19272
-1.99188
-2.19102
-2.23406
-2.29406
-2.29869
-2.30049
-2.28748
-2.23893
-2.16379
-2.02569
-1.88443
-1.70614
-1.50978
-1.35028
-1.18614
-1.12767
-1.10273
-1.13131
-0.879463
-0.876182
-1.00345
-1.17109
-1.37412
-1.54278
-1.71641
-1.8499
-1.99494
-2.10083
-2.21437
-2.27975
-2.36381
-2.37892
-2.44283
-2.43547
-2.47292
-2.44926
-2.41774
-2.37863
-2.33638
-2.12011
-1.85453
-2.03678
-2.17549
-2.28818
-2.31915
-2.35224
-2.34044
-2.31285
-2.23449
-2.15069
-1.99774
-1.83339
-1.62142
-1.45462
-1.26784
-1.19661
-1.16876
-1.19537
-1.06853
-1.06576
-1.17797
-1.344
-1.52843
-1.71145
-1.86131
-1.9896
-2.10965
-2.19992
-2.28992
-2.3465
-2.39666
-2.43647
-2.46051
-2.48882
-2.53468
-2.50169
-2.48336
-2.45331
-2.34364
-1.94204
-1.88601
-2.00231
-2.13743
-2.30324
-2.35451
-2.39552
-2.39228
-2.36639
-2.33203
-2.23474
-2.10645
-1.93707
-1.75563
-1.5671
-1.39668
-1.30009
-1.27057
-1.30575
-1.04302
-1.04818
-1.1721
-1.33511
-1.535
-1.7162
-1.87565
-1.99678
-2.12955
-2.22111
-2.33058
-2.39564
-2.47239
-2.5048
-2.53145
-2.53754
-2.56361
-2.48942
-2.55248
-2.45929
-2.11916
-1.99311
-1.94847
-2.00118
-2.08791
-2.28874
-2.36002
-2.41248
-2.44131
-2.45041
-2.40912
-2.33556
-2.21579
-2.06797
-1.87024
-1.68691
-1.50808
-1.37402
-1.33122
-1.35745
-1.316
-1.30742
-1.41139
-1.55713
-1.73194
-1.89829
-2.03735
-2.14859
-2.25597
-2.33191
-2.404
-2.42726
-2.4668
-2.48032
-2.50076
-2.51011
-2.53365
-2.56787
-2.45116
-2.21327
-2.09758
-2.04109
-2.01226
-2.00904
-2.05369
-2.19208
-2.33851
-2.41107
-2.4642
-2.46593
-2.44839
-2.39538
-2.31248
-2.18785
-2.02402
-1.84275
-1.66627
-1.57726
-1.49116
-1.53201
-1.11373
-1.13747
-1.25797
-1.41883
-1.61436
-1.8015
-1.9508
-2.05019
-2.14581
-2.22556
-2.32823
-2.41137
-2.50182
-2.55983
-2.58216
-2.54976
-2.44873
-2.30031
-2.1059
-2.07421
-2.03339
-2.02737
-2.0184
-2.01349
-2.02469
-2.09162
-2.30476
-2.40246
-2.48522
-2.52395
-2.50462
-2.45738
-2.37421
-2.2545
-2.09062
-1.91405
-1.72012
-1.59431
-1.49872
-1.53376
-1.42121
-1.41324
-1.49292
-1.61166
-1.76354
-1.90909
-2.06156
-2.17481
-2.29415
-2.38408
-2.43815
-2.38749
-2.33239
-2.24592
-2.15655
-2.03703
-1.99403
-1.9546
-1.96981
-1.96441
-1.98279
-1.99735
-2.00635
-2.01258
-2.01406
-2.06504
-2.13367
-2.29624
-2.3789
-2.44866
-2.48177
-2.49779
-2.50908
-2.45473
-2.35131
-2.17924
-2.00791
-1.88217
-1.78559
-1.80287
-0.9886
-0.998702
-1.09808
-1.22511
-1.43241
-1.59861
-1.78064
-1.8371
-1.80758
-1.77021
-1.75902
-1.78372
-1.84637
-1.91169
-1.94291
-1.97564
-1.96754
-1.94187
-1.93552
-1.92943
-1.93945
-1.95722
-1.9709
-1.99888
-2.00163
-2.04977
-2.13256
-2.24392
-2.39555
-2.47744
-2.45498
-2.39707
-2.31706
-2.21655
-2.12792
-1.99958
-1.89709
-1.72469
-1.74213
-1.75823
-1.24568
-1.17042
-1.19977
-1.24044
-1.34503
-1.43802
-1.54508
-1.66975
-1.78864
-1.87317
-1.93407
-1.94388
-1.95251
-1.95171
-1.9482
-1.92822
-1.92534
-1.91486
-1.88699
-1.89306
-1.91632
-1.92707
-1.956
-1.95955
-2.00223
-2.02886
-2.11286
-2.16224
-2.14465
-2.15131
-2.33524
-2.54189
-2.79357
-2.82545
-2.7835
-2.62583
-2.43006
-2.285
-1.96436
-1.96117
-1.06122
-1.05922
-1.1
-1.17734
-1.31744
-1.4427
-1.57797
-1.66486
-1.74521
-1.8017
-1.85128
-1.88468
-1.91176
-1.93128
-1.93682
-1.93989
-1.92526
-1.89916
-1.89625
-1.87321
-1.89107
-1.91367
-1.92993
-1.9618
-1.98921
-2.04045
-2.09489
-2.15077
-2.18851
-2.16899
-2.14022
-2.0285
-1.97247
-1.99471
-2.11933
-2.13512
-2.18301
-2.16839
-2.25743
-2.21021
-1.19728
-1.18047
-1.20399
-1.25117
-1.35606
-1.46158
-1.58331
-1.69073
-1.7865
-1.85776
-1.91093
-1.93102
-1.95006
-1.96175
-1.96125
-1.94524
-1.93216
-1.90773
-1.91454
-1.8868
-1.92089
-1.9056
-1.96059
-1.96294
-2.01744
-2.04828
-2.10962
-2.14342
-2.19684
-2.19651
-2.23465
-2.22803
-2.2587
-2.13989
-2.0144
-1.81923
-1.65889
-1.48542
-1.38253
-1.40162
-1.14991
-1.15304
-1.18304
-1.24176
-1.35463
-1.46667
-1.59303
-1.70939
-1.80043
-1.87753
-1.92359
-1.95986
-1.98687
-1.9981
-1.99744
-1.97781
-1.96763
-1.91822
-1.93441
-1.90875
-1.92646
-1.94407
-1.95837
-1.9996
-2.03344
-2.06563
-2.11177
-2.13577
-2.18065
-2.17799
-2.20673
-2.14872
-2.12697
-2.02709
-2.01475
-1.88769
-1.80815
-1.65155
-1.6178
-1.74664
-1.2114
-1.1901
-1.24545
-1.28745
-1.40233
-1.50271
-1.62666
-1.73608
-1.83103
-1.90064
-1.9562
-2.00006
-2.03081
-2.04192
-2.04532
-2.01801
-2.01315
-1.95812
-1.99316
-1.97362
-2.01352
-1.96316
-2.03986
-2.02555
-2.09346
-2.10292
-2.15323
-2.16149
-2.21177
-2.19639
-2.2513
-2.2177
-2.26382
-2.17811
-2.17433
-2.03695
-1.96783
-1.79436
-1.6516
-1.6783
-1.2178
-1.19849
-1.26175
-1.30279
-1.4165
-1.52045
-1.64678
-1.76441
-1.84698
-1.93367
-1.99531
-2.04353
-2.07768
-2.0905
-2.09839
-2.07034
-2.08691
-2.03898
-2.1184
-2.01919
-2.06399
-2.05841
-2.06562
-2.07775
-2.12412
-2.13982
-2.18745
-2.17901
-2.22339
-2.19632
-2.22836
-2.15494
-2.16996
-2.05822
-2.06976
-1.94483
-1.9317
-1.80044
-1.76581
-1.87016
-1.241
-1.20616
-1.27298
-1.31131
-1.41713
-1.52499
-1.64808
-1.73544
-1.84719
-1.91606
-1.9891
-2.04657
-2.10061
-2.12219
-2.14969
-2.13663
-2.18177
-2.14204
-2.1958
-2.05252
-2.10581
-2.07224
-2.12886
-2.10917
-2.18714
-2.17732
-2.24564
-2.22357
-2.27825
-2.22573
-2.30033
-2.24917
-2.32835
-2.21541
-2.24344
-2.06909
-2.03517
-1.85357
-1.75246
-1.70531
-1.26659
-1.24041
-1.29491
-1.34539
-1.44156
-1.54222
-1.65773
-1.77212
-1.86832
-1.95116
-2.02105
-2.07624
-2.13017
-2.15413
-2.20252
-2.17837
-2.24119
-2.17014
-2.25931
-2.08244
-2.18392
-2.1448
-2.16806
-2.17744
-2.24012
-2.23231
-2.31487
-2.33
-2.41104
-2.4423
-2.58735
-2.55191
-2.65909
-2.58123
-2.69362
-2.59484
-2.64667
-2.48036
-2.44394
-2.40674
-1.25225
-1.23229
-1.2578
-1.32409
-1.41342
-1.50705
-1.62746
-1.72412
-1.82688
-1.9084
-1.99225
-2.05521
-2.12544
-2.1597
-2.22375
-2.23785
-2.29676
-2.24977
-2.30108
-2.15485
-2.2211
-2.17085
-2.23391
-2.17411
-2.30853
-2.26267
-2.3894
-2.38032
-2.46968
-2.43995
-2.53949
-2.41994
-2.51481
-2.3679
-2.49774
-2.3418
-2.45064
-2.26133
-2.32052
-2.22613
-1.29028
-1.27756
-1.29787
-1.34519
-1.44433
-1.52778
-1.64354
-1.75532
-1.84641
-1.93098
-2.01743
-2.07999
-2.15757
-2.1908
-2.28187
-2.26282
-2.38655
-2.28053
-2.40265
-2.19776
-2.2676
-2.18379
-2.267
-2.21347
-2.30434
-2.22704
-2.40856
-2.34871
-2.52531
-2.43858
-2.57073
-2.42415
-2.53573
-2.35671
-2.47886
-2.29091
-2.372
-2.12381
-2.09257
-1.96585
-1.24033
-1.22794
-1.24622
-1.2663
-1.37533
-1.42546
-1.5582
-1.65269
-1.76912
-1.8568
-1.96037
-2.03166
-2.12292
-2.16881
-2.26254
-2.28101
-2.37005
-2.33005
-2.4101
-2.23996
-2.26715
-2.23246
-2.29215
-2.20027
-2.35107
-2.16752
-2.34438
-2.4276
-2.56755
-2.43423
-2.59281
-2.3665
-2.52769
-2.27969
-2.4699
-2.16381
-2.2936
-1.94783
-1.92586
-1.77498
-1.29451
-1.28974
-1.29939
-1.30849
-1.39693
-1.46805
-1.56975
-1.65985
-1.77253
-1.86174
-1.97389
-2.04679
-2.15654
-2.18888
-2.31592
-2.27996
-2.41985
-2.3583
-2.44341
-2.28545
-2.27293
-2.24423
-2.29728
-2.18372
-2.36436
-2.07367
-2.50597
-2.37111
-2.65079
-2.41095
-2.66799
-2.38959
-2.55804
-2.26469
-2.43816
-2.11948
-2.22169
-1.81778
-1.71651
-1.46066
-1.20787
-1.19322
-1.21857
-1.19162
-1.2644
-1.33358
-1.4393
-1.51406
-1.64386
-1.73544
-1.8689
-1.95015
-2.07814
-2.13083
-2.24027
-2.25962
-2.38674
-2.34846
-2.43971
-2.28282
-2.2093
-2.19823
-2.25146
-2.112
-2.3499
-1.97499
-2.54637
-2.38114
-2.67357
-2.39619
-2.70093
-2.36507
-2.62811
-2.20634
-2.45977
-1.95685
-2.16586
-1.6005
-1.49993
-1.05902
-1.2905
-1.29257
-1.29114
-1.29021
-1.30241
-1.36784
-1.46181
-1.51808
-1.64153
-1.72776
-1.86759
-1.95595
-2.08925
-2.13481
-2.28834
-2.28953
-2.43405
-2.40394
-2.46446
-2.34193
-2.18689
-2.18485
-2.22527
-2.06029
-2.32798
-1.89148
-2.55357
-2.41793
-2.73652
-2.39159
-2.76449
-2.37023
-2.67733
-2.24532
-2.48531
-1.94887
-2.08254
-1.45311
-1.23639
-0.589584
-1.15713
-1.13692
-1.1669
-1.11536
-1.15596
-1.14777
-1.29617
-1.31421
-1.46419
-1.5485
-1.70985
-1.79177
-1.97346
-2.04486
-2.20899
-2.23851
-2.39168
-2.37938
-2.4258
-2.31616
-2.06968
-2.07699
-2.1167
-1.93487
-2.22462
-1.78171
-2.47022
-2.44638
-2.76322
-2.45861
-2.80261
-2.33889
-2.71167
-2.14647
-2.51777
-1.7926
-2.0108
-1.03004
-0.896533
0.183377
-1.28123
-1.29547
-1.28265
-1.25254
-1.26572
-1.19598
-1.3358
-1.32866
-1.46499
-1.52332
-1.68969
-1.79726
-1.97746
-2.0588
-2.24149
-2.27722
-2.44065
-2.45003
-2.46047
-2.37889
-2.01216
-2.04841
-2.04711
-1.83605
-2.12423
-1.67588
-2.40335
-2.47473
-2.88878
-2.48375
-2.88767
-2.38741
-2.80907
-2.17509
-2.58444
-1.85441
-2.06086
-0.851746
-0.558843
1.05317
-1.1387
-1.06389
-1.12508
-1.00432
-1.0748
-0.944629
-1.11152
-1.08025
-1.2324
-1.31997
-1.51816
-1.62661
-1.85147
-1.94574
-2.16403
-2.22173
-2.39678
-2.42792
-2.43352
-2.34353
-1.87504
-1.89312
-1.86507
-1.64137
-1.92981
-1.53885
-2.29419
-2.46949
-2.92311
-2.5302
-2.97912
-2.30108
-2.84287
-2.08014
-2.48321
-1.60912
-1.88687
-0.241308
0.154595
2.80346
-1.28919
-1.36468
-1.26878
-1.24676
-1.17716
-1.0827
-1.13748
-1.10691
-1.23465
-1.30269
-1.48119
-1.5993
-1.81808
-1.93227
-2.16749
-2.25532
-2.44764
-2.5033
-2.4861
-2.3422
-1.82638
-1.78241
-1.7608
-1.44227
-1.76761
-1.40687
-2.24797
-2.42945
-3.02972
-2.60511
-3.11183
-2.43312
-2.9409
-2.12389
-2.69787
-1.60083
-2.11842
0.00570308
0.630093
4.54295
-1.52848
-1.08703
-1.209
-0.866527
-0.954536
-0.750596
-0.854101
-0.849477
-0.988792
-1.06628
-1.27624
-1.3976
-1.64876
-1.78125
-2.04429
-2.16267
-2.37536
-2.47469
-2.44901
-2.24971
-1.73004
-1.53281
-1.48735
-1.18028
-1.50913
-1.26284
-2.19775
-2.37032
-3.04478
-2.63161
-3.13593
-2.42884
-2.86328
-1.94863
-2.46003
-1.03289
-1.51304
1.1597
2.48264
9.13987
-1.36156
-1.62671
-1.43452
-1.39027
-0.990858
-0.927684
-0.860411
-0.833804
-0.952468
-1.02049
-1.19897
-1.32003
-1.56328
-1.69901
-1.9739
-2.11314
-2.37511
-2.52268
-2.59525
-2.19634
-1.75365
-1.39997
-1.32177
-0.966993
-1.33009
-1.14085
-2.18766
-2.29129
-3.15358
-2.70579
-3.24484
-2.50244
-2.98836
-2.07501
-2.6335
-1.32904
-1.74455
1.78865
3.64964
12.8267
-3.85558
-1.10605
-1.41958
-0.95619
-0.876673
-0.640972
-0.701854
-0.681093
-0.822358
-0.903035
-1.11793
-1.23685
-1.48911
-1.62834
-1.91013
-2.08172
-2.41087
-2.58647
-2.55187
-2.09671
-1.68425
-1.14334
-1.03576
-0.726692
-1.20982
-1.18158
-2.29272
-2.34958
-3.27828
-2.73388
-3.20868
-2.40334
-2.82814
-1.90607
-2.26374
-0.593283
-0.094697
5.75632
10.825
25.3798
-0.107141
-0.20416
-0.270271
-0.31885
-0.366204
-0.407713
-0.452572
-0.49257
-0.532943
-0.570562
-0.597379
-0.647011
-0.665931
-0.707272
-0.721289
-0.761355
-0.73024
-0.802138
-0.72761
-0.928427
-0.657315
-0.872201
-0.816248
-0.890181
-0.750989
-0.728561
-0.619229
-0.574422
-0.528946
-0.50364
-0.516285
-0.50355
-0.565115
-0.575893
-0.617188
-0.612707
-0.635615
-0.63173
-0.650023
-0.638823
-0.222393
-0.26866
-0.30569
-0.341071
-0.375724
-0.412164
-0.44501
-0.486109
-0.503184
-0.552025
-0.560144
-0.629281
-0.625086
-0.650528
-0.643308
-0.683337
-0.672533
-0.750974
-0.637063
-0.833185
-0.663697
-0.861143
-0.807445
-0.895494
-0.763953
-0.76409
-0.66959
-0.635142
-0.595186
-0.555831
-0.563575
-0.553904
-0.552972
-0.558784
-0.599079
-0.596475
-0.622531
-0.618472
-0.637591
-0.626083
-0.301465
-0.320162
-0.338351
-0.3429
-0.386514
-0.41073
-0.449123
-0.471866
-0.533265
-0.557846
-0.588529
-0.619673
-0.637323
-0.680616
-0.718801
-0.806335
-0.7862
-0.862131
-0.776006
-0.994307
-0.892021
-1.13521
-1.16731
-1.29861
-1.20655
-1.21987
-1.14245
-1.09981
-1.03741
-0.951173
-0.877091
-0.785485
-0.749676
-0.705538
-0.674647
-0.644454
-0.655381
-0.645712
-0.656843
-0.649829
-0.361493
-0.374997
-0.369609
-0.389829
-0.393703
-0.423223
-0.455176
-0.497671
-0.536527
-0.577462
-0.604419
-0.659943
-0.728335
-0.815088
-0.852781
-0.941913
-0.942832
-1.05101
-0.99419
-1.23746
-1.19795
-1.46993
-1.54097
-1.68128
-1.59953
-1.60836
-1.51846
-1.44796
-1.3539
-1.23042
-1.12371
-0.976191
-0.878795
-0.781835
-0.74264
-0.696018
-0.706703
-0.679195
-0.685241
-0.6782
-0.408048
-0.410096
-0.407269
-0.405199
-0.441873
-0.439074
-0.497183
-0.530773
-0.59851
-0.659351
-0.765492
-0.886824
-0.964179
-1.03832
-1.09399
-1.19465
-1.20887
-1.32037
-1.29816
-1.50593
-1.46216
-1.73046
-1.82179
-1.94457
-1.87045
-1.87236
-1.78989
-1.72078
-1.60394
-1.46027
-1.32424
-1.1823
-1.04411
-0.908883
-0.805748
-0.757975
-0.738479
-0.719577
-0.717587
-0.715948
-0.4355
-0.436208
-0.452594
-0.481147
-0.445121
-0.492381
-0.521747
-0.633418
-0.795136
-0.94092
-1.04584
-1.12615
-1.19832
-1.27021
-1.31858
-1.41806
-1.42374
-1.53494
-1.49047
-1.6853
-1.66735
-1.9029
-2.01089
-2.12026
-2.0635
-2.03937
-1.95136
-1.85264
-1.76642
-1.61905
-1.48347
-1.32841
-1.19142
-1.07467
-0.92561
-0.840501
-0.806109
-0.77615
-0.768323
-0.769165
-0.518182
-0.503564
-0.539754
-0.572696
-0.627874
-0.64626
-0.811187
-0.983724
-1.09086
-1.17795
-1.2813
-1.37393
-1.45518
-1.52975
-1.59047
-1.64836
-1.66851
-1.74302
-1.7148
-1.85408
-1.86067
-2.01788
-2.1028
-2.19885
-2.14485
-2.12444
-2.04872
-1.96976
-1.85723
-1.73609
-1.59606
-1.43593
-1.27769
-1.14035
-1.01263
-0.882836
-0.832659
-0.807909
-0.801598
-0.807797
-0.549723
-0.557216
-0.608466
-0.670532
-0.74881
-0.812963
-1.04381
-1.11845
-1.26853
-1.38153
-1.49129
-1.59415
-1.67476
-1.7541
-1.802
-1.85336
-1.85444
-1.9065
-1.87704
-1.95745
-1.98256
-2.04387
-2.13855
-2.23439
-2.21045
-2.19027
-2.13703
-2.05822
-1.97907
-1.84461
-1.71733
-1.57439
-1.4179
-1.26221
-1.12938
-0.983918
-0.911355
-0.878483
-0.866511
-0.873818
-0.607683
-0.62189
-0.675126
-0.768158
-0.878124
-1.00742
-1.19114
-1.3147
-1.45334
-1.57032
-1.68937
-1.78211
-1.87576
-1.95449
-2.01056
-2.04995
-2.05489
-2.06983
-2.03907
-2.05077
-2.0778
-2.07528
-2.18818
-2.25072
-2.25961
-2.24476
-2.20397
-2.14101
-2.04583
-1.94129
-1.8209
-1.68428
-1.53663
-1.32398
-1.19828
-1.02666
-0.951035
-0.909899
-0.908705
-0.919164
-0.685989
-0.694572
-0.782772
-0.892022
-1.01021
-1.15436
-1.34663
-1.44695
-1.60199
-1.73237
-1.83973
-1.94869
-2.0314
-2.10936
-2.17136
-2.20999
-2.21507
-2.21116
-2.16803
-2.14791
-2.14685
-2.13186
-2.14357
-2.27083
-2.28138
-2.29613
-2.27195
-2.19941
-2.14618
-2.03495
-1.95249
-1.85128
-1.70516
-1.55148
-1.34045
-1.15771
-1.03599
-1.00364
-0.981911
-0.997579
-0.743386
-0.757107
-0.851471
-0.969378
-1.19221
-1.29086
-1.47285
-1.59689
-1.74267
-1.88814
-1.99659
-2.09078
-2.17748
-2.22917
-2.3073
-2.33665
-2.34978
-2.33139
-2.27814
-2.2351
-2.18975
-2.13281
-2.09481
-2.26752
-2.28351
-2.3289
-2.30392
-2.27905
-2.1955
-2.15558
-2.08393
-1.92682
-1.77471
-1.56854
-1.41905
-1.22613
-1.07916
-1.051
-1.03378
-1.05114
-0.864566
-0.878677
-0.982038
-1.15558
-1.32679
-1.46316
-1.60739
-1.74993
-1.88784
-1.98995
-2.12055
-2.20303
-2.2703
-2.32512
-2.39156
-2.43171
-2.44712
-2.42659
-2.38149
-2.32479
-2.23487
-2.11136
-1.95531
-2.15017
-2.25477
-2.32823
-2.35585
-2.30058
-2.31125
-2.27067
-2.1451
-2.07036
-1.9262
-1.78841
-1.5968
-1.41152
-1.1673
-1.12559
-1.11335
-1.13633
-0.919869
-0.938642
-1.06962
-1.23808
-1.4256
-1.56451
-1.7289
-1.82886
-1.99708
-2.09836
-2.22092
-2.27662
-2.39637
-2.39933
-2.47645
-2.49967
-2.52653
-2.50254
-2.47428
-2.39769
-2.28451
-2.00578
-1.80758
-1.97677
-2.18539
-2.31999
-2.34936
-2.41092
-2.4082
-2.32596
-2.31926
-2.18396
-2.03329
-1.82322
-1.64022
-1.48668
-1.31821
-1.16137
-1.18462
-1.19735
-1.10799
-1.1256
-1.25051
-1.41221
-1.58875
-1.73833
-1.8853
-1.99942
-2.11189
-2.19146
-2.30526
-2.37231
-2.4126
-2.49813
-2.53378
-2.56062
-2.58931
-2.56654
-2.54428
-2.4713
-2.24647
-1.86645
-1.7738
-1.91566
-2.11235
-2.32684
-2.38991
-2.4684
-2.43448
-2.47262
-2.3686
-2.27321
-2.12217
-1.96145
-1.73154
-1.57375
-1.42471
-1.29717
-1.25071
-1.31568
-1.10026
-1.1194
-1.24842
-1.41094
-1.60066
-1.76166
-1.93091
-2.03758
-2.16589
-2.25494
-2.36805
-2.42481
-2.53671
-2.59131
-2.60247
-2.60631
-2.61947
-2.58907
-2.58458
-2.41419
-2.0747
-1.88699
-1.80529
-1.87995
-2.02981
-2.27856
-2.40432
-2.44902
-2.52366
-2.48253
-2.44839
-2.36087
-2.2402
-2.07099
-1.86481
-1.65657
-1.50234
-1.4319
-1.28539
-1.36886
-1.33443
-1.34634
-1.46931
-1.61657
-1.79556
-1.95202
-2.08465
-2.1973
-2.31432
-2.39511
-2.47547
-2.49973
-2.53301
-2.5425
-2.58028
-2.58727
-2.61204
-2.58927
-2.42519
-2.18714
-2.02705
-1.92317
-1.85912
-1.86883
-1.96743
-2.11905
-2.37138
-2.48192
-2.51748
-2.52583
-2.49133
-2.43682
-2.33923
-2.20397
-2.0128
-1.82648
-1.64582
-1.57903
-1.46393
-1.52242
-1.19852
-1.23136
-1.35373
-1.52806
-1.71834
-1.85629
-2.02441
-2.12586
-2.2271
-2.30752
-2.4019
-2.46666
-2.5384
-2.5881
-2.57077
-2.58218
-2.45691
-2.28759
-2.11275
-2.02743
-1.97258
-1.92332
-1.88905
-1.87361
-1.95766
-2.09792
-2.3586
-2.47944
-2.54747
-2.56648
-2.55314
-2.5061
-2.42955
-2.30212
-2.12522
-1.92855
-1.73859
-1.59095
-1.52247
-1.49892
-1.4223
-1.42823
-1.52693
-1.66197
-1.83106
-1.96939
-2.11456
-2.21195
-2.32451
-2.3949
-2.43775
-2.39357
-2.3352
-2.25408
-2.15798
-2.08876
-1.99291
-1.97212
-1.95491
-1.94036
-1.93713
-1.91343
-1.90926
-1.89776
-1.93093
-2.04184
-2.1137
-2.32696
-2.46223
-2.53676
-2.5645
-2.55846
-2.54488
-2.47726
-2.35262
-2.18411
-1.97743
-1.85537
-1.80873
-1.79268
-1.07444
-1.12104
-1.20547
-1.37061
-1.49995
-1.69337
-1.83321
-1.89722
-1.87618
-1.84458
-1.83509
-1.84317
-1.87931
-1.92048
-1.9316
-1.96287
-1.93614
-1.89429
-1.90145
-1.89325
-1.90014
-1.89036
-1.89749
-1.91196
-1.91336
-2.00609
-2.07653
-2.15592
-2.28341
-2.41735
-2.48603
-2.49275
-2.4895
-2.39753
-2.29425
-2.17007
-1.95044
-1.78986
-1.74528
-1.76062
-1.18499
-1.16896
-1.21069
-1.2832
-1.37425
-1.4875
-1.61087
-1.69247
-1.78163
-1.84139
-1.8907
-1.89431
-1.8962
-1.89967
-1.89699
-1.89286
-1.89428
-1.86701
-1.85828
-1.85262
-1.8816
-1.8673
-1.91271
-1.89769
-1.94699
-2.00066
-2.0666
-2.114
-2.13569
-2.13552
-2.23984
-2.39234
-2.61218
-2.70698
-2.69413
-2.54806
-2.33667
-2.15314
-1.97984
-1.81856
-1.11651
-1.06917
-1.10056
-1.17613
-1.27014
-1.40463
-1.51444
-1.63076
-1.69578
-1.75506
-1.80309
-1.84134
-1.87111
-1.89134
-1.89922
-1.90871
-1.88903
-1.87469
-1.85893
-1.84031
-1.85441
-1.86391
-1.90838
-1.91845
-1.94754
-2.00414
-2.06316
-2.10487
-2.12348
-2.10983
-2.11119
-2.04683
-2.01583
-1.99471
-2.09259
-2.08124
-2.06051
-2.05531
-2.12321
-2.446
-1.20164
-1.15729
-1.18495
-1.23508
-1.34327
-1.43677
-1.55167
-1.66975
-1.75967
-1.82936
-1.87967
-1.90101
-1.91836
-1.93132
-1.93412
-1.91845
-1.89589
-1.86327
-1.86215
-1.83906
-1.87719
-1.85308
-1.90937
-1.92221
-1.98686
-2.02023
-2.08395
-2.11722
-2.16216
-2.14381
-2.17397
-2.15364
-2.17982
-2.09026
-1.99469
-1.83178
-1.68916
-1.52464
-1.39289
-1.37517
-1.15849
-1.1392
-1.1767
-1.23558
-1.35302
-1.45478
-1.5802
-1.70086
-1.78575
-1.85499
-1.89807
-1.93305
-1.96064
-1.97481
-1.97212
-1.94509
-1.92174
-1.8778
-1.88944
-1.86604
-1.89359
-1.90852
-1.93621
-1.95667
-2.00317
-2.04133
-2.08228
-2.10953
-2.15039
-2.14362
-2.16445
-2.09234
-2.07873
-1.96399
-1.94282
-1.81902
-1.72962
-1.58001
-1.46864
-1.646
-1.20842
-1.19366
-1.23396
-1.28481
-1.39661
-1.50051
-1.62507
-1.74043
-1.83075
-1.89588
-1.94501
-1.98529
-2.01468
-2.02547
-2.02032
-1.98774
-1.971
-1.91648
-1.94596
-1.92798
-1.96806
-1.93613
-2.01176
-1.99328
-2.07264
-2.06773
-2.13412
-2.13228
-2.18594
-2.16533
-2.21899
-2.17259
-2.21338
-2.12489
-2.13054
-2.00277
-1.93494
-1.74282
-1.59844
-1.64812
-1.22063
-1.20794
-1.25527
-1.30859
-1.42008
-1.53722
-1.65143
-1.77025
-1.85973
-1.93443
-1.99227
-2.04019
-2.07411
-2.08275
-2.08355
-2.04871
-2.05859
-2.01222
-2.08554
-2.00356
-2.02575
-2.01018
-2.03955
-2.06347
-2.09408
-2.13315
-2.13921
-2.16002
-2.19101
-2.15543
-2.18142
-2.09951
-2.11701
-1.99557
-2.01121
-1.88533
-1.87128
-1.72166
-1.66289
-1.77646
-1.23372
-1.21234
-1.26503
-1.31806
-1.42724
-1.53264
-1.65235
-1.76606
-1.86735
-1.94513
-2.01469
-2.06829
-2.11155
-2.12509
-2.14284
-2.13238
-2.18375
-2.16731
-2.21737
-2.07323
-2.08438
-2.04312
-2.12104
-2.09714
-2.18018
-2.14062
-2.2316
-2.18627
-2.25253
-2.19087
-2.27238
-2.20364
-2.28811
-2.17283
-2.22253
-2.05867
-2.03438
-1.84513
-1.74407
-1.68529
-1.27112
-1.24915
-1.28516
-1.34499
-1.44215
-1.54873
-1.67151
-1.79217
-1.89423
-1.98024
-2.05691
-2.11613
-2.16598
-2.18195
-2.22004
-2.22671
-2.31861
-2.26422
-2.31418
-2.10874
-2.14402
-2.08942
-2.15016
-2.16322
-2.23055
-2.22467
-2.28026
-2.29383
-2.39659
-2.40263
-2.5327
-2.49231
-2.61144
-2.51754
-2.63408
-2.51631
-2.57864
-2.43024
-2.34303
-2.3453
-1.2513
-1.23752
-1.26155
-1.31802
-1.41376
-1.5033
-1.62229
-1.73836
-1.84635
-1.93902
-2.03154
-2.10361
-2.17309
-2.20064
-2.25533
-2.25561
-2.33134
-2.26701
-2.32041
-2.15453
-2.18026
-2.15301
-2.224
-2.1714
-2.29672
-2.24399
-2.39705
-2.32215
-2.47719
-2.38641
-2.55476
-2.42917
-2.55649
-2.40192
-2.54771
-2.38298
-2.49709
-2.30717
-2.23485
-2.20342
-1.29252
-1.28265
-1.30297
-1.33945
-1.44536
-1.52491
-1.64719
-1.7329
-1.84272
-1.92959
-2.02973
-2.11048
-2.20155
-2.23591
-2.31338
-2.30301
-2.40448
-2.3242
-2.40952
-2.18551
-2.25566
-2.14021
-2.25712
-2.17712
-2.29471
-2.20639
-2.36344
-2.3222
-2.58498
-2.40776
-2.57093
-2.43251
-2.58012
-2.39458
-2.54149
-2.34208
-2.44797
-2.16817
-2.14793
-1.98874
-1.24238
-1.2296
-1.2533
-1.26077
-1.37217
-1.43591
-1.55911
-1.66035
-1.7592
-1.84893
-1.95256
-2.03582
-2.14541
-2.19774
-2.28877
-2.2907
-2.39429
-2.34798
-2.42761
-2.2628
-2.25728
-2.21492
-2.27298
-2.16118
-2.30873
-2.13302
-2.36439
-2.41181
-2.61234
-2.42363
-2.62621
-2.37275
-2.54808
-2.32326
-2.53711
-2.22417
-2.4106
-2.01742
-1.98968
-1.7327
-1.29783
-1.29172
-1.30722
-1.31335
-1.39215
-1.47042
-1.5731
-1.66268
-1.78202
-1.85905
-1.96931
-2.04447
-2.15796
-2.20716
-2.32513
-2.31831
-2.43214
-2.38784
-2.44944
-2.30182
-2.26539
-2.20431
-2.27596
-2.13208
-2.30872
-2.05256
-2.47529
-2.4141
-2.66471
-2.42904
-2.63955
-2.41793
-2.60423
-2.28993
-2.51618
-2.2134
-2.38523
-1.95671
-1.87491
-1.51592
-1.20981
-1.19177
-1.21987
-1.19918
-1.26289
-1.33309
-1.43991
-1.51465
-1.64708
-1.74349
-1.86748
-1.95384
-2.08352
-2.13774
-2.26456
-2.27785
-2.40229
-2.36114
-2.45167
-2.29993
-2.1942
-2.15268
-2.22415
-2.05902
-2.28113
-1.96803
-2.5105
-2.43496
-2.70061
-2.42224
-2.67936
-2.37261
-2.63663
-2.29684
-2.53827
-2.06117
-2.40279
-1.81081
-1.80394
-1.24551
-1.29288
-1.29013
-1.29225
-1.29553
-1.30661
-1.3657
-1.46136
-1.52048
-1.64729
-1.73578
-1.87851
-1.9632
-2.11152
-2.17215
-2.31834
-2.32404
-2.46008
-2.43835
-2.48147
-2.35139
-2.19734
-2.12808
-2.19575
-2.00894
-2.24988
-1.89773
-2.50481
-2.45062
-2.81064
-2.43905
-2.75863
-2.34922
-2.72635
-2.25538
-2.62918
-2.09374
-2.35394
-1.79077
-1.7735
-0.966297
-1.15816
-1.13245
-1.1771
-1.10093
-1.16853
-1.13924
-1.29574
-1.31462
-1.46806
-1.55314
-1.72509
-1.8191
-1.99503
-2.04055
-2.22418
-2.25606
-2.40967
-2.41898
-2.46378
-2.32772
-2.08969
-2.01708
-2.08068
-1.88403
-2.13927
-1.78597
-2.43013
-2.46277
-2.8619
-2.48787
-2.80492
-2.34424
-2.7175
-2.18952
-2.60062
-1.99829
-2.39433
-1.45069
-1.68112
-0.420874
-1.28324
-1.29899
-1.28999
-1.27047
-1.24307
-1.21315
-1.33212
-1.34008
-1.47513
-1.54994
-1.71983
-1.82453
-1.99129
-2.08278
-2.27299
-2.30159
-2.48894
-2.50557
-2.51232
-2.41416
-2.0424
-1.95389
-2.00903
-1.78532
-2.04172
-1.70264
-2.36547
-2.45575
-2.95021
-2.53757
-2.95127
-2.38705
-2.8371
-2.20999
-2.68089
-1.9915
-2.48596
-1.54079
-1.47273
0.177172
-1.12599
-1.07325
-1.13806
-1.00811
-1.10216
-0.933834
-1.12252
-1.10138
-1.27129
-1.34842
-1.54935
-1.64058
-1.87784
-1.97252
-2.20571
-2.2663
-2.46938
-2.49267
-2.51986
-2.3563
-2.0024
-1.80065
-1.83402
-1.58038
-1.85073
-1.53583
-2.27574
-2.42049
-2.99947
-2.57802
-3.04432
-2.36921
-2.86037
-2.10056
-2.64009
-1.7209
-2.3138
-0.985247
-1.24396
1.78075
-1.27532
-1.37545
-1.29174
-1.27827
-1.20676
-1.10936
-1.1615
-1.15795
-1.27947
-1.35432
-1.52208
-1.65117
-1.86767
-1.98152
-2.22363
-2.30942
-2.53447
-2.59664
-2.60723
-2.43115
-1.96098
-1.72599
-1.73106
-1.42521
-1.6804
-1.40731
-2.22435
-2.37267
-3.0853
-2.64868
-3.17304
-2.50079
-2.9962
-2.20279
-2.80689
-1.78342
-2.44751
-0.694494
-0.969015
3.54643
-1.44672
-1.05309
-1.20785
-0.89731
-0.975792
-0.797222
-0.889891
-0.884933
-1.04217
-1.12006
-1.34503
-1.4635
-1.72235
-1.86359
-2.13946
-2.28533
-2.4929
-2.62863
-2.63979
-2.33443
-1.8582
-1.52479
-1.50767
-1.14022
-1.48604
-1.23908
-2.17622
-2.29588
-3.11478
-2.69615
-3.25875
-2.49688
-2.97128
-2.0834
-2.62673
-1.36057
-1.84715
0.43363
1.29355
8.70782
-1.11653
-1.56754
-1.45742
-1.44937
-1.17563
-0.958185
-0.953158
-0.912545
-1.01572
-1.08414
-1.27369
-1.41576
-1.67173
-1.80827
-2.11238
-2.2663
-2.56841
-2.7576
-2.80879
-2.42017
-1.97746
-1.48208
-1.35179
-0.947682
-1.30552
-1.09639
-2.14949
-2.23285
-3.1936
-2.74574
-3.27401
-2.52726
-3.0193
-2.0866
-2.67379
-1.41025
-1.84233
1.4478
3.82734
15.1662
-3.68314
-0.965789
-1.2752
-0.869351
-0.835606
-0.65846
-0.712541
-0.697603
-0.851015
-0.940072
-1.15248
-1.26933
-1.53509
-1.71345
-2.0331
-2.26142
-2.60296
-2.79723
-2.82362
-2.24659
-1.81434
-1.19845
-1.04848
-0.681279
-1.15176
-1.10301
-2.21136
-2.32206
-3.34087
-2.82501
-3.30566
-2.45164
-2.84499
-1.8822
-2.24651
-0.50776
0.123042
6.03434
13.7696
31.8874
-0.237255
-0.268524
-0.299209
-0.329434
-0.373016
-0.409309
-0.453274
-0.491887
-0.524938
-0.571692
-0.604212
-0.652472
-0.673297
-0.727799
-0.729299
-0.78395
-0.772999
-0.839446
-0.710967
-0.91544