/*--------------------------------*- C++ -*----------------------------------*\
| =========                 |                                                 |
| \\      /  F ield         | OpenFOAM: The Open Source CFD Toolbox           |
|  \\    /   O peration     | Version:  v1806                                 |
|   \\  /    A nd           | Web:      www.OpenFOAM.com                      |
|    \\/     M anipulation  |                                                 |
\*---------------------------------------------------------------------------*/
FoamFile
{
    version     2.0;
    format      ascii;
    class       surfaceScalarField;
    location    "0.067";
    object      phi;
}
// * * * * * * * * * * * * * * * * * * * * * * * * * * * * * * * * * * * * * //

dimensions      [0 3 -1 0 0 0 0];
oriented        oriented;


internalField   nonuniform List<scalar> 
187200
(
6.94598e-06
2.29021e-06
-9.23771e-06
4.70049e-05
-1.97135e-05
-2.03453e-05
6.84942e-05
-9.30922e-06
-1.21799e-05
8.8278e-05
-9.7645e-06
-1.00192e-05
0.000104667
-6.16224e-06
-1.02268e-05
0.000121999
-5.09376e-06
-1.22381e-05
0.000137273
-7.71283e-07
-1.45029e-05
0.000153683
4.65725e-07
-1.68754e-05
0.000167003
4.78063e-06
-1.81003e-05
0.000179005
5.91585e-06
-1.79172e-05
0.0001903
7.68687e-06
-1.89827e-05
0.000196494
1.31559e-05
-1.93503e-05
0.000186812
2.16518e-05
-1.19696e-05
0.000157479
3.67314e-05
-7.39882e-06
0.000112087
4.39483e-05
1.44338e-06
7.16202e-05
2.95366e-05
1.093e-05
1.642e-05
3.15203e-05
2.36796e-05
-3.77474e-05
4.69183e-05
7.24872e-06
-0.00013679
9.97553e-05
-7.13328e-07
-0.000264214
0.000134261
-6.83727e-06
-0.000504532
0.000220368
1.99492e-05
-0.000683751
0.000232623
-5.34029e-05
-0.000803975
0.000278938
-0.000158715
-0.000843852
0.000306768
-0.000266891
-0.000824464
0.00033821
-0.000357598
-0.000754643
0.00036763
-0.000437451
-0.000643613
0.00039152
-0.00050255
-0.000507693
0.000408254
-0.000544174
-0.00034047
0.000397996
-0.000565219
-0.0001789
0.000384209
-0.000545778
-4.73833e-05
0.000340694
-0.000472211
3.58473e-05
0.000298713
-0.000381944
6.75172e-05
0.000234546
-0.000266216
5.97501e-05
0.000174549
-0.000166782
3.4543e-05
0.000120728
-9.55213e-05
1.28125e-05
8.08229e-05
-5.90928e-05
-3.46205e-07
5.52415e-05
-4.2083e-05
-6.09794e-06
4.27921e-05
-3.70402e-05
-7.35806e-06
3.28357e-05
-3.15755e-05
2.26419e-05
-2.99999e-05
5.3225e-06
1.34764e-05
-1.65086e-05
4.43972e-05
-3.03492e-05
-2.84386e-05
8.53211e-05
-2.43689e-05
-2.58641e-05
0.000115863
-1.4747e-05
-2.5559e-05
0.000137536
-2.91649e-06
-2.49193e-05
0.00015444
7.27376e-06
-2.92712e-05
0.000161871
2.72686e-05
-3.54705e-05
0.00016521
3.8621e-05
-4.14934e-05
0.000158494
6.32245e-05
-5.17281e-05
0.000140715
8.25415e-05
-5.88471e-05
9.84412e-05
0.000125102
-7.51419e-05
3.58444e-05
0.000166658
-9.09058e-05
-4.87306e-05
0.000203749
-9.75221e-05
-0.000149733
0.000245597
-0.000107864
-0.00027429
0.000299917
-0.000131411
-0.000457951
0.000376208
-0.000163011
-0.00063868
0.000451974
-0.000239725
-0.000830072
0.000536278
-0.000297968
-0.000998688
0.000636286
-0.000367915
-0.00115298
0.000732613
-0.000444061
-0.00129817
0.00085825
-0.000492691
-0.00139244
0.000933869
-0.000606973
-0.00144188
0.00103961
-0.000711243
-0.00142773
0.00108809
-0.000795471
-0.00134295
0.00113334
-0.000879917
-0.00119873
0.00115923
-0.000935811
-0.00100539
0.00116441
-0.000966231
-0.000777866
0.00114328
-0.000962549
-0.000541788
0.00108289
-0.000920971
-0.000315679
0.0010054
-0.000847301
-0.000123055
0.000876037
-0.000727967
3.62073e-05
0.000735396
-0.000595945
0.000119762
0.0005828
-0.000431809
0.000145271
0.000455456
-0.000306415
0.00013158
0.000335789
-0.000201371
0.000101634
0.000248918
-0.000138148
6.88075e-05
0.000186503
-9.84355e-05
4.28178e-05
0.000146288
-7.75057e-05
1.66842e-05
0.00011661
-5.76409e-05
8.03275e-05
-4.10016e-05
1.90893e-05
6.61234e-06
-1.2225e-05
5.68662e-05
-3.45005e-05
-3.36253e-05
9.7818e-05
-2.54169e-05
-3.99037e-05
0.000126613
-2.55389e-06
-4.09881e-05
0.000142748
2.84669e-05
-4.75179e-05
0.000147992
5.8654e-05
-5.66239e-05
0.000139804
0.000100916
-6.54599e-05
0.000123337
0.000138123
-8.30354e-05
9.44676e-05
0.000200454
-0.000108361
3.76947e-05
0.000268216
-0.000128902
-4.63297e-05
0.000351316
-0.00014219
-0.000148781
0.000433121
-0.000164011
-0.000303552
0.00053753
-0.000179011
-0.000482734
0.000646006
-0.000221226
-0.000684347
0.000755146
-0.000253617
-0.000870206
0.000866747
-0.000304681
-0.0010339
0.000973832
-0.000358161
-0.00118147
0.00109641
-0.000412563
-0.00131648
0.00123577
-0.000464474
-0.00144282
0.00137742
-0.000518468
-0.00155812
0.00151452
-0.000540973
-0.00162258
0.0015965
-0.00059817
-0.0016356
0.00170331
-0.000650676
-0.0015989
0.00172977
-0.000678378
-0.00150343
0.00175211
-0.000714228
-0.0013635
0.00174315
-0.000723865
-0.00118725
0.00170195
-0.00071379
-0.000986556
0.00162443
-0.000681845
-0.00077556
0.00150644
-0.000634543
-0.000555843
0.00135933
-0.000573649
-0.00037135
0.00118513
-0.000493591
-0.000211403
0.00100323
-0.000427779
-9.48856e-05
0.000803964
-0.000337681
-1.25508e-05
0.000642338
-0.000269217
2.73078e-05
0.000493936
-0.000198005
4.21214e-05
0.000386003
-0.000151898
4.29125e-05
0.000306493
-0.00012078
3.38413e-05
0.00025486
-9.95013e-05
1.53609e-05
0.000205574
-7.0483e-05
0.000136541
-4.08524e-05
2.04842e-05
3.51718e-06
-1.73888e-05
5.83692e-05
-2.60493e-05
-4.63359e-05
9.85075e-05
-7.10604e-06
-5.84489e-05
0.000121129
4.03482e-05
-6.55236e-05
0.000125169
9.64327e-05
-7.20055e-05
0.000113991
0.000155165
-8.53338e-05
9.33355e-05
0.000232134
-0.000110562
5.52094e-05
0.000312258
-0.000136009
-3.06037e-07
0.000424083
-0.000168113
-8.14418e-05
0.000536795
-0.000187444
-0.000196861
0.000669462
-0.000202727
-0.000345326
0.000800705
-0.00021912
-0.000508075
0.000931778
-0.000231499
-0.000664753
0.00105008
-0.000247397
-0.000817284
0.00117684
-0.000269167
-0.00096011
0.00130469
-0.000295114
-0.00109301
0.0014279
-0.000321173
-0.00121111
0.00155076
-0.000336256
-0.00131724
0.00168466
-0.000342762
-0.00141534
0.00181009
-0.00033456
-0.0015193
0.00190925
-0.00029077
-0.00157877
0.00194749
-0.000291523
-0.00159052
0.00200995
-0.000294892
-0.00156473
0.00198361
-0.000279634
-0.00149072
0.00195923
-0.000281122
-0.00138802
0.00190683
-0.000266385
-0.00126177
0.00182418
-0.000248474
-0.00112015
0.00171153
-0.000228714
-0.000966764
0.00156191
-0.000208861
-0.000801059
0.00139783
-0.000204202
-0.000623723
0.00121109
-0.000203293
-0.000449873
0.00103004
-0.000200666
-0.000297365
0.000848056
-0.0001966
-0.000173727
0.000707154
-0.000188454
-8.84504e-05
0.000577152
-0.000168492
-2.98475e-05
0.000475948
-0.000148547
6.59711e-06
0.000403475
-0.000133427
2.01549e-05
0.000350079
-0.000108776
1.66528e-05
0.000286304
-7.72284e-05
0.00019138
-3.81861e-05
2.05922e-05
1.88687e-05
-3.59437e-05
6.00082e-05
1.06209e-05
-7.60862e-05
0.000102211
4.15909e-05
-9.08993e-05
0.000120506
0.000120789
-9.87366e-05
0.000116779
0.000205132
-0.000104973
8.81448e-05
0.000304032
-0.000120233
4.88826e-05
0.000422335
-0.000150939
9.5719e-06
0.00053469
-0.000183122
-3.77794e-05
0.00068013
-0.000208696
-0.000115443
0.00083144
-0.000216982
-0.000213537
0.00098536
-0.000217804
-0.000323185
0.00112432
-0.000213969
-0.000453455
0.00126675
-0.000204703
-0.000593793
0.00139479
-0.000204368
-0.00073264
0.00151386
-0.000198171
-0.00085409
0.00161872
-0.000192583
-0.000956858
0.00170724
-0.000176563
-0.00103682
0.00177583
-0.000145115
-0.00112679
0.00185894
-8.43111e-05
-0.00121647
0.00192583
-2.60628e-05
-0.00133838
0.00196839
6.27733e-05
-0.00140439
0.00192063
9.28706e-05
-0.00143376
0.00193612
0.000103203
-0.00143953
0.00187807
0.000111314
-0.00141007
0.00183384
9.59302e-05
-0.00136439
0.00177303
8.81244e-05
-0.00130038
0.00168492
7.52476e-05
-0.00123021
0.00158062
6.07435e-05
-0.00113561
0.00144572
2.15837e-05
-0.00101684
0.00130245
-2.33947e-05
-0.000871657
0.00113993
-7.40261e-05
-0.000707582
0.000990256
-0.000124287
-0.000543825
0.000837654
-0.000153356
-0.000384736
0.000720862
-0.000172797
-0.000248854
0.000621645
-0.000180374
-0.000136488
0.000528725
-0.000165144
-5.54482e-05
0.00046934
-0.000146905
-5.4584e-06
0.000421583
-0.000121495
9.28811e-06
0.000352823
-8.12655e-05
0.000235085
-3.44173e-05
1.50216e-05
6.57073e-05
-6.18603e-05
6.127e-05
7.881e-05
-0.000114438
0.000108481
0.00013354
-0.000139161
0.000127743
0.000238904
-0.000137376
0.000120615
0.00035244
-0.000140181
8.38511e-05
0.000490058
-0.000149262
5.93066e-05
0.000633909
-0.00018703
2.23382e-05
0.000785911
-0.000214253
-2.67812e-05
0.00095286
-0.000223611
-9.19895e-05
0.00110633
-0.000209686
-0.000165477
0.00125018
-0.000191332
-0.000250405
0.00137769
-0.000168443
-0.000338301
0.00149585
-0.000141204
-0.000422287
0.00159032
-0.000111551
-0.00050369
0.00167378
-7.85202e-05
-0.00057552
0.00173004
-3.94898e-05
-0.000671364
0.001772
3.10835e-05
-0.000773978
0.00178699
9.14611e-05
-0.000869768
0.0017907
0.000164024
-0.00095757
0.00177424
0.000239394
-0.00108373
0.00179639
0.000298161
-0.00117923
0.00170101
0.000315125
-0.00124377
0.00168669
0.000313968
-0.00129451
0.00161515
0.000313651
-0.00131718
0.00156221
0.000294296
-0.00132815
0.00150606
0.000277943
-0.00132535
0.00143524
0.000246875
-0.00131282
0.00135806
0.000210031
-0.00127658
0.0012583
0.000151172
-0.00119402
0.00115686
6.3032e-05
-0.00108147
0.00103906
-1.16719e-05
-0.000922431
0.000926234
-9.50135e-05
-0.00074747
0.000815202
-0.000152508
-0.000558516
0.000719193
-0.000187284
-0.000382043
0.000649676
-0.000204504
-0.000232159
0.000568842
-0.000190002
-0.000111034
0.000519885
-0.00017167
-3.16978e-05
0.000477637
-0.00013539
5.61585e-06
0.000403906
-8.83965e-05
0.000273795
-3.3095e-05
1.74863e-05
0.000143708
-9.54872e-05
8.45713e-05
0.000181525
-0.0001698
0.000133351
0.000268582
-0.000183821
0.000154251
0.000391362
-0.000173358
0.000145877
0.00052682
-0.000166006
0.000106954
0.000700122
-0.00017114
9.46205e-05
0.00085033
-0.000204088
7.27671e-05
0.00102121
-0.000213442
5.2332e-05
0.00117174
-0.000198442
9.33007e-06
0.00131435
-0.000165014
-4.76288e-05
0.00143822
-0.000131081
-0.000116009
0.00154014
-9.40689e-05
-0.000186526
0.00162246
-5.60964e-05
-0.00025934
0.00167372
-1.05842e-05
-0.000329387
0.00170145
4.23786e-05
-0.0003928
0.00170014
9.3317e-05
-0.000456592
0.00168305
0.000152742
-0.000526584
0.00163855
0.000218426
-0.000629042
0.00159981
0.000293354
-0.000733782
0.00152427
0.000354707
-0.000858407
0.0015157
0.000405308
-0.000992062
0.00140794
0.000426722
-0.00106902
0.001356
0.000407646
-0.001165
0.00131649
0.00039465
-0.00123485
0.00127459
0.000357482
-0.00129893
0.00124421
0.000325927
-0.00134836
0.00120372
0.000280945
-0.00138224
0.00116074
0.00023119
-0.00139279
0.00110392
0.000164934
-0.0013455
0.00104293
6.66401e-05
-0.00126133
0.000963083
-8.19557e-06
-0.00112561
0.000878014
-8.74973e-05
-0.000943841
0.000793973
-0.000160544
-0.000728416
0.000704434
-0.000200667
-0.000500002
0.00066087
-0.000239608
-0.000319267
0.000612182
-0.000224076
-0.000160085
0.000563823
-0.00020312
-5.47551e-05
0.000529914
-0.000157608
5.8161e-07
0.000451441
-0.000102871
0.000310663
-3.62864e-05
2.82915e-05
0.000242079
-0.000126662
0.000114118
0.000311882
-0.000216183
0.000179969
0.000429302
-0.000226571
0.000207038
0.000563838
-0.000199545
0.00019414
0.00071794
-0.000178223
0.000183664
0.000890747
-0.000180149
0.000188377
0.00104237
-0.000196752
0.000183617
0.00121196
-0.000185993
0.000163101
0.00134509
-0.000152841
0.000122433
0.00146356
-0.000108545
7.37592e-05
0.00155718
-7.02846e-05
1.70777e-05
0.00161939
-2.25669e-05
-4.5332e-05
0.00165361
3.12656e-05
-0.000109457
0.00165193
8.59175e-05
-0.000172228
0.00162614
0.000138082
-0.000237438
0.00157227
0.00019308
-0.000303321
0.00150408
0.000244849
-0.00037546
0.00142276
0.000287931
-0.000466299
0.00135131
0.000339341
-0.000572638
0.00125646
0.000374149
-0.000682513
0.00121818
0.000407401
-0.000842675
0.0011549
0.000413198
-0.000946971
0.00106913
0.000391165
-0.00107716
0.00107695
0.000369732
-0.00118557
0.00104764
0.000335351
-0.00128286
0.00104135
0.000300152
-0.00136604
0.00102632
0.000260587
-0.00143327
0.00100627
0.000221697
-0.00147167
0.000980877
0.000161453
-0.00145888
0.000938617
9.15237e-05
-0.00139957
0.000883603
2.01667e-05
-0.00128415
0.000815137
-5.25482e-05
-0.00110052
0.000750902
-0.000140551
-0.000889163
0.000688266
-0.00019519
-0.000639786
0.000646539
-0.000235046
-0.000412211
0.000639632
-0.000255025
-0.000215815
0.000594084
-0.000226657
-7.95899e-05
0.000574411
-0.000180723
-6.20259e-06
0.000493477
-0.000115423
0.000345129
-4.06674e-05
4.71505e-05
0.000350537
-0.000155609
0.000154715
0.000464047
-0.000259729
0.000248565
0.000602617
-0.000267165
0.00029081
0.000743318
-0.000221725
0.000286685
0.00090728
-0.000185216
0.000284016
0.00106584
-0.000172425
0.000277994
0.00121251
-0.000164119
0.000282799
0.001352
-0.000144848
0.000274708
0.00146085
-0.000107669
0.000242063
0.00155311
-5.69072e-05
0.000197953
0.00160465
-3.36334e-06
0.000143777
0.00162339
5.01748e-05
7.70654e-05
0.00161552
0.000104803
9.24318e-06
0.00156842
0.000151327
-5.83858e-05
0.00149782
0.00019595
-0.00012973
0.00140629
0.000237317
-0.000204222
0.00130863
0.000269945
-0.000279985
0.00120681
0.000291716
-0.000365166
0.00112348
0.000313007
-0.000475996
0.00103563
0.000331662
-0.000582728
0.000980462
0.000344445
-0.000738847
0.000963964
0.000347058
-0.000882536
0.00087988
0.000332936
-0.00102223
0.000906657
0.000309983
-0.00115445
0.000890418
0.000289445
-0.00126884
0.000897947
0.000257791
-0.00137539
0.00089345
0.000239412
-0.00146458
0.000891448
0.000204022
-0.00153208
0.000872992
0.000175384
-0.00155536
0.000839354
0.000122542
-0.00151799
0.000790304
5.5925e-05
-0.0014153
0.000737231
-2.47835e-05
-0.00123809
0.000679523
-0.000105828
-0.00101123
0.000635263
-0.000173857
-0.000745707
0.000604286
-0.000223274
-0.000490633
0.000632646
-0.000248088
-0.000268745
0.000617402
-0.000245207
-0.000101883
0.000606037
-0.000198488
-1.45866e-05
0.00053592
-0.000129739
0.000378087
-4.75443e-05
6.50907e-05
0.000455293
-0.000169846
0.000198757
0.000620563
-0.000290182
0.000318457
0.000775917
-0.000293
0.000375056
0.000918584
-0.000231865
0.000389051
0.00106922
-0.000175939
0.000384947
0.0012088
-0.000138857
0.000376947
0.00134184
-0.000121333
0.000372368
0.00145145
-9.48717e-05
0.000363266
0.00152845
-5.84952e-05
0.000345779
0.00157646
-5.86233e-06
0.000307227
0.00160063
4.25704e-05
0.000236915
0.00158766
0.000106042
0.000168005
0.00153276
0.000151664
9.40147e-05
0.00144952
0.000192892
1.78638e-05
0.00134919
0.000224782
-6.17327e-05
0.00123721
0.000248678
-0.000142657
0.0011281
0.000261455
-0.000224672
0.0010255
0.000263322
-0.000316121
0.000949721
0.000265206
-0.00042889
0.000883189
0.000265212
-0.000551
0.000832824
0.000269749
-0.000684364
0.000824705
0.000272623
-0.000847778
0.000769521
0.000273773
-0.000979471
0.000777747
0.000260603
-0.00111866
0.00077305
0.000256561
-0.00123616
0.00078329
0.000232155
-0.00135501
0.000782406
0.000229888
-0.00146496
0.000781806
0.000219598
-0.00155208
0.000758158
0.000201955
-0.00160083
0.000728081
0.000160015
-0.00159023
0.000690667
8.90399e-05
-0.00150816
0.000650502
4.66017e-06
-0.00135236
0.000609662
-8.59371e-05
-0.00112632
0.000574823
-0.000165601
-0.000859483
0.000542225
-0.000204782
-0.000568415
0.000574043
-0.000232465
-0.000319374
0.000612755
-0.000244394
-0.000127026
0.000619623
-0.000205934
-2.27143e-05
0.00056809
-0.000136481
0.000407159
-5.17855e-05
7.99456e-05
0.000552166
-0.00017682
0.000242395
0.0007689
-0.000310787
0.000388041
0.000939208
-0.000308937
0.000463598
0.00107605
-0.000233024
0.000493197
0.00120433
-0.000164708
0.000488817
0.0013208
-0.000107618
0.000479501
0.00142793
-7.67701e-05
0.000463159
0.0015078
-4.00029e-05
0.000435694
0.00156059
-4.67425e-06
0.000401098
0.00158128
2.97787e-05
0.000366648
0.00155816
7.69233e-05
0.00031056
0.00150845
0.000135302
0.000234348
0.00143304
0.000175936
0.000147134
0.00132547
0.00021127
6.17032e-05
0.00120541
0.000229206
-2.59245e-05
0.00108744
0.000237401
-0.000114139
0.000980895
0.000235416
-0.00020701
0.000889475
0.000228899
-0.000307802
0.000827648
0.000222865
-0.000412442
0.000772207
0.000215621
-0.000527895
0.000734132
0.000214145
-0.000635847
0.000713711
0.000218946
-0.000797425
0.000698525
0.000232573
-0.000924263
0.000673925
0.00023066
-0.00105683
0.000668249
0.000237372
-0.00118064
0.000670753
0.000236344
-0.00130703
0.000672265
0.000236526
-0.00143437
0.000660774
0.000248381
-0.00154452
0.000641533
0.000226767
-0.00161664
0.000617555
0.000182653
-0.0016418
0.000585357
0.000130463
-0.00159135
0.000560362
3.96934e-05
-0.00145264
0.000523409
-5.24568e-05
-0.00121637
0.000498939
-0.000160388
-0.000932489
0.000473928
-0.000215583
-0.000631039
0.000503569
-0.000230976
-0.000366528
0.000569512
-0.000221268
-0.00014976
0.000621742
-0.000218887
-2.93228e-05
0.000589532
-0.000141879
0.000436538
-5.87017e-05
9.2456e-05
0.00063075
-0.00017104
0.000281378
0.000898767
-0.000318789
0.000452136
0.00108309
-0.000314643
0.000546235
0.0012067
-0.000224752
0.000586959
0.00131098
-0.000147369
0.000588194
0.00139885
-7.92905e-05
0.000575797
0.00147746
-3.71346e-05
0.000547016
0.00153016
6.42409e-06
0.000507089
0.0015574
4.31176e-05
0.000454604
0.00154542
8.83421e-05
0.000397911
0.00150544
0.00010941
0.000331717
0.0014272
0.000147437
0.000262981
0.00131824
0.000183534
0.000178945
0.0012013
0.000208201
8.91154e-05
0.00107844
0.000216799
-3.15418e-06
0.00096555
0.000214158
-9.34801e-05
0.000866682
0.000204539
-0.00019076
0.000789807
0.000196948
-0.000293787
0.000740393
0.000190283
-0.000399451
0.00069331
0.000184563
-0.000502385
0.000654922
0.000182143
-0.000601577
0.000625475
0.000187428
-0.000730675
0.000621159
0.000206464
-0.000845482
0.00057831
0.000210422
-0.000966388
0.000561011
0.000228143
-0.00108715
0.00055783
0.000233685
-0.00122451
0.000547617
0.000262009
-0.00136358
0.000538623
0.000261217
-0.0014893
0.000524844
0.000242415
-0.00159302
0.000511081
0.000210194
-0.00163798
0.00049773
0.000132578
-0.00161929
0.000480173
6.15005e-05
-0.00151897
0.000446185
-2.30918e-05
-0.00132663
0.000421988
-0.000115392
-0.00103506
0.000407311
-0.000224946
-0.000701722
0.000423387
-0.000253161
-0.000400904
0.000494429
-0.000225735
-0.000172939
0.000591237
-0.000197459
-3.67162e-05
0.000598213
-0.000144905
0.000461359
-6.15365e-05
0.000101011
0.000688956
-0.000159216
0.000312267
0.00100498
-0.000317465
0.000508194
0.00119742
-0.000310257
0.000621888
0.0013071
-0.000214093
0.00066937
0.00139
-0.000126504
0.000676041
0.00145086
-5.86765e-05
0.000660648
0.0014978
-4.94363e-06
0.000624708
0.00152115
4.49485e-05
0.000572387
0.00152202
8.77015e-05
0.000504962
0.00149107
0.000121779
0.000429524
0.00142804
0.00015284
0.000348819
0.00133515
0.000172754
0.000268664
0.00121844
0.000179961
0.000187475
0.00109057
0.000191916
9.95103e-05
0.000971538
0.000194872
1.15016e-05
0.000864938
0.000188621
-7.80858e-05
0.000778063
0.000178207
-0.00017663
0.000713675
0.000174676
-0.000271307
0.000664129
0.000170941
-0.000369777
0.000619749
0.000172031
-0.000459488
0.000575643
0.00016899
-0.000553684
0.000546493
0.000173179
-0.000644283
0.000527386
0.000184371
-0.000743949
0.000481063
0.000196913
-0.000853326
0.000457146
0.000213242
-0.000973644
0.000437676
0.000240473
-0.00111134
0.000428027
0.00025728
-0.00125541
0.000420934
0.000261764
-0.00139885
0.000415786
0.000252495
-0.00151803
0.000417155
0.000213111
-0.00160831
0.000413383
0.000174625
-0.00162396
0.000391415
0.000104401
-0.00156992
0.000348731
4.34165e-05
-0.00140897
0.000311989
-5.09529e-05
-0.0011424
0.000301625
-0.000160878
-0.000793371
0.000327844
-0.00025349
-0.000451634
0.00041237
-0.000259679
-0.000195043
0.000526208
-0.000191563
-4.41018e-05
0.0005933
-0.000146027
0.000484994
-6.77369e-05
0.000105211
0.000724673
-0.000140928
0.000335866
0.00108067
-0.000306352
0.000556012
0.00128252
-0.000305241
0.00068643
0.00137909
-0.000202409
0.000740548
0.00144107
-0.000105185
0.000745876
0.00147739
-3.18558e-05
0.000725388
0.00149991
1.83719e-05
0.0006789
0.00149292
7.47103e-05
0.000618953
0.00146878
0.000113189
0.000547036
0.00141462
0.00014837
0.000461479
0.00133847
0.000175124
0.000367126
0.00123524
0.000194271
0.000272297
0.00111766
0.000195608
0.000190761
0.000991495
0.000180613
0.000105794
0.000879027
0.000177479
2.50754e-05
0.000781493
0.000164164
-6.11172e-05
0.000704364
0.000159892
-0.000152641
0.000644292
0.000160907
-0.000237156
0.000588387
0.000160257
-0.000325514
0.000544723
0.000163385
-0.000406133
0.000495223
0.000161039
-0.000483484
0.000460623
0.000163221
-0.000547545
0.000428215
0.000163233
-0.000630934
0.000385364
0.000179087
-0.000728728
0.000359103
0.000195837
-0.000838951
0.000324119
0.000223779
-0.000970016
0.000314345
0.000244746
-0.00111153
0.000309634
0.000252815
-0.00125948
0.000319713
0.000244018
-0.00140901
0.000327785
0.000238903
-0.0015244
0.000316744
0.000212024
-0.00159482
0.000277435
0.000184404
-0.00158773
0.000224313
0.000117327
-0.00147392
0.000174006
2.41733e-05
-0.00123396
0.000147871
-8.62024e-05
-0.0008918
0.000180962
-0.000195278
-0.000509721
0.000295493
-0.0002652
-0.000218992
0.000455303
-0.000219822
-4.90094e-05
0.000569261
-0.000145944
0.000508887
-7.2904e-05
0.000108977
0.000734651
-0.000118955
0.000354857
0.00112377
-0.000288975
0.000593539
0.00133747
-0.000293632
0.000740335
0.00142744
-0.000195141
0.000799938
0.0014684
-8.69303e-05
0.000803494
0.0014781
-4.26442e-06
0.0007772
0.00147195
5.42541e-05
0.000730122
0.00144368
9.63198e-05
0.000663673
0.00139934
0.000135882
0.000581831
0.00133142
0.000165034
0.000487395
0.00124372
0.000189189
0.000384675
0.00113514
0.000202815
0.000280225
0.00101933
0.000202773
0.000189833
0.000899656
0.000182231
0.000108803
0.000795338
0.000164719
3.81714e-05
0.000700345
0.00015178
-3.79974e-05
0.000632838
0.000147695
-0.000119117
0.000573382
0.000152031
-0.000198043
0.000515233
0.00015208
-0.000268155
0.000461163
0.000153672
-0.000338701
0.000412884
0.000152885
-0.000400703
0.000376927
0.000145698
-0.000456889
0.000339453
0.000144948
-0.000521647
0.000295885
0.000154236
-0.000602219
0.000268336
0.000171339
-0.000702688
0.000231449
0.00019314
-0.000815099
0.000211691
0.000215065
-0.000948209
0.000218069
0.000224674
-0.00109958
0.000232272
0.000238812
-0.00124881
0.00023383
0.000243181
-0.00139323
0.000212235
0.00024893
-0.00150616
0.000169837
0.000220529
-0.00155466
0.000105357
0.000167459
-0.00149944
3.37234e-05
8.50616e-05
-0.0013098
-1.71754e-05
-2.45906e-05
-0.000997697
-1.24925e-06
-0.000129894
-0.000592717
0.000119468
-0.000228956
-0.000245545
0.000359083
-0.000250951
-5.99703e-05
0.000525997
-0.000142309
0.000521601
-7.26832e-05
0.000111297
0.000712782
-8.94287e-05
0.000366875
0.00112827
-0.000260081
0.00061929
0.00135598
-0.000270927
0.000779557
0.00144318
-0.000176011
0.000846526
0.00147139
-6.99569e-05
0.000843501
0.00145824
2.28781e-05
0.000809771
0.00143102
7.46593e-05
0.000751603
0.00138067
0.000121175
0.000680141
0.00132029
0.000150518
0.000599711
0.00123886
0.00017299
0.000506123
0.0011414
0.000195911
0.000404615
0.00103313
0.000203514
0.000302392
0.000920552
0.000201005
0.000206968
0.000810343
0.000184736
0.000125514
0.000715947
0.000160846
5.10151e-05
0.00063029
0.000144555
-1.84329e-05
0.000560914
0.000141372
-8.26369e-05
0.000497433
0.000140153
-0.000144486
0.000436598
0.000140484
-0.0002065
0.000385618
0.00013756
-0.000270838
0.00034313
0.000134093
-0.00032262
0.000300078
0.000128631
-0.000371086
0.000261624
0.000126293
-0.000424003
0.00021918
0.000129623
-0.000484694
0.000186533
0.000142493
-0.000574189
0.000156503
0.000164441
-0.000669171
0.000129011
0.000177661
-0.000795516
0.000141355
0.00020306
-0.000929712
0.000140553
0.000225914
-0.00108258
0.000129903
0.0002568
-0.00124107
0.000105851
0.000264869
-0.00138283
5.71862e-05
0.00025441
-0.00147575
-1.43848e-05
0.000212662
-0.00147546
-0.000107459
0.000140897
-0.00134758
-0.000186324
4.12673e-05
-0.00106966
-0.000208576
-7.05992e-05
-0.000680358
-9.92442e-05
-0.000170587
-0.000278351
0.000181249
-0.000224173
-6.16995e-05
0.000468815
-0.000159469
0.000532521
-7.26186e-05
0.000118076
0.000632263
-3.75577e-05
0.000381404
0.00109006
-0.000225122
0.000645685
0.00133886
-0.000247157
0.000823902
0.00142321
-0.000158244
0.00089555
0.0014381
-3.83669e-05
0.000891171
0.00140788
5.47402e-05
0.000852468
0.00136047
0.000109252
0.000794206
0.00129395
0.000144987
0.000721012
0.00122676
0.000166722
0.000633466
0.00114437
0.000182042
0.000533078
0.00105248
0.000189301
0.000423441
0.000945925
0.000196846
0.000315138
0.000839318
0.000189537
0.000218084
0.000731817
0.000175581
0.000141967
0.000636633
0.00015543
7.29433e-05
0.000556264
0.00014305
1.08418e-05
0.000488687
0.00013433
-4.56002e-05
0.000423628
0.000130247
-0.00010274
0.000370913
0.000122825
-0.000157407
0.000321876
0.000118409
-0.000206429
0.000277999
0.000114153
-0.000251607
0.000235096
0.000110161
-0.0002947
0.000195954
0.000108763
-0.000341882
0.000156906
0.000109455
-0.000392775
0.000120608
0.000116818
-0.000462352
8.60465e-05
0.000140033
-0.000547807
5.2555e-05
0.00016191
-0.000643931
5.09746e-05
0.000186503
-0.000763679
3.92057e-05
0.000221094
-0.000905761
2.35788e-05
0.000248407
-0.00106548
-2.36715e-06
0.000267939
-0.00122371
-5.23861e-05
0.000267803
-0.00135276
-0.000127532
0.000242193
-0.00140754
-0.000236731
0.000184051
-0.00134357
-0.000345049
9.47628e-05
-0.0011318
-0.000407565
-1.27868e-05
-0.000776672
-0.000337729
-0.000116641
-0.000354565
-6.48665e-05
-0.000175992
-6.78703e-05
0.000358624
-0.000176506
0.00052383
-5.91798e-05
0.000117705
0.000519084
-4.52652e-06
0.000367411
0.00103621
-0.000195855
0.000642604
0.00129754
-0.000233874
0.000834313
0.00138495
-0.000153448
0.000914726
0.0013914
-3.37084e-05
0.000907765
0.00134796
6.68863e-05
0.000862629
0.00128252
0.000123092
0.000788077
0.0012097
0.000158801
0.000700753
0.00113129
0.000182794
0.000613897
0.00103502
0.000196199
0.000527253
0.000937427
0.0002017
0.000438319
0.000836538
0.00019832
0.000349726
0.000739336
0.000188576
0.000268199
0.000650175
0.000163168
0.000194726
0.000567752
0.000142355
0.00012568
0.00049577
0.00012954
5.36315e-05
0.000430476
0.000130259
-1.31411e-05
0.000373641
0.000116759
-6.87048e-05
0.000320911
0.000105565
-0.000112126
0.000266717
9.8581e-05
-0.000152287
0.000221686
9.6475e-05
-0.000189652
0.000180084
9.2376e-05
-0.000228985
0.000142179
9.3107e-05
-0.000267083
0.000104067
9.09364e-05
-0.000315135
6.68399e-05
0.00010182
-0.000371262
2.58502e-05
0.000116322
-0.000450704
-8.88788e-06
0.000140884
-0.000534688
-3.86541e-05
0.000173612
-0.000643106
-5.97721e-05
0.000207396
-0.000767185
-9.60771e-05
0.000243734
-0.000911267
-0.000133802
0.000275516
-0.00106731
-0.000188909
0.000292565
-0.00121503
-0.000262995
0.000283187
-0.00130715
-0.000383778
0.000239166
-0.00129798
-0.000518077
0.000163854
-0.00113045
-0.000647009
7.19141e-05
-0.000799684
-0.000634706
-3.37876e-05
-0.000384997
-0.000347574
-0.000131977
-5.75956e-05
0.000176582
-0.00014536
0.00050615
-3.99166e-05
0.000139874
0.000336617
4.25935e-05
0.000369849
0.000936617
-0.00013038
0.000648993
0.00121069
-0.000192298
0.00084437
0.00130388
-0.000114305
0.000936526
0.00129794
1.29924e-06
0.000934727
0.00124903
0.000100728
0.000895198
0.00117141
0.000150639
0.000834572
0.00108769
0.000182635
0.000768688
0.00100478
0.000192395
0.000690631
0.000918911
0.000194171
0.000600276
0.000837864
0.000189917
0.000499212
0.000756047
0.000181556
0.000395437
0.000674175
0.000168935
0.000297965
0.000598912
0.000148735
0.000217564
0.000525155
0.000122999
0.00014798
0.000458441
0.000106914
8.34123e-05
0.000391208
0.000103836
2.49126e-05
0.000327549
0.000104591
-2.03178e-05
0.000271851
9.42906e-05
-6.29323e-05
0.000222997
8.63339e-05
-0.000100708
0.00017648
8.29801e-05
-0.000136246
0.000135543
8.00797e-05
-0.000170591
9.67133e-05
7.98104e-05
-0.000208515
6.23072e-05
7.96824e-05
-0.000252707
2.14836e-05
8.95473e-05
-0.000304899
-2.03627e-05
9.84052e-05
-0.000362397
-6.1969e-05
0.000110579
-0.000428215
-0.000112325
0.000139489
-0.000509652
-0.000155607
0.000177272
-0.000614905
-0.000207876
0.000217052
-0.000750905
-0.000254221
0.00025642
-0.000911195
-0.000319929
0.000291311
-0.00108322
-0.00040348
0.000312505
-0.00121333
-0.000560322
0.000306653
-0.0012672
-0.000728714
0.000264509
-0.00118239
-0.00090982
0.000178002
-0.000921462
-0.000961404
6.57706e-05
-0.00048803
-0.000741027
-3.99796e-05
-9.655e-05
-0.000126072
-8.88258e-05
0.000414307
-4.70655e-06
0.000109818
0.000216281
1.05167e-05
0.000327408
0.00085756
-0.000138534
0.000611885
0.00113198
-0.000205767
0.000823842
0.00123106
-0.00013914
0.000930727
0.00121732
-2.62575e-05
0.000951004
0.00115818
7.05669e-05
0.00091267
0.00106622
0.000143519
0.000848364
0.000986115
0.000165882
0.000769504
0.000908897
0.00017474
0.000680464
0.000832094
0.000175857
0.000590129
0.000755627
0.000172572
0.000498602
0.000682171
0.000165403
0.000411101
0.000609444
0.000152231
0.000328043
0.000546131
0.000135839
0.000251663
0.000481756
0.000119779
0.000189578
0.000423959
9.65682e-05
0.000137406
0.000360523
8.28563e-05
8.3448e-05
0.000302342
7.91657e-05
3.06611e-05
0.000242734
8.19044e-05
-1.01931e-05
0.000186376
7.74757e-05
-5.22971e-05
0.00014489
7.36944e-05
-8.60907e-05
9.8043e-05
7.12928e-05
-0.000120779
6.07021e-05
7.06984e-05
-0.000155062
2.36465e-05
7.29435e-05
-0.000195314
-1.94626e-05
8.11982e-05
-0.000245725
-5.63551e-05
8.64034e-05
-0.000301849
-9.80839e-05
9.22394e-05
-0.000370182
-0.000151856
0.000107865
-0.000447185
-0.000215361
0.000136757
-0.000533184
-0.000294544
0.000172667
-0.000626141
-0.000378176
0.000216911
-0.000733579
-0.000480891
0.0002684
-0.000863027
-0.000592821
0.000318789
-0.00101015
-0.000755605
0.000342406
-0.00112403
-0.000947819
0.000332987
-0.00111658
-0.00118488
0.000267611
-0.000942422
-0.00129712
0.000161553
-0.000564991
-0.00116056
4.20979e-05
-0.000135969
-0.000530024
-2.50711e-05
0.000224441
5.38974e-05
8.02539e-05
0.000121601
1.44259e-05
0.000317075
0.000745329
-0.000124591
0.000588489
0.00104517
-0.000184607
0.000813329
0.00115342
-0.000147196
0.000931624
0.0011426
-4.35776e-05
0.000961294
0.0010792
4.93103e-05
0.000919557
0.000984965
0.000122993
0.000855898
0.000898121
0.000151652