/*--------------------------------*- C++ -*----------------------------------*\
| =========                 |                                                 |
| \\      /  F ield         | OpenFOAM: The Open Source CFD Toolbox           |
|  \\    /   O peration     | Version:  v1806                                 |
|   \\  /    A nd           | Web:      www.OpenFOAM.com                      |
|    \\/     M anipulation  |                                                 |
\*---------------------------------------------------------------------------*/
FoamFile
{
    version     2.0;
    format      ascii;
    class       volVectorField;
    location    "0.0475";
    object      U_0;
}
// * * * * * * * * * * * * * * * * * * * * * * * * * * * * * * * * * * * * * //

dimensions      [0 1 -1 0 0 0 0];


internalField   nonuniform List<vector> 
64000
(
(-0.00706284 -0.00811856 -0.00404949)
(0.0145076 -0.00879599 -0.00179778)
(0.0249178 -0.00450521 0.00184772)
(0.026085 -0.00404552 0.00181199)
(0.0231316 -0.00311349 0.00280465)
(0.0224688 -0.00304459 0.00370396)
(0.0211153 -0.00362497 0.00369188)
(0.0175273 -0.00405371 0.0037644)
(0.0154449 -0.00519802 0.00495245)
(0.00892199 -0.00426118 0.00443542)
(0.00200064 -0.00626321 0.006096)
(-0.0134041 -0.00895265 0.0067772)
(-0.0343199 -0.0133736 0.0068084)
(-0.0595476 -0.0177877 0.00441921)
(-0.0934198 -0.0173868 0.00535988)
(-0.127759 -0.0118836 0.00349499)
(-0.165329 0.00248667 0.00279802)
(-0.204121 -0.00317865 0.000658977)
(-0.220998 -0.0102953 0.00574115)
(-0.266318 -0.0285394 -0.0149514)
(-0.241145 -0.0285692 -0.0310442)
(-0.11799 -0.0265935 -0.0396069)
(-0.0933778 -0.014914 -0.0303034)
(-0.0939877 -0.00582181 -0.0371136)
(-0.0952687 0.000805489 -0.0485848)
(-0.0967657 0.0101663 -0.0566682)
(-0.0789369 0.0195826 -0.0620609)
(-0.0508118 0.0316555 -0.0564408)
(-0.0178469 0.0382398 -0.0506851)
(0.0246773 0.0541364 -0.0311534)
(0.0743452 0.0429627 -0.0311723)
(0.105888 0.0357719 -0.0217284)
(0.12059 0.0249693 -0.010108)
(0.115969 0.0107302 -0.00315842)
(0.100577 0.0030952 0.00277601)
(0.0792939 -0.00528373 0.00514962)
(0.0564837 -0.00791909 0.00751324)
(0.0340587 -0.00663954 0.00831917)
(0.0176465 -0.00489275 0.00842654)
(0.00301914 -0.00337965 0.0065241)
(-0.00511324 -0.00379851 -0.0014908)
(0.011962 -0.017303 -0.00120601)
(0.032122 -0.0145738 0.000331949)
(0.0394303 -0.0101477 -0.000710236)
(0.040092 -0.00486089 0.000466544)
(0.0391359 -0.00167614 -0.000665829)
(0.0365142 0.00279658 -0.00241378)
(0.028808 0.00500913 -0.0021298)
(0.0217116 0.0104568 -0.0070894)
(0.0041104 0.0169975 -0.00414145)
(-0.0211303 0.024199 -0.00797409)
(-0.0593221 0.0323951 0.000168762)
(-0.107968 0.0445724 -0.00404842)
(-0.159797 0.0672449 -0.00664548)
(-0.219902 0.0784461 -0.0102291)
(-0.280084 0.0868315 -0.0188436)
(-0.371801 0.092848 -0.0423346)
(-0.471345 0.0961632 -0.0570809)
(-0.536292 0.101191 -0.0749692)
(-0.605799 0.0988162 -0.0991707)
(-0.574492 0.120446 -0.109155)
(-0.430048 0.138049 -0.128029)
(-0.386414 0.178624 -0.142848)
(-0.374353 0.209426 -0.149175)
(-0.348401 0.234026 -0.160111)
(-0.316827 0.257506 -0.165654)
(-0.259067 0.276791 -0.167131)
(-0.19341 0.293665 -0.155668)
(-0.113792 0.299876 -0.134865)
(-0.0473925 0.308522 -0.110195)
(0.020273 0.288728 -0.0743525)
(0.0868802 0.258824 -0.047769)
(0.120021 0.205836 -0.0385738)
(0.132597 0.158418 -0.0272523)
(0.126081 0.10767 -0.013148)
(0.105124 0.0673201 -0.00540255)
(0.0837387 0.0393722 -0.000930797)
(0.0571954 0.024661 0.00037095)
(0.0336683 0.0149263 0.00209373)
(0.00903105 0.00617113 0.00362498)
(-0.000179192 -0.0121182 0.00187764)
(0.0167268 -0.0246915 -0.000516408)
(0.0393881 -0.0204691 -0.00075386)
(0.0490089 -0.0092584 -0.000831205)
(0.0465588 0.00424022 -0.0031358)
(0.0430113 0.0157052 -0.00496128)
(0.0345116 0.0314911 -0.00666211)
(0.0199335 0.0453736 -0.00879124)
(0.00390845 0.0691813 -0.00168706)
(-0.0265444 0.0910497 -0.00462133)
(-0.0655045 0.120039 -0.00833348)
(-0.118116 0.154024 -0.0129837)
(-0.17375 0.185401 -0.0168192)
(-0.255908 0.209051 -0.0312984)
(-0.361181 0.226816 -0.0334992)
(-0.456375 0.239506 -0.042645)
(-0.549554 0.245912 -0.057819)
(-0.631615 0.268648 -0.0741594)
(-0.689577 0.296365 -0.0920069)
(-0.743716 0.328613 -0.11388)
(-0.698921 0.366364 -0.116248)
(-0.52998 0.393844 -0.122843)
(-0.461528 0.447476 -0.129777)
(-0.439287 0.484577 -0.123858)
(-0.404708 0.51489 -0.125388)
(-0.369235 0.538543 -0.12276)
(-0.311353 0.551047 -0.118503)
(-0.250126 0.55496 -0.104986)
(-0.179427 0.544978 -0.0838675)
(-0.116772 0.525455 -0.0605444)
(-0.0601514 0.499792 -0.0396115)
(-0.0204156 0.451399 -0.0276611)
(0.0149868 0.379809 -0.0131497)
(0.0404008 0.306448 -0.00767169)
(0.0470842 0.229015 -0.0106983)
(0.0515586 0.162873 -0.0104034)
(0.0499676 0.113112 -0.00682939)
(0.0399522 0.0752593 -0.00441016)
(0.0278363 0.0490547 -0.000579118)
(0.00881491 0.0214792 0.00269526)
(0.000443166 -0.0182819 0.00196083)
(0.0191229 -0.0288568 -0.00233493)
(0.0444837 -0.0166931 -0.00173408)
(0.0542834 0.00131396 -0.00578647)
(0.0486142 0.0271261 -0.00602936)
(0.0405538 0.0550682 -0.00738667)
(0.0261218 0.0902335 -0.0075883)
(0.00636191 0.125086 -0.0043893)
(-0.018979 0.170896 -0.00958408)
(-0.0626345 0.211222 -0.0118461)
(-0.110166 0.249656 -0.0160398)
(-0.181069 0.277052 -0.0227769)
(-0.272996 0.303854 -0.0256737)
(-0.363665 0.318582 -0.0280057)
(-0.449952 0.343048 -0.02954)
(-0.528708 0.370998 -0.0377655)
(-0.607288 0.401296 -0.0499204)
(-0.676173 0.432965 -0.0576945)
(-0.718521 0.469586 -0.0662802)
(-0.756659 0.510914 -0.0745532)
(-0.699504 0.544712 -0.0596537)
(-0.510918 0.564006 -0.0474698)
(-0.428089 0.60306 -0.0460788)
(-0.407094 0.618943 -0.0304312)
(-0.375423 0.628924 -0.0259571)
(-0.349496 0.632029 -0.0196552)
(-0.304445 0.622573 -0.0163554)
(-0.260111 0.604552 -0.0096751)
(-0.207636 0.579354 0.00146894)
(-0.162793 0.546752 0.008827)
(-0.128812 0.508961 0.0144206)
(-0.105452 0.465439 0.0136627)
(-0.0864982 0.41723 0.00871423)
(-0.0628544 0.352174 0.000915581)
(-0.0418767 0.276536 -0.00350627)
(-0.0184185 0.203028 -0.00915826)
(0.00109937 0.145687 -0.00989474)
(0.0104873 0.108497 -0.00701054)
(0.0178401 0.0742469 -0.00284101)
(0.00733475 0.0321472 0.00225281)
(0.00156685 -0.0200757 0.000899033)
(0.0249813 -0.0216931 -0.00480193)
(0.0531538 -0.00264446 -0.0038751)
(0.0637502 0.0298802 -0.00560395)
(0.059177 0.0727115 -0.00558044)
(0.0503089 0.121937 -0.0141652)
(0.0297191 0.183616 -0.0112055)
(0.00275658 0.235648 -0.00435896)
(-0.0326143 0.282398 -0.00690559)
(-0.0939387 0.316245 -0.00904817)
(-0.165178 0.345203 -0.0122431)
(-0.239989 0.364885 -0.0144372)
(-0.309081 0.392795 -0.0170148)
(-0.383814 0.424777 -0.0203778)
(-0.459186 0.459581 -0.0178515)
(-0.525904 0.492059 -0.0202683)
(-0.588448 0.525865 -0.0210242)
(-0.636803 0.560616 -0.0171018)
(-0.660367 0.599011 -0.0152398)
(-0.68742 0.64024 -0.0231581)
(-0.630695 0.668458 -0.00668146)
(-0.43702 0.678403 0.0130837)
(-0.350965 0.688836 0.020194)
(-0.338117 0.675401 0.0363733)
(-0.318745 0.654409 0.0384034)
(-0.311332 0.631427 0.0454709)
(-0.288108 0.597868 0.0462648)
(-0.261661 0.562334 0.0497982)
(-0.23027 0.521978 0.0436479)
(-0.20638 0.482512 0.0365558)
(-0.18458 0.439161 0.0271413)
(-0.171579 0.402833 0.0196271)
(-0.163768 0.36947 0.012189)
(-0.160173 0.337011 0.000887117)
(-0.147575 0.279228 -0.0109797)
(-0.106488 0.205139 -0.0119937)
(-0.0525273 0.158125 -0.0122405)
(-0.0167675 0.12683 -0.0105759)
(0.00304028 0.0919667 -0.00487461)
(0.00445462 0.0399859 0.00229675)
(0.00525398 -0.0193029 0.000813726)
(0.03188 -0.010609 -0.0040666)
(0.0660187 0.015915 -0.0043725)
(0.0839763 0.0631569 -0.00783018)
(0.0801278 0.11553 -0.010419)
(0.0741901 0.182206 -0.0188491)
(0.0446745 0.246674 -0.0125184)
(-0.00755927 0.291432 0.000188455)
(-0.0644673 0.330534 -0.00431321)
(-0.131626 0.365452 -0.00589555)
(-0.189855 0.401343 -0.00813341)
(-0.249654 0.439805 -0.0083396)
(-0.30918 0.477016 -0.00653527)
(-0.366329 0.50799 -0.00304638)
(-0.421926 0.540965 0.00374805)
(-0.468826 0.57208 0.00891665)
(-0.512402 0.605276 0.00649679)
(-0.547575 0.639289 0.0107351)
(-0.562081 0.681612 0.0110137)
(-0.580954 0.713119 0.00868289)
(-0.522415 0.738264 0.0259929)
(-0.34271 0.694446 0.046623)
(-0.273806 0.669806 0.0527289)
(-0.280765 0.62754 0.0702376)
(-0.27884 0.581567 0.0746475)
(-0.288632 0.542255 0.0765188)
(-0.282929 0.497917 0.0735465)
(-0.276666 0.457311 0.0691316)
(-0.260931 0.410658 0.0662499)
(-0.250855 0.372482 0.0478518)
(-0.242328 0.331256 0.037221)
(-0.230899 0.29931 0.024161)
(-0.219641 0.274322 0.0113098)
(-0.220195 0.255951 0.00279897)
(-0.229118 0.233952 -0.0120917)
(-0.175463 0.190331 -0.0124029)
(-0.090822 0.158496 -0.0140655)
(-0.0394286 0.132253 -0.0113669)
(-0.00378058 0.0997159 -0.00619687)
(0.00356561 0.0425452 0.00251737)
(0.00815102 -0.0167471 9.55429e-05)
(0.0400297 0.00159555 -0.00857416)
(0.0830458 0.0387138 -0.00916903)
(0.104351 0.0916284 -0.00848776)
(0.10491 0.145329 -0.00979011)
(0.0939645 0.219676 -0.0120175)
(0.0403931 0.256783 -0.000579411)
(-0.0179328 0.302747 0.00374945)
(-0.0616557 0.350401 -0.000264151)
(-0.116256 0.401763 -0.00173675)
(-0.166244 0.450891 -0.00229099)
(-0.215221 0.494785 -0.000474254)
(-0.262115 0.532955 0.00179376)
(-0.308394 0.568824 0.00856034)
(-0.349925 0.601377 0.0133293)
(-0.384044 0.630615 0.0201338)
(-0.413693 0.654468 0.0255968)
(-0.427252 0.677397 0.0295114)
(-0.43565 0.704858 0.0239913)
(-0.454636 0.720421 0.0183334)
(-0.452119 0.735786 0.0255244)
(-0.313838 0.650929 0.0480962)
(-0.229453 0.577299 0.0507399)
(-0.248733 0.528891 0.0651935)
(-0.257836 0.479256 0.0678407)
(-0.281343 0.443774 0.0685946)
(-0.292552 0.406038 0.0647663)
(-0.30188 0.371549 0.059619)
(-0.299602 0.33459 0.0484232)
(-0.30027 0.3005 0.0356779)
(-0.298112 0.268234 0.02255)
(-0.288277 0.241151 0.012058)
(-0.278705 0.221956 0.00113334)
(-0.273828 0.208071 -0.0043694)
(-0.276303 0.210451 -0.0143159)
(-0.224587 0.193591 -0.0195062)
(-0.127194 0.164153 -0.0206775)
(-0.0561314 0.143723 -0.0163976)
(-0.00989415 0.108459 -0.00930789)
(0.00377068 0.0466668 0.00107528)
(0.00895962 -0.00771374 5.85535e-06)
(0.0469793 0.0225214 -0.0129626)
(0.0993496 0.0707132 -0.0138569)
(0.123456 0.123794 -0.00979252)
(0.130603 0.183053 -0.0117874)
(0.100835 0.243291 -0.00849624)
(0.04086 0.275967 0.00181889)
(0.00396445 0.333954 0.00595045)
(-0.034854 0.381335 0.00267923)
(-0.0812712 0.435311 0.00393486)
(-0.122176 0.478879 0.00563217)
(-0.163611 0.51611 0.0109192)
(-0.198376 0.548423 0.0175843)
(-0.228138 0.576998 0.0227779)
(-0.258916 0.600936 0.0275643)
(-0.285404 0.618466 0.0319606)
(-0.310084 0.630335 0.034233)
(-0.323751 0.638225 0.035326)
(-0.337388 0.635407 0.0280984)
(-0.359616 0.625965 0.0188552)
(-0.395922 0.618746 0.014331)
(-0.321338 0.570748 0.0315025)
(-0.231724 0.460476 0.0322916)
(-0.237438 0.426017 0.0423954)
(-0.256709 0.384658 0.0473861)
(-0.28687 0.359764 0.0495991)
(-0.309756 0.332185 0.0499376)
(-0.329153 0.304381 0.0455647)
(-0.336994 0.274715 0.0379431)
(-0.344688 0.243621 0.0179676)
(-0.34742 0.21209 0.0120058)
(-0.338199 0.18729 0.00263263)
(-0.325203 0.172408 -0.00423158)
(-0.309034 0.16751 -0.00854249)
(-0.314177 0.183586 -0.0172173)
(-0.271986 0.195297 -0.0203851)
(-0.160916 0.170405 -0.0220159)
(-0.0736563 0.152357 -0.0178517)
(-0.0146702 0.11639 -0.00985975)
(0.00495477 0.0497193 0.00146846)
(0.0074764 0.00350435 -0.0045301)
(0.0543763 0.0529501 -0.0195763)
(0.117468 0.108079 -0.0186534)
(0.147491 0.162084 -0.0131521)
(0.151132 0.220019 -0.0143957)
(0.113853 0.260102 -0.00690384)
(0.0639957 0.31009 -0.000207641)
(0.0317421 0.36523 0.0064384)
(0.00377632 0.404954 0.0128168)
(-0.0300619 0.446305 0.0123503)
(-0.069745 0.483235 0.016577)
(-0.0994173 0.510781 0.0220436)
(-0.124257 0.532834 0.0284584)
(-0.149158 0.544741 0.0325785)
(-0.174146 0.549095 0.0341927)
(-0.197847 0.547459 0.0352084)
(-0.222129 0.539986 0.034417)
(-0.245245 0.533866 0.0318632)
(-0.275196 0.52218 0.0240618)
(-0.306433 0.505297 0.0132553)
(-0.352175 0.487235 0.00350412)
(-0.340271 0.476192 0.00911879)
(-0.263648 0.382911 0.0172354)
(-0.238841 0.347516 0.0192813)
(-0.26415 0.321974 0.0264185)
(-0.296473 0.302789 0.0313831)
(-0.328957 0.283908 0.0350843)
(-0.355953 0.257358 0.0352357)
(-0.372582 0.231705 0.0228369)
(-0.388728 0.196864 0.0107447)
(-0.392825 0.171762 0.000843874)
(-0.380865 0.148941 -0.00420954)
(-0.36548 0.134503 -0.0106839)
(-0.339911 0.1375 -0.0166206)
(-0.325013 0.146485 -0.019905)
(-0.297283 0.186922 -0.0261833)
(-0.197235 0.172507 -0.0259747)
(-0.0900115 0.161249 -0.0240265)
(-0.0200158 0.125999 -0.0129238)
(0.00544202 0.0552205 -0.000356223)
(0.00821091 0.0203038 -0.00844076)
(0.0610875 0.0933431 -0.0274795)
(0.134201 0.153097 -0.0270946)
(0.169222 0.204936 -0.0164998)
(0.166151 0.249413 -0.0142593)
(0.134566 0.285516 -0.00949689)
(0.100729 0.338267 -0.00242516)
(0.0704939 0.384304 0.0129531)
(0.0390185 0.421575 0.0181166)
(0.015365 0.448262 0.0271574)
(-0.0103731 0.468907 0.0257806)
(-0.0387904 0.482746 0.0339455)
(-0.0617771 0.488524 0.0387683)
(-0.0838013 0.481186 0.0415664)
(-0.108627 0.46641 0.0391268)
(-0.134879 0.445957 0.0354903)
(-0.161391 0.420914 0.0307693)
(-0.186449 0.405216 0.0248899)
(-0.22481 0.389399 0.0154588)
(-0.271561 0.381818 0.00687759)
(-0.320816 0.377545 -0.00193008)
(-0.343701 0.386452 -0.00290604)
(-0.297104 0.3496 0.00615999)
(-0.251593 0.304453 0.00523737)
(-0.267743 0.28147 0.0123332)
(-0.301826 0.266396 0.0204329)
(-0.339587 0.244389 0.0271726)
(-0.373262 0.223379 0.0283872)
(-0.39718 0.190949 0.0220032)
(-0.412883 0.162377 0.00894147)
(-0.417407 0.133159 0.0114074)
(-0.414613 0.111926 0.017768)
(-0.395085 0.0923505 0.0159956)
(-0.372893 0.0935655 0.00898194)
(-0.348359 0.107681 -0.0112213)
(-0.318078 0.151939 -0.0232125)
(-0.225343 0.171193 -0.0237994)
(-0.106214 0.16048 -0.0217303)
(-0.0252227 0.13414 -0.0123629)
(0.00664033 0.0587214 0.000548177)
(0.00866463 0.0388327 -0.0111576)
(0.0685287 0.134057 -0.0335058)
(0.149555 0.198286 -0.0318358)
(0.184462 0.240395 -0.0173049)
(0.183032 0.276198 -0.0133466)
(0.164853 0.313536 -0.0110054)
(0.139135 0.357011 -0.00127543)
(0.109935 0.392271 0.00690128)
(0.0852355 0.421529 0.0146048)
(0.058282 0.441442 0.0295495)
(0.0310489 0.447944 0.0378966)
(0.0138254 0.447783 0.046457)
(-0.00778179 0.434707 0.0474712)
(-0.0351956 0.412326 0.0476904)
(-0.0630583 0.386544 0.0408915)
(-0.0951452 0.356573 0.0321042)
(-0.122775 0.325081 0.0243217)
(-0.152547 0.30753 0.0137965)
(-0.193538 0.286255 0.00710942)
(-0.233419 0.285261 0.00361837)
(-0.280666 0.302293 -0.00156126)
(-0.316449 0.327513 -0.00361215)
(-0.304187 0.333087 0.000754939)
(-0.269833 0.294518 0.000537565)
(-0.267851 0.256838 0.0041173)
(-0.300458 0.236962 0.0130097)
(-0.340212 0.213853 0.0195323)
(-0.379033 0.189177 0.0229431)
(-0.407323 0.160046 0.0145435)
(-0.428706 0.127647 0.0292762)
(-0.441738 0.0926083 0.0307054)
(-0.443389 0.063255 0.0196144)
(-0.431425 0.0505298 0.0139776)
(-0.398267 0.0460449 0.00868845)
(-0.358362 0.0625868 0.00105824)
(-0.32393 0.101469 -0.0191408)
(-0.246771 0.150107 -0.0279718)
(-0.125421 0.157234 -0.0230555)
(-0.0280159 0.137822 -0.0150056)
(0.00481402 0.0627363 -0.000614876)
(0.00906141 0.0612429 -0.0120514)
(0.0730839 0.17815 -0.0375565)
(0.156947 0.242675 -0.0352209)
(0.196579 0.276087 -0.0187593)
(0.205406 0.307394 -0.0108227)
(0.194876 0.338598 -0.00556092)
(0.174815 0.369989 -0.0048775)
(0.148934 0.393677 0.00972171)
(0.123309 0.412089 0.0132503)
(0.100277 0.420711 0.0260986)
(0.0782185 0.422882 0.035536)
(0.0516597 0.411969 0.0521028)
(0.0250836 0.386655 0.0539312)
(0.00283513 0.353114 0.0535285)
(-0.0273755 0.321 0.0396576)
(-0.0659829 0.289641 0.0267256)
(-0.095128 0.261089 0.0162861)
(-0.128302 0.244169 0.00313428)
(-0.168286 0.225578 -0.000941968)
(-0.192957 0.231429 -0.000185236)
(-0.226687 0.254908 0.000941962)
(-0.266611 0.293565 2.51162e-05)
(-0.284449 0.310374 0.00121734)
(-0.278416 0.28754 -0.00022913)
(-0.272216 0.240174 -0.000164239)
(-0.288194 0.204917 0.0060924)
(-0.327902 0.179144 0.0126501)
(-0.366614 0.152873 0.0121764)
(-0.400933 0.124234 0.0321649)
(-0.432009 0.0880748 0.0418771)
(-0.451712 0.0535171 0.0415375)
(-0.452534 0.0270339 0.0525211)
(-0.444174 0.00268224 0.0416985)
(-0.430163 -0.00206141 0.0329378)
(-0.393787 0.00892476 0.0247213)
(-0.342783 0.0524947 0.00269705)
(-0.256294 0.106171 -0.0243126)
(-0.138105 0.146188 -0.0244312)
(-0.0337869 0.13528 -0.0140735)
(0.00625172 0.0662773 -0.000849625)
(0.00808076 0.0748192 -0.0128114)
(0.0729769 0.211904 -0.0412114)
(0.159811 0.279555 -0.0398845)
(0.207352 0.309306 -0.021244)
(0.226057 0.332089 -0.00771363)
(0.222554 0.352703 7.6458e-05)
(0.204652 0.375438 0.00433435)
(0.180387 0.387993 0.00632069)
(0.160639 0.398455 0.0145467)
(0.138952 0.40055 0.0259971)
(0.113529 0.392423 0.0340742)
(0.0877307 0.374805 0.0413014)
(0.0565234 0.347015 0.0519173)
(0.0264255 0.312623 0.0517043)
(-0.00273624 0.270837 0.0379708)
(-0.0420903 0.243961 0.0200415)
(-0.0726694 0.220875 0.00927009)
(-0.108649 0.204297 -0.00485874)
(-0.140339 0.194342 -0.00457984)
(-0.146563 0.20776 -0.00118911)
(-0.162909 0.223052 0.00344833)
(-0.203369 0.247099 0.00337488)
(-0.247201 0.269849 0.00477544)
(-0.269302 0.260779 0.00267014)
(-0.272945 0.221267 0.00131164)
(-0.277481 0.168065 0.00337596)
(-0.30274 0.137238 0.00810745)
(-0.341949 0.111799 0.0193886)
(-0.381879 0.0788175 0.0336597)
(-0.418417 0.0476383 0.0412447)
(-0.439312 0.0144999 0.0630927)
(-0.462901 -0.0243965 0.0465799)
(-0.470832 -0.0670344 0.0359505)
(-0.451168 -0.0888718 0.0175621)
(-0.411023 -0.0763266 0.00326588)
(-0.363811 -0.0267927 0.0121428)
(-0.277886 0.0564275 -0.00323756)
(-0.150248 0.1142 -0.0311312)
(-0.038826 0.127852 -0.0143986)
(0.00694961 0.0658489 -0.00256109)
(0.007106 0.0895831 -0.0116995)
(0.072587 0.244709 -0.0437572)
(0.161882 0.316726 -0.0448327)
(0.215333 0.342811 -0.0248938)
(0.242386 0.356312 -0.00599125)
(0.246938 0.36429 0.00606355)
(0.23261 0.374483 0.0109344)
(0.21068 0.382369 0.0151985)
(0.193158 0.387099 0.0169993)
(0.171438 0.381142 0.0210974)
(0.148851 0.36643 0.0231469)
(0.117809 0.342405 0.0349442)
(0.0830066 0.310668 0.0351882)
(0.0462413 0.27825 0.0394887)
(0.0154896 0.244187 0.0312892)
(-0.0171582 0.212077 0.0123787)
(-0.0511189 0.199271 0.00202844)
(-0.0831263 0.178985 -0.00915004)
(-0.0999141 0.187818 -0.00484149)
(-0.0998797 0.195139 -0.00193583)
(-0.11915 0.19534 0.00562084)
(-0.145816 0.19641 0.0128955)
(-0.189218 0.209625 0.0122311)
(-0.2368 0.21833 0.00691562)
(-0.266398 0.195647 0.00305666)
(-0.265359 0.148733 0.0017754)
(-0.270015 0.102427 0.00456996)
(-0.305461 0.0744607 0.0201088)
(-0.34495 0.040012 0.0309082)
(-0.380862 0.00937018 0.0532034)
(-0.426001 -0.0345869 0.0414028)
(-0.466743 -0.0903362 0.0360062)
(-0.484 -0.134979 0.0241958)
(-0.47309 -0.168124 0.0135867)
(-0.432006 -0.171688 -0.00257087)
(-0.366681 -0.129445 -0.00719515)
(-0.2842 -0.027229 0.001006)
(-0.169462 0.0737471 -0.016849)
(-0.0433051 0.116509 -0.018734)
(0.00664833 0.0684419 -0.00189463)
(0.00406351 0.0849972 -0.0126606)
(0.0673505 0.257845 -0.0450649)
(0.158897 0.335218 -0.0469456)
(0.219266 0.359912 -0.0265071)
(0.252988 0.366056 -0.00602499)
(0.261684 0.364436 0.00799081)
(0.255766 0.366703 0.0154813)
(0.239635 0.369476 0.0184199)
(0.22197 0.368153 0.0206251)
(0.199142 0.358805 0.0217174)
(0.173006 0.343129 0.0214568)
(0.142471 0.316648 0.0187201)
(0.10757 0.285453 0.0165941)
(0.0721424 0.250992 0.0174491)
(0.0334773 0.223156 0.0181456)
(0.00276955 0.194891 0.0050483)
(-0.0270153 0.185958 -0.00633784)
(-0.0482589 0.181007 -0.00727688)
(-0.0535804 0.191297 -0.0047184)
(-0.064277 0.18901 0.000486751)
(-0.0808253 0.178141 0.0103407)
(-0.102238 0.169884 0.0167059)
(-0.131164 0.161673 0.0212676)
(-0.18192 0.167089 0.0126376)
(-0.232281 0.1626 0.00645665)
(-0.251621 0.135679 0.00803358)
(-0.248583 0.0779332 0.0117076)
(-0.267465 0.0412434 0.02279)
(-0.303141 0.00773389 0.0396411)
(-0.34863 -0.0346132 0.0346439)
(-0.402798 -0.0899197 0.0345023)
(-0.447078 -0.14467 0.0264238)
(-0.475279 -0.200191 0.0167467)
(-0.478125 -0.242577 0.00310306)
(-0.444763 -0.262465 -0.0114235)
(-0.379074 -0.22957 -0.0183583)
(-0.284978 -0.142058 -0.0199718)
(-0.170578 0.00560161 -1.13156e-05)
(-0.0512279 0.0874212 -0.0274201)
(0.00636062 0.0649179 -0.00412828)
(0.00501174 0.0928638 -0.00523541)
(0.0667783 0.276224 -0.0408054)
(0.157198 0.35751 -0.0435745)
(0.222185 0.378704 -0.024018)
(0.262096 0.376652 -0.0010624)
(0.280796 0.368823 0.0105397)
(0.28132 0.365962 0.0157894)
(0.266032 0.361457 0.0175892)
(0.249636 0.355699 0.0171351)
(0.229149 0.340828 0.0155091)
(0.203987 0.319304 0.0119027)
(0.167561 0.289499 0.00862587)
(0.127769 0.257439 0.00512282)
(0.0898438 0.231909 0.00141253)
(0.0560784 0.217501 0.00409287)
(0.0317427 0.214271 -0.0037565)
(0.0131444 0.210264 -0.00626555)
(-0.00255818 0.217469 -0.00391621)
(-0.0146561 0.214578 0.00143919)
(-0.0307418 0.197901 0.00589325)
(-0.0505645 0.180157 0.0131616)
(-0.0697672 0.160023 0.0165743)
(-0.0939636 0.14146 0.0197297)
(-0.132509 0.126347 0.0183412)
(-0.187151 0.127428 0.00809123)
(-0.230575 0.108956 0.00729578)
(-0.234924 0.0742944 0.00824338)
(-0.234514 0.0155619 0.0135907)
(-0.267532 -0.0228925 0.019171)
(-0.315716 -0.0752035 0.024392)
(-0.367918 -0.1272 0.0232951)
(-0.418392 -0.186567 0.0206255)
(-0.453863 -0.246686 0.013197)
(-0.468298 -0.301668 0.00116881)
(-0.444434 -0.334599 -0.0139953)
(-0.385718 -0.322994 -0.0299693)
(-0.28521 -0.240747 -0.0335587)
(-0.172427 -0.0867685 -0.0217935)
(-0.0539455 0.0492965 -0.0184304)
(0.00848623 0.0604454 -0.00964243)
(-0.00313057 0.089089 -0.0155935)
(0.0519858 0.279142 -0.0467177)
(0.144961 0.367666 -0.0505339)
(0.216721 0.389924 -0.0304131)
(0.267494 0.386612 -0.00530419)
(0.295945 0.372736 0.00507509)
(0.303087 0.359045 0.0110742)
(0.291435 0.344874 0.0108265)
(0.272351 0.330865 0.008438)
(0.245922 0.318524 0.00560892)
(0.217427 0.309225 0.00398076)
(0.185062 0.299519 0.00256333)
(0.15621 0.289723 0.00138945)
(0.133132 0.27888 0.00188393)
(0.107939 0.272776 0.00217952)
(0.0795434 0.266973 -0.0102379)
(0.0550969 0.252078 -0.0074696)
(0.0346631 0.240613 -0.00622287)
(0.00831784 0.222363 -0.00253883)
(-0.0134547 0.196407 0.00505763)
(-0.0297692 0.170574 0.0104053)
(-0.0490603 0.145478 0.0136943)
(-0.0701381 0.122112 0.0160139)
(-0.0974946 0.100299 0.0192719)
(-0.146325 0.0908019 0.00997167)
(-0.193464 0.07796 0.00331316)
(-0.220458 0.0587793 0.000951018)
(-0.229827 0.0153065 0.00311342)
(-0.244144 -0.0385404 0.00451463)
(-0.28529 -0.0872991 0.00994511)
(-0.332412 -0.14587 0.0137697)
(-0.378302 -0.214414 0.0126419)
(-0.415276 -0.287396 0.00667805)
(-0.437694 -0.360649 -0.00417931)
(-0.427804 -0.414099 -0.0197107)
(-0.377825 -0.423848 -0.0364388)
(-0.285892 -0.357279 -0.0561805)
(-0.174604 -0.201215 -0.0404314)
(-0.0526929 -0.00316586 -0.0101776)
(0.0081395 0.053837 -0.0108643)
(-0.00643426 0.118236 -0.0129051)
(0.044289 0.319954 -0.0367469)
(0.136715 0.414909 -0.0441915)
(0.214254 0.43603 -0.0261814)
(0.271537 0.42779 -0.00964581)
(0.304893 0.404562 0.00177609)
(0.315683 0.382881 0.00727683)
(0.305087 0.375368 0.00942955)
(0.297961 0.390428 0.00975112)
(0.292042 0.400307 0.00594652)
(0.278708 0.403221 0.00175488)
(0.247672 0.392743 -0.00322163)
(0.207465 0.376121 -0.00450416)
(0.168736 0.347135 -0.00519301)
(0.133469 0.31627 -0.000833266)
(0.0947004 0.285915 -0.00883199)
(0.0672133 0.26167 -0.00892305)
(0.0484896 0.228132 -0.00700131)
(0.0239017 0.201726 -0.0032893)
(0.00224127 0.177303 0.00277957)
(-0.0154299 0.148541 0.00913106)
(-0.0310989 0.122991 0.0120111)
(-0.0510927 0.0998659 0.0130527)
(-0.0737088 0.0771288 0.0167837)
(-0.115974 0.0614134 0.00601614)
(-0.162481 0.0474628 -0.000903596)
(-0.187468 0.0327494 0.00293835)
(-0.208542 0.0115221 0.000692543)
(-0.229872 -0.0305079 -0.00251228)
(-0.262505 -0.0875626 -0.00649684)
(-0.312018 -0.147732 -0.00373479)
(-0.360429 -0.210685 0.00121459)
(-0.397176 -0.282823 0.00230868)
(-0.418657 -0.359861 -0.00379985)
(-0.407215 -0.426927 -0.0159889)
(-0.362158 -0.46243 -0.0372743)
(-0.272533 -0.433917 -0.0603699)
(-0.157464 -0.294499 -0.0620275)
(-0.0388826 -0.089066 -0.0280188)
(0.0105345 0.0332583 -0.00871016)
(-0.0142706 0.243572 -0.0214343)
(0.0275025 0.467568 -0.0385979)
(0.115727 0.569951 -0.0462253)
(0.194326 0.599242 -0.0281063)
(0.260058 0.589676 -0.0145675)
(0.304476 0.563618 -0.000432765)
(0.340068 0.530404 0.00701038)
(0.370904 0.518438 0.00590401)
(0.373236 0.523364 -0.000370825)
(0.340286 0.512278 -0.00614508)
(0.29883 0.485829 -0.00918623)
(0.253242 0.443883 -0.0106544)
(0.207959 0.399006 -0.0100124)
(0.167515 0.351334 -0.00660261)
(0.134979 0.309304 -0.00369988)
(0.108661 0.268943 0.000950589)
(0.0787822 0.242212 -0.00523374)
(0.0555811 0.21157 -0.00578831)
(0.0391606 0.181448 -0.00316047)
(0.0151262 0.155057 -0.000384538)
(-0.00279869 0.130902 0.00732318)
(-0.0168501 0.103247 0.0102673)
(-0.0351917 0.0801482 0.0111439)
(-0.0541755 0.0591679 0.0153424)
(-0.0915434 0.0368399 0.00455492)
(-0.13229 0.02553 0.00482566)
(-0.157868 0.0131553 0.00512228)
(-0.182076 -0.00334118 0.00620254)
(-0.214662 -0.0244645 0.00312587)
(-0.252031 -0.0657767 0.00298854)
(-0.277341 -0.121711 -0.00272579)
(-0.30808 -0.200067 -0.014517)
(-0.344947 -0.301873 -0.0235486)
(-0.374455 -0.410671 -0.0351338)
(-0.382174 -0.496494 -0.0527302)
(-0.363336 -0.560222 -0.0786071)
(-0.290308 -0.547918 -0.093489)
(-0.194777 -0.420124 -0.0921686)
(-0.0625443 -0.155589 -0.0507772)
(0.0158549 0.034124 -0.0118236)
(-0.011369 0.275036 -0.010889)
(0.0269352 0.519149 -0.0404616)
(0.112478 0.634654 -0.0505531)
(0.194548 0.682016 -0.0412455)
(0.261592 0.680405 -0.0309572)
(0.305745 0.657686 -0.0192689)
(0.342048 0.620965 -0.0100776)
(0.371631 0.586062 -0.00618727)
(0.36977 0.548756 -0.00712173)
(0.337504 0.509974 -0.00678497)
(0.298011 0.470036 -0.00603724)
(0.252465 0.4268 -0.00604777)
(0.208108 0.380762 -0.00454778)
(0.170675 0.335682 -0.0039773)
(0.138897 0.292279 -0.0019458)
(0.111219 0.252953 -9.5479e-05)
(0.0913134 0.217736 0.00420997)
(0.0681853 0.190445 -0.000684237)
(0.0466714 0.162867 -0.00303561)
(0.0298107 0.135267 0.000223877)
(0.00932221 0.112102 0.00319732)
(-0.00662708 0.0869163 0.00925483)
(-0.0204774 0.0624393 0.00959818)
(-0.0418164 0.0404215 0.0127857)
(-0.0720758 0.0176769 0.00618828)
(-0.104175 0.00636148 0.00797008)
(-0.12698 -0.00585183 0.0105506)
(-0.145435 -0.0161059 0.0105038)
(-0.175195 -0.0316733 0.00725936)
(-0.220187 -0.0501356 0.0050059)
(-0.279344 -0.0869362 0.00426224)
(-0.338376 -0.155091 0.00577404)
(-0.372309 -0.246506 0.00386204)
(-0.366597 -0.377347 -0.00878633)
(-0.348802 -0.518352 -0.0260331)
(-0.322083 -0.639088 -0.0472365)
(-0.252095 -0.687726 -0.0769883)
(-0.140981 -0.598338 -0.083964)
(-0.0293679 -0.319585 -0.0759982)
(0.0134562 -0.0200356 -0.00532316)
(0.000473842 0.259857 -0.000169726)
(0.0372564 0.492769 -0.033993)
(0.108549 0.614351 -0.043167)
(0.187469 0.665681 -0.0380334)
(0.25364 0.665683 -0.0239041)
(0.302137 0.641946 -0.015942)
(0.342634 0.605904 -0.0059366)
(0.374713 0.567539 -0.0022821)
(0.374219 0.527584 -0.00242973)
(0.340973 0.490882 -0.00181204)
(0.298688 0.451595 -0.00127353)
(0.251138 0.409081 -0.000721512)
(0.206376 0.362952 -0.000521573)
(0.168433 0.318352 0.000767381)
(0.139584 0.274332 0.000382614)
(0.118598 0.235012 0.00238678)
(0.0979156 0.197741 0.00271122)
(0.0803135 0.165839 0.00454439)
(0.06154 0.14039 0.00473843)
(0.0395156 0.115982 -0.000586741)
(0.0217771 0.0934538 0.00361996)
(0.00474711 0.0724945 0.00642109)
(-0.0112701 0.0479475 0.00935266)
(-0.0281426 0.0262441 0.0106384)
(-0.0527475 0.00701535 0.00805498)
(-0.0793069 -0.00525662 0.0106922)
(-0.0973273 -0.0151125 0.0120564)
(-0.115121 -0.0282329 0.0128896)
(-0.141326 -0.0446523 0.0119558)
(-0.178423 -0.0621932 0.0108317)
(-0.224439 -0.0833062 0.00948781)
(-0.276982 -0.112124 0.00694492)
(-0.340718 -0.157743 0.00328117)
(-0.388844 -0.244033 0.000252445)
(-0.392038 -0.362793 -0.00489313)
(-0.368114 -0.499731 -0.0152203)
(-0.29435 -0.596552 -0.028685)
(-0.179278 -0.586094 -0.055077)
(-0.0235209 -0.357079 -0.0535502)
(0.0428684 0.0013439 -0.0264103)
(0.0028008 0.257531 0.00393936)
(0.0405586 0.470417 -0.0251379)
(0.107801 0.593831 -0.0344478)
(0.182105 0.650024 -0.0322666)
(0.246808 0.656595 -0.0166156)
(0.295972 0.633799 -0.0111126)
(0.337458 0.596784 -0.00159669)
(0.367468 0.554805 0.00171266)
(0.368626 0.506374 0.00154975)
(0.339043 0.466101 0.00212743)
(0.296619 0.424664 0.00257847)
(0.248025 0.381953 0.00296962)
(0.204414 0.338455 0.00338662)
(0.169896 0.29725 0.00335436)
(0.142361 0.256544 0.0036419)
(0.119464 0.217672 0.00530938)
(0.104426 0.178802 0.0079728)
(0.0902184 0.147556 0.00947515)
(0.0731897 0.11899 0.00953548)
(0.0563094 0.0982557 0.0112214)
(0.0367019 0.0769523 0.00515786)
(0.0168747 0.0582126 0.00642695)
(0.00135959 0.0366061 0.0112029)
(-0.0143973 0.0180806 0.00896388)
(-0.03363 -0.00236344 0.00895242)
(-0.0531691 -0.0135929 0.00986411)
(-0.0713691 -0.0268347 0.0108122)
(-0.0880769 -0.0417009 0.0121804)
(-0.109401 -0.0603095 0.0132608)
(-0.139672 -0.080688 0.0140679)
(-0.181632 -0.103117 0.0144564)
(-0.226391 -0.136713 0.015002)
(-0.27551 -0.178042 0.0163272)
(-0.307878 -0.234935 0.0150626)
(-0.331028 -0.312505 0.00909257)
(-0.346059 -0.43512 0.000785986)
(-0.320312 -0.531595 -0.0149644)
(-0.225429 -0.559514 -0.0388439)
(-0.0606509 -0.351266 -0.0519108)
(0.0251521 0.0241268 -0.0170328)
(0.00766086 0.235483 0.000720978)
(0.0455687 0.426673 -0.0214441)
(0.105899 0.555869 -0.0296797)
(0.178218 0.614985 -0.0284537)
(0.241566 0.629093 -0.0161148)
(0.290603 0.608888 -0.00844532)
(0.334294 0.572511 3.93537e-05)
(0.361019 0.52942 0.0037452)
(0.362401 0.478779 0.00439146)
(0.336569 0.435378 0.00489387)
(0.293391 0.392363 0.00582254)
(0.246624 0.351453 0.00677424)
(0.20628 0.312294 0.00703414)
(0.172747 0.274034 0.00757497)
(0.146328 0.23553 0.00796489)
(0.125953 0.200018 0.00909826)
(0.11077 0.16503 0.00968012)
(0.100561 0.133332 0.0103258)
(0.0888678 0.100648 0.0102375)
(0.0706534 0.0775734 0.00854752)
(0.0520237 0.0625196 0.00943398)
(0.0327496 0.045588 0.00869162)
(0.0159682 0.0286145 0.00637101)
(0.000344544 0.011133 0.0082293)
(-0.0157849 -0.00671092 0.00883461)