/*--------------------------------*- C++ -*----------------------------------*\
| =========                 |                                                 |
| \\      /  F ield         | OpenFOAM: The Open Source CFD Toolbox           |
|  \\    /   O peration     | Version:  v1806                                 |
|   \\  /    A nd           | Web:      www.OpenFOAM.com                      |
|    \\/     M anipulation  |                                                 |
\*---------------------------------------------------------------------------*/
FoamFile
{
    version     2.0;
    format      ascii;
    class       volVectorField;
    location    "0.1135";
    object      U;
}
// * * * * * * * * * * * * * * * * * * * * * * * * * * * * * * * * * * * * * //

dimensions      [0 1 -1 0 0 0 0];


internalField   nonuniform List<vector> 
64000
(
(-0.0116071 -0.0140315 -0.00998179)
(0.0168497 -0.0133072 -0.00740349)
(0.0230707 -0.00454135 7.20679e-05)
(0.0281313 -0.00365809 0.00124584)
(0.0296433 -0.00258256 0.00155971)
(0.0306811 -0.00315303 0.00191216)
(0.0311867 -0.00409195 0.00185667)
(0.0293563 -0.00484242 0.00240151)
(0.029383 -0.00595912 0.0029861)
(0.0244753 -0.005894 0.00430623)
(0.0192509 -0.00739057 0.00264895)
(0.0100022 -0.00740871 0.00842398)
(-0.0015104 -0.0121673 0.0061486)
(-0.0239442 -0.0177313 0.00429319)
(-0.0480253 -0.0188197 0.00413892)
(-0.0828282 -0.019771 0.00293808)
(-0.104059 -0.0029587 0.000689174)
(-0.148542 -0.00506927 -0.0033234)
(-0.14043 -0.00888783 0.00278982)
(-0.203856 -0.0256901 -0.0115931)
(-0.174578 -0.0191116 -0.0172465)
(-0.0832979 -0.0219237 -0.0368253)
(-0.101168 -0.00494802 -0.0222349)
(-0.100194 -0.00191847 -0.0365084)
(-0.122909 0.00427264 -0.0472524)
(-0.11641 0.0121571 -0.0576996)
(-0.106274 0.0226232 -0.0620562)
(-0.0692229 0.0329828 -0.0591705)
(-0.0360933 0.0407891 -0.0543796)
(0.00833022 0.0519054 -0.0409067)
(0.0531532 0.0499301 -0.0325338)
(0.0908498 0.0395431 -0.0257684)
(0.106143 0.0295245 -0.0126938)
(0.103463 0.0154949 -0.0054912)
(0.0891235 0.00667065 0.000957397)
(0.0706828 -0.00138957 0.00348726)
(0.0514895 -0.0055582 0.00443055)
(0.0311985 -0.00521542 0.00529516)
(0.0166748 -0.00385174 0.00555271)
(0.0025674 -0.00244829 0.00354547)
(-0.00819329 0.00371866 -0.00603967)
(0.00842024 -0.0174901 -0.00608865)
(0.0237094 -0.0111773 -0.00252974)
(0.0354101 -0.00767895 -0.000921951)
(0.0419337 -0.00317254 -0.00165733)
(0.0431384 -0.00125695 -0.00180563)
(0.0428144 0.0022157 -0.00382594)
(0.0369052 0.0038532 -0.00293526)
(0.0311509 0.00706177 -0.00836213)
(0.0147439 0.0143252 -0.0035667)
(-0.00560963 0.0216119 -0.00797139)
(-0.0391399 0.0308274 0.000318223)
(-0.082953 0.0397399 -0.00370374)
(-0.133764 0.0574144 -0.00653643)
(-0.189063 0.0725282 -0.0117756)
(-0.244833 0.0820755 -0.0170501)
(-0.311681 0.0905515 -0.0436231)
(-0.414741 0.092295 -0.0596443)
(-0.455625 0.0995535 -0.0776951)
(-0.546761 0.101458 -0.095538)
(-0.495264 0.128772 -0.0883118)
(-0.372682 0.145072 -0.124141)
(-0.373329 0.192307 -0.130939)
(-0.359399 0.213825 -0.143487)
(-0.3559 0.237979 -0.155556)
(-0.316364 0.258989 -0.162502)
(-0.271061 0.280165 -0.164048)
(-0.19819 0.295333 -0.152516)
(-0.125527 0.302009 -0.132989)
(-0.0524206 0.305823 -0.10941)
(0.0103199 0.291447 -0.0760561)
(0.0743954 0.259947 -0.0460297)
(0.111456 0.211837 -0.0385279)
(0.123821 0.15984 -0.0257111)
(0.118411 0.109581 -0.0123847)
(0.0996443 0.0698791 -0.0049151)
(0.079861 0.0416141 -0.00063554)
(0.0551076 0.0266305 0.00028868)
(0.0329272 0.0168602 0.00150016)
(0.00812636 0.00872343 0.00135911)
(-0.000559008 -0.0031736 0.0013639)
(0.0150933 -0.0227388 -0.00245047)
(0.0316686 -0.0173585 -0.00323759)
(0.0432211 -0.00554654 -0.0042924)
(0.0466651 0.00301893 -0.00610627)
(0.0453072 0.013408 -0.00768523)
(0.0392489 0.0275294 -0.00889917)
(0.0245613 0.0403902 -0.0107672)
(0.0113282 0.0642708 -0.00244809)
(-0.0163682 0.0849913 -0.00408694)
(-0.0535241 0.11224 -0.00811624)
(-0.103399 0.141436 -0.0126073)
(-0.155277 0.177904 -0.0174402)
(-0.22851 0.206951 -0.0314744)
(-0.317458 0.228382 -0.0372773)
(-0.41376 0.243783 -0.0436419)
(-0.491428 0.249478 -0.0609554)
(-0.57783 0.265882 -0.0801051)
(-0.61168 0.298715 -0.0981187)
(-0.68856 0.336035 -0.115457)
(-0.621541 0.372909 -0.0996056)
(-0.471586 0.40796 -0.124102)
(-0.449858 0.463948 -0.121844)
(-0.424281 0.49317 -0.122653)
(-0.412001 0.524995 -0.126427)
(-0.367776 0.545707 -0.125569)
(-0.321925 0.560309 -0.120883)
(-0.255139 0.56258 -0.105192)
(-0.191806 0.552656 -0.082487)
(-0.125559 0.531691 -0.059208)
(-0.0717965 0.499915 -0.0391902)
(-0.0269503 0.451078 -0.0275878)
(0.00579339 0.378519 -0.0166443)
(0.0291015 0.305203 -0.00822026)
(0.04227 0.226353 -0.0103608)
(0.0485584 0.16219 -0.0106618)
(0.0487229 0.11551 -0.00684206)
(0.0393036 0.0788862 -0.00478557)
(0.0278889 0.0530129 -0.0013321)
(0.00818934 0.0274901 0.00121005)
(0.00122788 -0.00861462 0.00221228)
(0.0178619 -0.0247946 -0.00159113)
(0.0378963 -0.0123216 -0.00420817)
(0.0451833 0.00406297 -0.00769033)
(0.0435579 0.0275577 -0.00816981)
(0.0407009 0.05096 -0.00944794)
(0.0282672 0.0848013 -0.00922913)
(0.011473 0.116037 -0.00487273)
(-0.0132156 0.161652 -0.0107418)
(-0.057334 0.199902 -0.0127248)
(-0.102736 0.24404 -0.0175847)
(-0.161312 0.282167 -0.0235613)
(-0.238258 0.312342 -0.0292942)
(-0.328624 0.328398 -0.0300226)
(-0.40938 0.350722 -0.0333737)
(-0.4866 0.373658 -0.0377082)
(-0.549337 0.405889 -0.0540138)
(-0.622376 0.435188 -0.0643372)
(-0.642477 0.481172 -0.0748986)
(-0.708671 0.5305 -0.0785642)
(-0.629375 0.561033 -0.0402379)
(-0.457931 0.588547 -0.0453063)
(-0.423236 0.627579 -0.0364629)
(-0.396976 0.632438 -0.0291087)
(-0.385567 0.645438 -0.027868)
(-0.35008 0.644675 -0.0235482)
(-0.315989 0.637164 -0.0200865)
(-0.265698 0.617006 -0.0119908)
(-0.219935 0.590526 0.000296967)
(-0.174189 0.556238 0.00763562)
(-0.144852 0.514222 0.012262)
(-0.118708 0.4681 0.0109749)
(-0.0948682 0.408059 0.00497531)
(-0.0715735 0.346081 -0.00275735)
(-0.0475801 0.267813 -0.00621567)
(-0.0175872 0.20117 -0.0106346)
(0.00238764 0.147272 -0.0106888)
(0.0102731 0.111711 -0.00796475)
(0.0176609 0.0787717 -0.00349068)
(0.00659775 0.0400699 0.000979613)
(0.00085808 -0.00937818 0.000440275)
(0.0228342 -0.0146435 -0.00374643)
(0.0447477 0.00248756 -0.00841925)
(0.053699 0.0350824 -0.00877665)
(0.0518114 0.0721264 -0.00896668)
(0.045568 0.117042 -0.0148067)
(0.0279102 0.172816 -0.0126305)
(0.00187561 0.228052 -0.00584729)
(-0.028624 0.284485 -0.00866723)
(-0.0797736 0.331759 -0.0109667)
(-0.136159 0.370509 -0.0143111)
(-0.210454 0.393865 -0.0167083)
(-0.28343 0.413824 -0.0172724)
(-0.35245 0.438484 -0.0202327)
(-0.417332 0.468845 -0.0225729)
(-0.485649 0.501743 -0.0234646)
(-0.536029 0.5326 -0.0288454)
(-0.591855 0.563549 -0.0275002)
(-0.591013 0.62202 -0.0208313)
(-0.642188 0.672299 -0.0284261)
(-0.564723 0.69839 0.0112042)
(-0.386954 0.708181 0.0181045)
(-0.349071 0.717299 0.0324724)
(-0.33215 0.686639 0.0366948)
(-0.333454 0.670511 0.0360817)
(-0.317102 0.642926 0.041578)
(-0.302681 0.611168 0.0428201)
(-0.271186 0.57287 0.0468854)
(-0.246065 0.530866 0.0400146)
(-0.219892 0.489571 0.0312102)
(-0.201488 0.443647 0.0208513)
(-0.190773 0.409638 0.0137687)
(-0.181238 0.37091 0.00674875)
(-0.171418 0.339867 -0.00532545)
(-0.148152 0.277751 -0.0142591)
(-0.0994868 0.208745 -0.014928)
(-0.0487442 0.161305 -0.0137771)
(-0.0146614 0.131659 -0.0118124)
(0.00394536 0.0977145 -0.00612635)
(0.00372987 0.0503493 0.001071)
(0.00483426 -0.00250147 -0.000245709)
(0.0275974 0.00242695 -0.00650731)
(0.0580612 0.0299127 -0.00753661)
(0.0688137 0.0803542 -0.00964812)
(0.0643177 0.137239 -0.0146319)
(0.0631128 0.200112 -0.0181454)
(0.0435171 0.274208 -0.0146654)
(0.0108484 0.32631 -0.00539464)
(-0.0349704 0.371521 -0.0077435)
(-0.102156 0.406113 -0.00991988)
(-0.168105 0.436231 -0.0120379)
(-0.230796 0.463747 -0.0117314)
(-0.285984 0.49669 -0.0101941)
(-0.342037 0.527542 -0.00675016)
(-0.387552 0.555186 -0.00139583)
(-0.43788 0.584206 0.00445952)
(-0.469568 0.614433 0.0084235)
(-0.495722 0.64603 0.0107463)
(-0.484719 0.695438 0.00754397)
(-0.52727 0.738195 0.00963655)
(-0.453562 0.757456 0.0457626)
(-0.295832 0.717888 0.0563229)
(-0.276099 0.696675 0.0693498)
(-0.281001 0.634208 0.0773637)
(-0.296054 0.595965 0.0778865)
(-0.299117 0.552182 0.0762405)
(-0.300479 0.510432 0.0733902)
(-0.28899 0.466927 0.06619)
(-0.276575 0.419735 0.0640317)
(-0.264201 0.379857 0.0420312)
(-0.255322 0.335597 0.0298969)
(-0.243747 0.304386 0.0139827)
(-0.229338 0.277377 0.00394987)
(-0.233205 0.265827 -0.00736436)
(-0.234947 0.241883 -0.0183495)
(-0.171126 0.193247 -0.0150602)
(-0.0893555 0.162028 -0.0154948)
(-0.0381475 0.136609 -0.0121371)
(-0.0037183 0.105198 -0.00694293)
(0.00277735 0.0538529 0.00172062)
(0.00481168 0.00385805 -0.00174211)
(0.0366765 0.0178856 -0.00973973)
(0.079165 0.0583155 -0.0108908)
(0.101867 0.113768 -0.0130961)
(0.0983793 0.180404 -0.0187268)
(0.0950787 0.253073 -0.0216746)
(0.0556314 0.314928 -0.016098)
(-0.0050466 0.34569 -0.00113831)
(-0.0515086 0.388125 -0.00679477)
(-0.106277 0.42498 -0.00700454)
(-0.151191 0.46758 -0.00682518)
(-0.198949 0.510139 -0.0045597)
(-0.241992 0.549704 -0.000543449)
(-0.286037 0.582484 0.00383439)
(-0.321749 0.61515 0.012628)
(-0.355213 0.640121 0.0174353)
(-0.371499 0.668434 0.0250631)
(-0.392612 0.684184 0.0280439)
(-0.366269 0.703403 0.0307708)
(-0.389358 0.715665 0.017026)
(-0.377157 0.736736 0.0424062)
(-0.249833 0.629771 0.0592122)
(-0.223625 0.590988 0.0672537)
(-0.245484 0.523978 0.0758902)
(-0.271856 0.486693 0.0746781)
(-0.29254 0.447713 0.0729164)
(-0.310133 0.414532 0.0685548)
(-0.31577 0.379286 0.060193)
(-0.316256 0.34242 0.045972)
(-0.316477 0.307424 0.0287951)
(-0.313587 0.273972 0.0148801)
(-0.305179 0.245205 0.00097333)
(-0.289254 0.223763 -0.00591953)
(-0.280666 0.208363 -0.013565)
(-0.283241 0.218475 -0.0209763)
(-0.222956 0.19378 -0.0214052)
(-0.124299 0.16818 -0.0219296)
(-0.0534815 0.147413 -0.0169973)
(-0.00902528 0.114785 -0.0106262)
(0.00269843 0.059087 0.00013546)
(0.00615224 0.0108759 -0.00422346)
(0.0445529 0.0374727 -0.0135937)
(0.0978285 0.0858074 -0.0140197)
(0.123132 0.142234 -0.012185)
(0.126711 0.201905 -0.0136185)
(0.111072 0.272572 -0.0161238)
(0.0505281 0.302557 -0.00529101)
(0.00610162 0.350762 0.00173058)
(-0.0217565 0.395034 -0.00254895)
(-0.0698081 0.449286 -0.000543889)
(-0.108127 0.492703 0.000298643)
(-0.147807 0.530574 0.00651415)
(-0.182329 0.561546 0.0123852)
(-0.212007 0.587111 0.0211884)
(-0.233892 0.611371 0.0255917)
(-0.259957 0.624706 0.030536)
(-0.272697 0.636522 0.0341075)
(-0.289685 0.631207 0.0334979)
(-0.280326 0.634018 0.0313145)
(-0.289674 0.595917 0.0165078)
(-0.323991 0.61573 0.020686)
(-0.245837 0.514845 0.0413201)
(-0.200104 0.460877 0.0443555)
(-0.230949 0.414428 0.0552139)
(-0.264197 0.386305 0.0572471)
(-0.297696 0.360447 0.0579253)
(-0.325347 0.337426 0.05835)
(-0.34355 0.311042 0.049571)
(-0.355789 0.284583 0.0382193)
(-0.362322 0.254307 0.0148554)
(-0.363976 0.222647 0.00417846)
(-0.353908 0.197331 -0.0052366)
(-0.338028 0.184219 -0.0128615)
(-0.31669 0.173018 -0.0156227)
(-0.322207 0.19314 -0.0249337)
(-0.272931 0.196915 -0.0210406)
(-0.159228 0.173234 -0.0223897)
(-0.0721842 0.156011 -0.0169779)
(-0.01408 0.121185 -0.0102015)
(0.00335721 0.0622876 0.00107033)
(0.00482926 0.0258318 -0.0070305)
(0.0530005 0.0697568 -0.0176013)
(0.118143 0.12511 -0.0193556)
(0.149609 0.18122 -0.0141015)
(0.157106 0.241867 -0.0157512)
(0.123319 0.290643 -0.0151681)
(0.0720006 0.326998 -0.00645811)
(0.0357174 0.385814 0.001329)
(0.0106516 0.422074 0.00760323)
(-0.0205382 0.463716 0.00659548)
(-0.057903 0.496461 0.011324)
(-0.0889147 0.524165 0.0157801)
(-0.113013 0.543358 0.0250918)
(-0.134059 0.554614 0.0314018)
(-0.15376 0.556891 0.034672)
(-0.175502 0.549233 0.0352005)
(-0.191836 0.540508 0.0341278)
(-0.213029 0.518382 0.0294115)
(-0.230108 0.504541 0.0227854)
(-0.23617 0.460969 0.0106318)
(-0.28698 0.465232 -0.00207044)
(-0.264019 0.415698 0.0159665)
(-0.20577 0.352387 0.0229536)
(-0.227334 0.333587 0.0325053)
(-0.264903 0.315547 0.0388284)
(-0.305231 0.300124 0.0430431)
(-0.342093 0.284965 0.047565)
(-0.368696 0.263637 0.0417869)
(-0.390754 0.242002 0.0244401)
(-0.407972 0.208914 0.00635078)
(-0.409984 0.183731 -0.00333161)
(-0.396348 0.160325 -0.0106199)
(-0.380588 0.146221 -0.0142635)
(-0.349791 0.145477 -0.0246387)
(-0.338109 0.157449 -0.0274203)
(-0.30376 0.192183 -0.0304855)
(-0.195706 0.176181 -0.025634)
(-0.0882147 0.165692 -0.0241171)
(-0.0195037 0.130989 -0.0130875)
(0.00425441 0.0686515 -0.00103007)
(0.00732296 0.0426224 -0.00962652)
(0.062237 0.107542 -0.0255056)
(0.136718 0.167082 -0.0247678)
(0.175426 0.221257 -0.0163866)
(0.174404 0.273752 -0.0164874)
(0.142941 0.306114 -0.0176345)
(0.105534 0.354845 -0.00666546)
(0.0741349 0.400202 0.00461061)
(0.0460638 0.439292 0.0117453)
(0.020148 0.463577 0.0220594)
(-0.00284627 0.485809 0.0215099)
(-0.0294797 0.497597 0.0299126)
(-0.053312 0.501107 0.0360314)
(-0.0735598 0.492841 0.0418738)
(-0.0927101 0.473746 0.0432334)
(-0.116183 0.44751 0.0403014)
(-0.138976 0.421547 0.0344528)
(-0.164612 0.390149 0.0264797)
(-0.193474 0.368371 0.0175084)
(-0.20587 0.342045 0.00761756)
(-0.26018 0.33336 -0.0114249)
(-0.27752 0.32407 -0.000598784)
(-0.21707 0.28348 0.0110748)
(-0.220937 0.280288 0.017485)
(-0.26253 0.266877 0.0283007)
(-0.305781 0.259031 0.0351709)
(-0.347934 0.242603 0.0439628)
(-0.382961 0.227597 0.0358572)
(-0.413919 0.199482 0.025541)
(-0.429457 0.172731 0.00829955)
(-0.435479 0.145067 0.00841863)
(-0.429215 0.121155 0.0156054)
(-0.409206 0.102069 0.0108801)
(-0.380552 0.10184 0.00810311)
(-0.359154 0.114223 -0.0153595)
(-0.327707 0.161001 -0.0258072)
(-0.226691 0.171403 -0.0249098)
(-0.107133 0.163926 -0.020525)
(-0.0256501 0.136783 -0.012243)
(0.00503931 0.0714454 0.00024729)
(0.00831239 0.0668875 -0.0120154)
(0.0713687 0.151539 -0.0314262)
(0.155037 0.214418 -0.0306483)
(0.197745 0.263584 -0.0192302)
(0.194051 0.30021 -0.0134053)
(0.169206 0.336127 -0.0165442)
(0.145085 0.376329 -0.00579823)
(0.114668 0.413546 0.000954314)
(0.0907555 0.441773 0.00870857)
(0.0638804 0.46199 0.0229088)
(0.0380808 0.467902 0.0344105)
(0.0174355 0.465229 0.0440448)
(-0.000930421 0.452722 0.0479862)
(-0.0249667 0.42578 0.0482068)
(-0.0512815 0.398027 0.0484629)
(-0.0773913 0.361389 0.0429156)
(-0.106355 0.331132 0.0337931)
(-0.137781 0.301661 0.0231278)
(-0.170896 0.280352 0.0133426)
(-0.190175 0.266683 0.00296082)
(-0.240643 0.254902 -0.013069)
(-0.264919 0.257421 -0.00640249)
(-0.209686 0.25025 0.00510078)
(-0.209513 0.244582 0.0104225)
(-0.249479 0.233701 0.0228351)
(-0.29609 0.223178 0.0308637)
(-0.343395 0.210159 0.0390336)
(-0.382556 0.189398 0.0345427)
(-0.417716 0.165322 0.0219669)
(-0.442023 0.135485 0.0302324)
(-0.457193 0.100207 0.0317756)
(-0.457291 0.0719919 0.0167534)
(-0.442016 0.0545666 0.0119233)
(-0.406816 0.0516097 0.00186111)
(-0.367849 0.0640341 -0.00187105)
(-0.337733 0.112612 -0.0239203)
(-0.25228 0.149475 -0.0279208)
(-0.125235 0.16014 -0.0226194)
(-0.0293274 0.140046 -0.0139462)
(0.00436806 0.0760475 -0.00135811)
(0.00977024 0.0867209 -0.0127076)
(0.0773158 0.191479 -0.0353553)
(0.168405 0.256667 -0.0338078)
(0.210579 0.294775 -0.0185129)
(0.213618 0.32356 -0.0120308)
(0.199826 0.357611 -0.00918243)
(0.179492 0.389807 -0.00767618)
(0.153757 0.413541 0.00406301)
(0.127771 0.433675 0.0102539)
(0.102658 0.44044 0.0204083)
(0.0813604 0.441748 0.0286516)
(0.0565705 0.428512 0.0490812)
(0.0288275 0.403997 0.0535533)
(0.00917257 0.367408 0.0559187)
(-0.0167453 0.330548 0.048162)
(-0.0499148 0.297646 0.0422501)
(-0.0801833 0.269446 0.0304635)
(-0.115116 0.247062 0.0188039)
(-0.149032 0.232396 0.00940534)
(-0.173833 0.227792 -0.00118368)
(-0.223482 0.218828 -0.01375)
(-0.239225 0.221067 -0.0074142)
(-0.189016 0.229188 0.000872002)
(-0.189364 0.215297 0.00622231)
(-0.227738 0.202382 0.0181958)
(-0.27194 0.187429 0.0270498)
(-0.322016 0.173976 0.0338367)
(-0.364398 0.152072 0.0265363)
(-0.404377 0.126141 0.0403092)
(-0.438849 0.0911055 0.046357)
(-0.4609 0.0568277 0.0382836)
(-0.464382 0.0293572 0.0476824)
(-0.456384 0.00739746 0.0384011)
(-0.43416 0.00215523 0.0365584)
(-0.394449 0.00999064 0.025346)
(-0.353121 0.0555577 0.00489631)
(-0.266525 0.110241 -0.0235899)
(-0.140037 0.1442 -0.0242582)
(-0.0360924 0.136014 -0.0132682)
(0.00570428 0.0763023 -0.00115197)
(0.0100931 0.107824 -0.0116162)
(0.0818964 0.231421 -0.037559)
(0.173947 0.297507 -0.0364801)
(0.223065 0.3269 -0.0193803)
(0.237508 0.351246 -0.00681738)
(0.230506 0.375952 -0.00127274)
(0.211108 0.398895 0.0021362)
(0.186654 0.4131 0.00265105)
(0.165574 0.42183 0.0121414)
(0.141151 0.42222 0.0230336)
(0.116561 0.41227 0.0318409)
(0.0896433 0.390079 0.0394104)
(0.0625549 0.359695 0.0474641)
(0.0315222 0.323163 0.0547544)
(0.00588984 0.281421 0.0502742)
(-0.0223831 0.249069 0.0386741)
(-0.0584349 0.227 0.0269245)
(-0.0934091 0.209697 0.014833)
(-0.125319 0.200189 0.0069899)
(-0.152032 0.198922 -0.00308952)
(-0.198642 0.191504 -0.0116651)
(-0.19981 0.196836 -0.00513802)
(-0.156621 0.207263 1.21063e-05)
(-0.164719 0.186698 0.00424337)
(-0.196362 0.169274 0.0153789)
(-0.239522 0.152058 0.0234819)
(-0.287291 0.132665 0.0278004)
(-0.333471 0.112052 0.038619)
(-0.380697 0.0816134 0.0499634)
(-0.421597 0.0482525 0.0491717)
(-0.447821 0.0173723 0.0688065)
(-0.471029 -0.0209873 0.0503631)
(-0.477905 -0.0600342 0.034182)
(-0.461389 -0.0815133 0.0109071)
(-0.417904 -0.0713804 0.00388298)
(-0.372444 -0.0259418 0.00584513)
(-0.288811 0.0583733 -0.000600801)
(-0.156655 0.113547 -0.0288286)
(-0.0412696 0.127142 -0.0128536)
(0.00513122 0.077351 -0.00249106)
(0.00942519 0.116396 -0.0111388)
(0.0798817 0.255986 -0.0404282)
(0.174589 0.32536 -0.0410214)
(0.230185 0.352827 -0.0224507)
(0.255421 0.368373 -0.0042649)
(0.255436 0.381674 0.00548526)
(0.237849 0.393671 0.0113148)
(0.214111 0.401144 0.0137715)
(0.19331 0.403886 0.0168662)
(0.170441 0.397391 0.0208582)
(0.147041 0.380626 0.026394)
(0.117537 0.35279 0.0374275)
(0.0849804 0.319466 0.0387093)
(0.0541591 0.28125 0.0420831)
(0.0233762 0.248491 0.0462993)
(-0.00305846 0.21334 0.0367685)
(-0.0333175 0.196656 0.0225851)
(-0.0692708 0.182123 0.0118322)
(-0.0969666 0.174913 0.00508037)
(-0.123921 0.175694 -0.00403878)
(-0.162749 0.164934 -0.00876193)
(-0.150477 0.18203 -0.00142059)
(-0.119954 0.181891 -0.00146493)
(-0.134629 0.157162 0.00411895)
(-0.160937 0.136647 0.0115973)
(-0.199771 0.112718 0.0193518)
(-0.244929 0.0938118 0.0232203)
(-0.290592 0.0678215 0.041168)
(-0.341303 0.0401901 0.0473102)
(-0.382134 0.0109806 0.0681992)
(-0.431995 -0.0301984 0.0512633)
(-0.476418 -0.0828269 0.040601)
(-0.493262 -0.1287 0.0256505)
(-0.479159 -0.161544 0.0128083)
(-0.436994 -0.164452 -0.00866262)
(-0.376419 -0.127231 -0.00726304)
(-0.295969 -0.0259711 -0.0013999)
(-0.176626 0.0692381 -0.0156972)
(-0.0472846 0.109381 -0.0190381)
(0.0071873 0.074617 -0.000846176)
(0.00812177 0.123997 -0.00872602)
(0.0790243 0.277969 -0.0395199)
(0.175229 0.352448 -0.0422961)
(0.23765 0.377053 -0.0232254)
(0.269935 0.384714 -0.00233287)
(0.27452 0.385062 0.0119221)
(0.261266 0.387815 0.0218431)
(0.241448 0.388914 0.0242684)
(0.223152 0.387294 0.0266782)
(0.199041 0.375458 0.0283031)
(0.172182 0.354915 0.0292803)
(0.142523 0.323588 0.0279525)
(0.110235 0.289007 0.0273474)
(0.076813 0.2519 0.0303815)
(0.0427916 0.21988 0.0334314)
(0.0168172 0.193244 0.0321908)
(-0.00919564 0.169632 0.0183026)
(-0.0433798 0.160022 0.00881631)
(-0.0638933 0.154936 0.00385983)
(-0.0920893 0.149425 -0.00550192)
(-0.113882 0.145558 -0.0033058)
(-0.0958244 0.169197 0.000841705)
(-0.0880866 0.152844 0.00131656)
(-0.105391 0.127599 0.00457785)
(-0.128297 0.102165 0.010612)
(-0.16101 0.0765515 0.0151835)
(-0.200352 0.0545721 0.0299667)
(-0.245566 0.0293312 0.0387381)
(-0.289297 0.00480461 0.0554383)
(-0.34664 -0.0320997 0.048395)
(-0.40903 -0.0843572 0.0435242)
(-0.45898 -0.136122 0.033117)
(-0.490208 -0.187174 0.0206111)
(-0.492202 -0.229487 0.00436574)
(-0.456983 -0.249215 -0.0134678)
(-0.388951 -0.221842 -0.0198816)
(-0.300035 -0.134836 -0.0179712)
(-0.186841 0.00897445 0.00303188)
(-0.0574043 0.0829103 -0.0232687)
(0.00522415 0.0712341 -0.00184271)
(0.00581861 0.10864 -0.00922329)
(0.0726986 0.275518 -0.0399493)
(0.169479 0.356219 -0.0419214)
(0.236813 0.381998 -0.0224087)
(0.276324 0.384327 0.00126131)
(0.28894 0.381021 0.0158003)
(0.282772 0.378647 0.0222503)
(0.264768 0.372662 0.0264077)
(0.244995 0.362576 0.0280701)
(0.220972 0.346732 0.028609)
(0.194645 0.324496 0.0276324)
(0.162792 0.295819 0.0249292)
(0.127965 0.262552 0.0201993)
(0.0946013 0.227736 0.0137437)
(0.0639085 0.198025 0.0152129)
(0.0335813 0.175821 0.0200948)
(0.0120338 0.155767 0.0140259)
(-0.00915198 0.14127 0.00469967)
(-0.0328223 0.136397 -0.000286084)
(-0.0531851 0.129352 -0.00458241)
(-0.0552433 0.143258 0.00119512)
(-0.0507261 0.145029 0.00251123)
(-0.0627465 0.123788 0.00432857)
(-0.0797224 0.0977271 0.00615458)
(-0.0999239 0.0721666 0.0087845)
(-0.126241 0.0457867 0.0135975)
(-0.159956 0.0212905 0.0243076)
(-0.195856 -0.00412067 0.0386413)
(-0.24749 -0.0354804 0.039872)
(-0.308662 -0.0826442 0.0404765)
(-0.36902 -0.129983 0.0362183)
(-0.425442 -0.18606 0.0305329)
(-0.466031 -0.243927 0.0194433)
(-0.482971 -0.298611 0.00499344)
(-0.461001 -0.33232 -0.0137035)
(-0.401427 -0.323056 -0.0261936)
(-0.296519 -0.246489 -0.029312)
(-0.19104 -0.0932014 -0.017769)
(-0.0689153 0.0422914 -0.0159993)
(0.00686813 0.0612264 -0.00529293)
(0.00727623 0.110274 -0.00242523)
(0.0732103 0.283561 -0.032378)
(0.168589 0.368354 -0.0370953)
(0.241825 0.391627 -0.0168845)
(0.290884 0.38822 0.00825487)
(0.311858 0.376312 0.0161568)
(0.306523 0.367231 0.024965)
(0.287533 0.354435 0.0268332)
(0.268792 0.342933 0.026335)
(0.24583 0.324373 0.0234979)
(0.219709 0.301183 0.0201652)
(0.188515 0.269475 0.0156058)
(0.152388 0.236714 0.0101383)
(0.117156 0.202657 0.00634471)
(0.0860065 0.174358 0.00208301)
(0.0603286 0.15221 0.00418142)
(0.0356815 0.141355 0.00468382)
(0.0151637 0.134524 3.44621e-05)
(0.0049265 0.137118 -0.00230709)
(4.70861e-05 0.136791 -0.00112163)
(-0.00940327 0.139119 0.00226054)
(-0.0234347 0.118726 0.00508573)
(-0.0397218 0.0975401 0.00684604)
(-0.0581497 0.0722054 0.00765572)
(-0.076555 0.0472036 0.00947148)
(-0.0999383 0.0207064 0.0158099)
(-0.127622 -0.00420147 0.0267463)
(-0.166803 -0.0343641 0.0283596)
(-0.217787 -0.0726066 0.030911)
(-0.273003 -0.113577 0.0315433)
(-0.331745 -0.161042 0.0315759)
(-0.387671 -0.218106 0.0283967)
(-0.433094 -0.280284 0.0211027)
(-0.460167 -0.346282 0.00794983)
(-0.451945 -0.396075 -0.00976275)
(-0.402688 -0.411199 -0.0262911)
(-0.306205 -0.348966 -0.0379457)
(-0.188798 -0.206435 -0.029345)
(-0.0644386 -0.0134721 -0.00958839)
(0.00146451 0.0466237 -0.007913)
(-0.00268871 0.0881274 -0.0141202)
(0.0527146 0.270222 -0.0389443)
(0.150248 0.365855 -0.0448304)
(0.23195 0.391893 -0.0234995)
(0.291232 0.390107 -0.00182764)
(0.324543 0.37071 0.0121367)
(0.329569 0.35366 0.0185419)
(0.31382 0.332624 0.0200748)
(0.293867 0.314314 0.0179235)
(0.267268 0.300327 0.0148018)
(0.237264 0.287318 0.0114212)
(0.202395 0.270259 0.00889419)
(0.166037 0.246432 0.00553265)
(0.132161 0.216816 0.00296611)
(0.105525 0.190548 0.000278213)
(0.0854614 0.170461 0.0011541)
(0.0754567 0.164795 0.000927842)
(0.0675903 0.162073 -0.00300584)
(0.0520035 0.158189 -0.00488009)
(0.0332904 0.142714 -0.00289342)
(0.0127385 0.124399 0.000905584)
(-0.00500752 0.0993913 0.0053876)
(-0.0215169 0.0749987 0.00786288)
(-0.0406779 0.0499945 0.00932539)
(-0.0583776 0.0239187 0.0112139)
(-0.0781984 -0.00250408 0.0148191)
(-0.105725 -0.0295205 0.0152315)
(-0.142303 -0.0658377 0.0165024)
(-0.186975 -0.102733 0.018558)
(-0.236925 -0.147363 0.0208001)
(-0.290232 -0.195813 0.0223339)
(-0.343528 -0.256276 0.0220343)
(-0.391029 -0.322418 0.0175222)
(-0.42557 -0.398208 0.00784412)
(-0.430871 -0.462034 -0.00886018)
(-0.393061 -0.496964 -0.0244248)
(-0.305621 -0.453256 -0.0492454)
(-0.191591 -0.322332 -0.0422001)
(-0.0646491 -0.0972379 -0.0114023)
(0.000935915 0.031297 0.000762882)
(-0.00224323 0.156323 -0.00244422)
(0.0493508 0.354212 -0.0161552)
(0.139342 0.453996 -0.0270236)
(0.223732 0.476608 -0.00770985)
(0.292343 0.466931 -0.000832729)
(0.331517 0.434686 0.0151092)
(0.340585 0.398908 0.0198638)
(0.325828 0.374983 0.0224065)
(0.317816 0.372292 0.0196766)
(0.306364 0.370644 0.0142518)
(0.28309 0.362907 0.00759408)
(0.245028 0.345851 0.000981312)
(0.197084 0.317996 -0.00379483)
(0.155771 0.28354 -0.00549099)
(0.128495 0.252243 -0.00695381)
(0.118641 0.224955 -0.00433029)
(0.108314 0.203013 0.000435709)
(0.0888502 0.178847 -0.00552242)
(0.0667073 0.154988 -0.00932711)
(0.0479198 0.128383 -0.0050505)
(0.0286319 0.104153 -0.00201465)
(0.00751564 0.0788395 0.00282627)
(-0.00927035 0.0533497 0.00716878)
(-0.0286263 0.0268933 0.0100659)
(-0.0456651 0.00410306 0.0109043)
(-0.064971 -0.0214625 0.0106006)
(-0.094065 -0.0457925 0.00924576)
(-0.130808 -0.0770106 0.0085826)
(-0.172956 -0.109928 0.00990863)
(-0.217066 -0.152886 0.0124393)
(-0.263186 -0.200268 0.015591)
(-0.308524 -0.2615 0.0176151)
(-0.352751 -0.33257 0.01646)
(-0.389662 -0.418349 0.00958201)
(-0.402621 -0.501563 -0.00550133)
(-0.374898 -0.565266 -0.02435)
(-0.305335 -0.565321 -0.05421)
(-0.19475 -0.438248 -0.0554329)
(-0.0561831 -0.220013 -0.0283569)
(0.00581507 -0.0113381 -0.00146055)
(-0.016352 0.228648 -0.0194064)
(0.0204329 0.46821 -0.0387409)
(0.108231 0.578602 -0.0473579)
(0.193965 0.617552 -0.0309221)
(0.265764 0.608258 -0.0210862)
(0.312145 0.575349 -0.00235701)
(0.343092 0.528208 0.00572725)
(0.36717 0.492252 0.00709504)
(0.37201 0.473444 -0.000337597)
(0.343053 0.447516 -0.00625498)
(0.301646 0.414256 -0.0099924)
(0.249918 0.375194 -0.0112714)
(0.197382 0.330993 -0.0114717)
(0.158519 0.292598 -0.0112162)
(0.135137 0.259126 -0.011673)
(0.120174 0.228207 -0.0094347)
(0.110915 0.191231 -0.00530899)
(0.0998369 0.160724 0.00100715)
(0.0804437 0.133874 -0.00299615)
(0.0602852 0.110408 -0.00560658)
(0.0393267 0.0841879 -0.00274998)
(0.0186282 0.0578819 0.00144437)
(0.000182651 0.0323193 0.0071109)
(-0.015925 0.00474242 0.0101228)
(-0.0305252 -0.0182659 0.00985299)
(-0.0476076 -0.0459833 0.0100855)
(-0.073715 -0.0713562 0.00539458)
(-0.107586 -0.0995989 0.000748263)
(-0.147519 -0.132631 -0.00408024)
(-0.189231 -0.179503 -0.00644413)
(-0.231943 -0.227931 -0.00668314)
(-0.274512 -0.292049 -0.00649811)
(-0.315927 -0.362462 -0.00512953)
(-0.355064 -0.456508 -0.00707467)
(-0.381421 -0.552863 -0.0169222)
(-0.38144 -0.65117 -0.033198)
(-0.311679 -0.680169 -0.0574115)
(-0.225901 -0.580344 -0.0744131)
(-0.083222 -0.302772 -0.0341501)
(0.0161788 -0.0365076 -0.00344777)
(0.00122968 0.192543 0.00336577)
(0.0380428 0.434572 -0.034996)
(0.111278 0.559457 -0.0472689)
(0.197085 0.615616 -0.0433566)
(0.267716 0.618215 -0.0334091)
(0.31554 0.596256 -0.0219516)
(0.341475 0.555672 -0.0147254)
(0.355842 0.50826 -0.0060061)
(0.358258 0.457482 -0.00851034)
(0.333669 0.41448 -0.00887912)
(0.298399 0.374848 -0.00934818)
(0.251117 0.337271 -0.00852987)
(0.204617 0.298419 -0.00767179)
(0.173092 0.267242 -0.00698548)
(0.151322 0.237987 -0.00671798)
(0.135307 0.209553 -0.00494799)
(0.122441 0.179581 -0.00238164)
(0.110743 0.144856 0.000167001)
(0.0931595 0.116971 0.00393025)
(0.0723521 0.0910722 0.00107473)
(0.048059 0.0677797 -0.00194057)
(0.0260068 0.0416159 0.00160052)
(0.00704226 0.0181574 0.00807585)
(-0.00944571 -0.00960415 0.0105338)
(-0.0248303 -0.0334675 0.0118254)
(-0.0429238 -0.0627992 0.0145564)
(-0.0664427 -0.090494 0.0133044)
(-0.101179 -0.119234 0.00904699)
(-0.146812 -0.144344 0.00447859)
(-0.183632 -0.185084 0.00365849)
(-0.216245 -0.232087 0.00200537)
(-0.246253 -0.305125 -0.000500864)
(-0.280112 -0.39643 -0.00534847)
(-0.312965 -0.529636 -0.0117496)
(-0.343655 -0.669381 -0.018171)
(-0.350364 -0.802033 -0.02686)
(-0.299284 -0.863202 -0.0482567)
(-0.193522 -0.813748 -0.0630974)
(-0.0714387 -0.513496 -0.0616666)
(-0.00424066 -0.139796 0.00997224)
(-0.000792394 0.205762 -0.00201502)
(0.0327874 0.421939 -0.0320581)
(0.0985928 0.544736 -0.0428083)
(0.175757 0.598179 -0.0406695)
(0.243833 0.601767 -0.0238578)
(0.295314 0.575898 -0.0174672)
(0.329242 0.532828 -0.00852902)
(0.349334 0.488868 -0.0021497)
(0.357594 0.440358 -0.00336737)
(0.339334 0.40104 -0.00404168)
(0.303063 0.364108 -0.0047826)
(0.254383 0.325656 -0.00462967)
(0.210779 0.289646 -0.00471721)
(0.18292 0.258034 -0.00485082)
(0.162083 0.227829 -0.00465142)
(0.14551 0.197381 -0.00314502)
(0.127925 0.167726 -0.00187377)
(0.116032 0.13227 0.00222692)
(0.102104 0.0989869 0.00343316)
(0.0833508 0.0721615 0.00656388)
(0.059514 0.0503068 0.00272664)
(0.036881 0.0273673 0.00115499)
(0.0160962 0.00643798 0.00591105)
(-0.000116005 -0.0171519 0.00867637)
(-0.0148135 -0.0402375 0.0109424)
(-0.0328076 -0.0660014 0.013153)
(-0.0531964 -0.0896583 0.0142658)
(-0.0762202 -0.115328 0.0135407)
(-0.115458 -0.129937 0.0081563)
(-0.159189 -0.148877 0.00643238)
(-0.204506 -0.178021 0.0077948)
(-0.25196 -0.234756 0.0109456)
(-0.307887 -0.311667 0.0152087)
(-0.351396 -0.436128 0.0181787)
(-0.361604 -0.586138 0.0129119)
(-0.353141 -0.754948 0.00490096)
(-0.307579 -0.878778 -0.0117593)
(-0.208257 -0.903947 -0.0386921)
(-0.0540356 -0.681187 -0.0493559)
(0.0227698 -0.244196 -0.0142942)
(0.00356772 0.190419 -0.00296702)
(0.0387821 0.388962 -0.0256365)
(0.0982977 0.517674 -0.0366871)
(0.170711 0.576288 -0.0356073)
(0.234795 0.590083 -0.0241038)
(0.281857 0.569429 -0.0139018)
(0.317868 0.528253 -0.00458851)
(0.336824 0.481679 0.00105311)
(0.345264 0.428785 -0.00014682)
(0.333734 0.381863 -0.00157842)
(0.299812 0.339555 -0.00291098)
(0.255506 0.299335 -0.00274055)
(0.21855 0.266228 -0.00309952)
(0.194918 0.235335 -0.00308604)
(0.175082 0.206399 -0.00299649)
(0.159296 0.176773 -0.00198262)
(0.139998 0.148089 -0.000717396)
(0.121736 0.117313 0.000541636)
(0.108971 0.0809467 0.00606776)
(0.0957707 0.0519816 0.00643905)
(0.0722971 0.0321022 0.0076298)
(0.0492953 0.0120881 0.00497901)
(0.0289049 -0.0057838 0.00548684)
(0.010555 -0.0253728 0.00747609)
(-0.0057286 -0.0460919 0.00995281)
(-0.0221321 -0.071197 0.0109215)
(-0.0416358 -0.0919346 0.0116085)