/*--------------------------------*- C++ -*----------------------------------*\
| =========                 |                                                 |
| \\      /  F ield         | OpenFOAM: The Open Source CFD Toolbox           |
|  \\    /   O peration     | Version:  v1806                                 |
|   \\  /    A nd           | Web:      www.OpenFOAM.com                      |
|    \\/     M anipulation  |                                                 |
\*---------------------------------------------------------------------------*/
FoamFile
{
    version     2.0;
    format      ascii;
    class       volScalarField;
    location    "0.02";
    object      p;
}
// * * * * * * * * * * * * * * * * * * * * * * * * * * * * * * * * * * * * * //

dimensions      [0 2 -2 0 0 0 0];


internalField   nonuniform List<scalar> 
64000
(
-2.95545e-05
-0.100755
-0.246809
-0.318136
-0.470707
-0.49886
-0.566775
-0.606708
-0.65469
-0.7101
-0.734182
-0.82175
-0.836529
-0.889162
-0.882657
-0.850311
-0.839104
-0.78636
-0.864474
-0.807089
-0.902903
-0.942264
-2.05422
-1.64114
-1.94595
-1.78564
-1.74389
-1.66928
-1.65417
-1.57267
-1.62914
-1.65406
-1.70116
-1.71718
-1.75661
-1.75389
-1.78468
-1.77188
-1.76148
-1.7292
-0.122689
-0.212501
-0.309157
-0.355222
-0.477681
-0.54355
-0.631662
-0.695606
-0.719356
-0.74593
-0.631965
-0.597763
-0.550494
-0.551214
-0.572201
-0.632518
-0.805913
-0.764587
-0.772262
-0.657136
-0.758358
-0.836653
-1.95415
-1.66833
-1.86888
-1.7823
-1.74335
-1.71784
-1.64772
-1.62541
-1.6013
-1.58876
-1.64502
-1.64829
-1.69269
-1.68143
-1.70452
-1.71268
-1.71309
-1.68652
-0.271359
-0.307142
-0.362188
-0.389908
-0.453474
-0.447212
-0.503651
-0.504133
-0.476022
-0.532391
-0.627457
-0.804734
-0.902161
-1.07065
-1.05319
-1.03638
-0.980341
-0.905327
-0.884157
-0.788127
-0.962696
-1.06663
-2.34713
-2.17828
-2.39766
-2.3735
-2.3688
-2.36334
-2.32478
-2.25201
-2.18956
-2.11071
-1.9441
-1.87953
-1.82553
-1.75845
-1.74089
-1.70274
-1.68044
-1.63327
-0.379374
-0.390983
-0.434218
-0.480987
-0.440465
-0.535972
-0.558885
-0.59281
-0.817792
-1.06631
-1.21142
-1.28729
-1.28823
-1.23706
-1.22677
-1.2135
-1.1753
-1.09031
-1.03
-0.946787
-1.09079
-1.21503
-2.60542
-2.53604
-2.76816
-2.77222
-2.77397
-2.79034
-2.76007
-2.72886
-2.66208
-2.56029
-2.38332
-2.09846
-1.90527
-1.74746
-1.638
-1.50844
-1.5044
-1.48344
-0.447988
-0.45762
-0.512822
-0.552542
-0.557039
-0.861877
-1.18716
-1.31172
-1.47898
-1.58398
-1.63685
-1.61973
-1.71455
-1.67338
-1.66006
-1.61639
-1.53689
-1.4378
-1.36362
-1.3085
-1.42519
-1.53771
-2.97821
-2.94189
-3.18722
-3.19627
-3.19073
-3.20125
-3.20053
-3.18308
-3.14306
-3.08154
-2.95404
-2.77491
-2.43817
-2.03694
-1.38848
-1.23605
-1.37395
-1.33234
-0.548923
-0.57642
-0.63461
-0.674922
-0.726737
-1.26401
-1.49374
-1.71582
-1.836
-1.93315
-1.97774
-2.01835
-2.03623
-1.95741
-2.03687
-1.99527
-1.88751
-1.76165
-1.62863
-1.55021
-1.6228
-1.64192
-2.90294
-3.07992
-3.26085
-3.29335
-3.31595
-3.36061
-3.38632
-3.40783
-3.3512
-3.25245
-3.16247
-2.91514
-2.60762
-2.06323
-1.24387
-1.07005
-1.29006
-1.23772
-0.581028
-0.59675
-0.676683
-0.738995
-1.01731
-1.63125
-1.7491
-1.98288
-2.0988
-2.22533
-2.30346
-2.3852
-2.47798
-2.5249
-2.52655
-2.48654
-2.3736
-2.40909
-2.36693
-2.41171
-2.36131
-1.69548
-2.27684
-2.71779
-3.17984
-3.2833
-3.37168
-3.44138
-3.50686
-3.56234
-3.48833
-3.39206
-3.26887
-3.05554
-2.72917
-2.22417
-1.37547
-1.05471
-1.19465
-1.20778
-0.690849
-0.664763
-0.722052
-0.923081
-1.38818
-1.7944
-1.96239
-2.1213
-2.30537
-2.44903
-2.57417
-2.69941
-2.77449
-2.89767
-2.98802
-3.082
-3.06278
-3.0591
-3.12881
-3.07371
-2.53363
-1.57835
-1.77718
-2.16353
-2.91353
-3.25163
-3.38603
-3.51262
-3.59536
-3.70173
-3.62085
-3.53143
-3.39124
-3.19072
-2.85785
-2.31215
-1.54333
-1.04552
-1.0828
-1.16919
-0.671127
-0.634396
-0.795244
-1.20057
-1.57157
-1.92431
-2.09474
-2.29723
-2.4221
-2.63839
-2.79562
-2.87998
-3.04269
-3.21625
-3.37554
-3.55755
-3.55643
-3.5839
-3.66306
-3.12834
-2.22561
-1.54309
-1.51765
-1.72584
-2.42871
-3.17419
-3.45377
-3.58271
-3.66636
-3.7678
-3.67838
-3.54378
-3.40171
-3.1503
-2.87346
-2.4261
-1.71863
-1.10162
-0.99281
-1.15391
-0.761138
-0.741449
-0.988687
-1.35274
-1.66646
-1.9777
-2.18363
-2.40847
-2.55872
-2.73262
-2.87721
-2.9981
-3.15401
-3.38017
-3.60181
-3.78061
-3.62884
-3.91468
-3.31611
-2.40667
-1.9167
-1.57164
-1.48245
-1.44088
-1.81853
-2.89591
-3.45931
-3.63758
-3.72486
-3.755
-3.75605
-3.64455
-3.45442
-3.2887
-2.93323
-2.503
-1.83287
-1.23252
-0.968492
-1.13519
-0.782156
-0.836586
-1.08515
-1.40908
-1.71131
-1.97588
-2.22259
-2.42484
-2.60799
-2.79755
-2.91014
-3.00702
-3.1207
-3.37574
-3.62533
-3.67273
-3.59423
-3.27895
-2.16414
-1.88867
-1.69741
-1.54167
-1.54561
-1.42744
-1.56578
-2.21461
-3.4733
-3.75823
-3.81385
-3.78251
-3.70205
-3.63082
-3.4187
-3.12438
-2.89004
-2.5069
-1.96933
-1.3025
-1.00525
-1.08674
-0.891388
-0.945498
-1.15817
-1.42989
-1.69991
-1.9571
-2.18934
-2.38775
-2.5302
-2.64205
-2.72611
-2.85865
-2.94085
-3.17187
-3.41251
-3.29501
-2.96077
-1.8158
-1.50241
-1.4574
-1.4153
-1.38531
-1.60235
-1.50998
-1.59825
-1.77828
-3.02726
-3.8321
-3.94252
-3.86648
-3.76402
-3.59148
-3.5151
-3.27215
-2.91511
-2.43464
-1.97342
-1.40242
-1.02934
-1.11968
-0.977996
-1.01991
-1.19795
-1.4218
-1.66315
-1.88448
-2.09966
-2.26858
-2.32628
-2.38398
-2.45805
-2.55523
-2.65348
-2.82457
-2.76667
-2.33151
-1.35582
-0.940509
-0.893537
-0.968105
-1.01855
-1.07105
-1.57956
-1.60238
-1.65055
-1.75952
-2.13031
-3.58854
-3.8739
-3.84126
-3.75824
-3.66658
-3.39635
-3.13716
-2.87794
-2.57538
-1.90174
-1.47723
-1.05101
-1.13527
-1.03625
-1.06354
-1.21464
-1.39274
-1.59713
-1.77195
-1.96617
-2.04608
-2.04162
-2.07336
-2.18096
-2.28848
-2.24139
-2.06639
-1.15086
-0.735436
-0.212087
-0.184869
-0.26993
-0.409446
-0.551542
-0.631132
-1.43537
-1.66808
-1.76736
-1.83066
-2.09329
-2.79578
-3.89112
-3.80343
-3.83678
-3.59318
-3.34067
-3.0459
-2.71193
-2.34113
-2.04049
-1.44673
-1.07498
-1.13609
-1.11779
-1.11301
-1.22144
-1.35393
-1.52991
-1.67472
-1.80475
-1.81493
-1.76638
-1.81193
-1.82078
-1.56319
-0.948305
-0.305602
0.121664
0.431218
0.408632
0.235438
0.192271
0.0479602
-0.104227
-0.1433
-1.10646
-1.68892
-1.82373
-1.93584
-2.04202
-2.3293
-3.42424
-3.886
-3.67018
-3.45204
-3.14202
-2.81339
-2.49282
-2.08743
-1.75375
-1.47796
-1.13495
-1.13327
-1.05213
-1.06386
-1.15252
-1.25766
-1.3992
-1.54137
-1.67796
-1.65817
-1.46963
-1.22595
-0.805592
-0.151258
0.380171
0.610852
0.612136
0.601604
0.43469
0.253723
0.204986
0.157769
0.0692414
0.102788
-0.718729
-1.70731
-1.90666
-2.02032
-2.17488
-2.36423
-2.56133
-3.36937
-3.41651
-3.22178
-2.89866
-2.57515
-2.24451
-1.96607
-1.59682
-1.3653
-1.06032
-1.1086
-1.25253
-1.15989
-1.19895
-1.25117
-1.35053
-1.5335
-1.66242
-1.37682
-0.734463
-0.234758
0.131643
0.341518
0.351026
0.274214
0.136389
0.12875
-0.0798056
-0.170313
-0.277839
-0.234845
-0.296472
-0.193217
-0.657184
-1.75788
-2.01782
-2.1181
-2.16058
-2.34159
-2.54556
-2.89298
-3.06033
-2.77811
-2.39468
-2.01396
-1.63421
-1.34053
-1.20395
-1.15753
-1.10863
-1.06709
-0.933734
-0.948352
-1.02815
-1.07266
-1.18644
-1.35025
-1.2751
-0.664512
-0.427467
-0.487377
-0.635233
-0.634573
-0.634409
-0.620505
-0.626542
-0.66061
-0.733411
-0.835533
-0.931801
-0.940334
-1.00577
-0.88755
-1.01406
-1.87417
-2.12721
-2.17089
-2.26385
-2.39968
-2.53307
-2.89167
-2.92398
-2.66925
-2.22944
-1.72996
-1.39911
-1.26708
-1.07579
-0.743327
-1.03521
-0.996912
-2.15643
-1.95183
-1.94143
-1.92129
-2.04742
-2.20453
-2.08944
-2.02177
-1.98364
-1.94529
-1.83333
-1.66706
-1.5243
-1.36729
-1.29525
-1.20592
-1.26841
-1.26781
-1.3807
-1.47124
-1.56103
-1.58797
-1.5966
-2.06976
-2.22789
-2.22573
-2.32254
-2.413
-2.5547
-2.73017
-2.99276
-2.75221
-1.8595
-1.59778
-1.40207
-1.34501
-1.1786
-1.3351
-1.00407
-1.15263
-1.94294
-2.1537
-2.28219
-2.41007
-2.57873
-2.75124
-2.70073
-2.73926
-2.67878
-2.59757
-2.46878
-2.26088
-2.03992
-1.80862
-1.6434
-1.51628
-1.46721
-1.53656
-1.50896
-1.6495
-1.73592
-1.86132
-1.92518
-2.1987
-2.18208
-2.20642
-2.29659
-2.37798
-2.55367
-2.77544
-2.84754
-3.13835
-2.86466
-1.53377
-0.877852
-0.64343
-0.728973
-0.847398
-0.969786
-1.03419
-2.03864
-2.07499
-2.13676
-2.24112
-2.36633
-2.46828
-2.46263
-2.68231
-2.84908
-2.88178
-2.84585
-2.65651
-2.38169
-2.05268
-1.77741
-1.5695
-1.4476
-1.40543
-1.50745
-1.60831
-1.76225
-1.87296
-2.00581
-2.23731
-2.18088
-2.19733
-2.24058
-2.35546
-2.52738
-2.74186
-2.92976
-3.01461
-3.10025
-2.59192
-2.10453
-1.79653
-1.51821
-1.46167
-1.34392
-1.56843
-2.22907
-2.25914
-2.32744
-2.41246
-2.52673
-2.60905
-2.6414
-2.82018
-3.12819
-3.25072
-3.24704
-3.06336
-2.71772
-2.26952
-1.86364
-1.59848
-1.51378
-1.51314
-1.54071
-1.61744
-1.77079
-1.9133
-2.06241
-2.15777
-2.24878
-2.2024
-2.22469
-2.29663
-2.44398
-2.64987
-2.84976
-3.06003
-2.99388
-2.64316
-2.52861
-2.53556
-2.56708
-2.532
-2.49676
-2.4156
-2.25604
-2.31997
-2.39333
-2.47346
-2.61705
-2.6964
-2.7754
-2.93793
-3.26826
-3.5243
-3.59907
-3.46031
-3.10735
-2.60829
-2.25225
-2.25777
-2.35274
-2.14215
-2.03993
-1.98766
-1.96054
-2.00324
-2.0807
-2.22139
-2.2452
-2.26049
-2.24927
-2.28492
-2.40242
-2.59712
-2.82489
-3.02757
-3.04763
-2.85436
-2.79487
-2.78401
-2.85442
-2.80413
-2.61929
-2.5059
-2.34837
-2.28434
-2.46729
-2.52055
-2.6683
-2.76387
-2.86816
-3.04607
-3.3502
-3.64513
-3.78059
-3.72303
-3.4908
-3.13091
-2.91811
-2.97515
-2.7813
-2.21661
-2.06734
-2.08613
-2.13613
-2.15766
-2.17468
-2.25
-2.31803
-2.33093
-2.33171
-2.35699
-2.43354
-2.58565
-2.81208
-3.0171
-3.11131
-3.08132
-3.1532
-3.17171
-3.31569
-3.27732
-3.20563
-2.82632
-2.43023
-2.28244
-2.54315
-2.57206
-2.73624
-2.84907
-2.98205
-3.15623
-3.42625
-3.70117
-3.85173
-3.85889
-3.76602
-3.62399
-3.45765
-3.29356
-3.03281
-2.2831
-2.11367
-2.12623
-2.14179
-2.24262
-2.20363
-2.29918
-2.31226
-2.37478
-2.37063
-2.36734
-2.3568
-2.40191
-2.52631
-2.65989
-2.80681
-2.86897
-3.06097
-3.12929
-3.36689
-3.36226
-3.35031
-2.74107
-2.50532
-2.29979
-2.59788
-2.63395
-2.80043
-2.9472
-3.09194
-3.25508
-3.48402
-3.73006
-3.86437
-3.901
-3.86152
-3.83104
-3.72548
-3.50327
-3.26751
-2.36996
-2.12679
-2.15193
-2.17855
-2.25935
-2.23728
-2.3262
-2.40491
-2.5355
-2.55153
-2.6661
-2.84984
-3.13238
-3.37522
-3.50519
-3.62896
-3.61783
-3.76949
-3.69246
-3.90291
-3.72595
-3.80054
-3.08864
-2.5542
-2.35269
-2.60771
-2.72459
-2.89208
-3.01571
-3.19395
-3.34263
-3.52783
-3.76192
-3.9115
-3.95467
-3.92183
-3.87883
-3.79926
-3.57174
-3.42627
-2.45926
-2.15298
-2.173
-2.20595
-2.26664
-2.32625
-2.35866
-2.45897
-2.66633
-2.73367
-3.00491
-3.12806
-3.13168
-3.12677
-3.07779
-3.12168
-3.04307
-3.18381
-3.0028
-3.22478
-2.95452
-3.31926
-3.15092
-2.59422
-2.44485
-2.54106
-2.80312
-2.9643
-3.09456
-3.26106
-3.36236
-3.55797
-3.72589
-3.83617
-3.89194
-3.90732
-3.88241
-3.83528
-3.73393
-3.51299
-2.69163
-2.12846
-2.16007
-2.21298
-2.29074
-2.3985
-2.42614
-2.43115
-2.71403
-2.87091
-3.13362
-3.12733
-3.10861
-3.12483
-3.08353
-3.14142
-2.98406
-3.11166
-2.74715
-2.89464
-2.34483
-2.49558
-2.2071
-2.62694
-2.55558
-2.50256
-2.86619
-3.01778
-3.16647
-3.29603
-3.43856
-3.59676
-3.73552
-3.84093
-3.89617
-3.92162
-3.90741
-3.86611
-3.74378
-3.62135
-2.97539
-2.10171
-2.13427
-2.19092
-2.24205
-2.35885
-2.31908
-2.29344
-2.85571
-2.95607
-3.07903
-3.05963
-3.04226
-3.05978
-2.98557
-3.04865
-2.87119
-3.01168
-2.54368
-2.7455
-2.08004
-2.26705
-2.10333
-2.66251
-2.64952
-2.51389
-2.84249
-3.03503
-3.19889
-3.31858
-3.47029
-3.58235
-3.71121
-3.80544
-3.87011
-3.90911
-3.91246
-3.94527
-3.80839
-3.75248
-3.34458
-2.09423
-2.08132
-2.10483
-2.14466
-2.27718
-2.16515
-2.13799
-3.0388
-2.82681
-3.05433
-3.00991
-3.02401
-3.03783
-2.91983
-3.02467
-2.71737
-2.95676
-2.33669
-2.62392
-1.78483
-1.97405
-1.63489
-2.70276
-2.75947
-2.56803
-2.81057
-3.08301
-3.21358
-3.36896
-3.49826
-3.61715
-3.71785
-3.80539
-3.87113
-3.91097
-3.94205
-3.91559
-3.88393
-3.8986
-3.53741
-2.09446
-2.07423
-2.03988
-2.05312
-2.20322
-2.05296
-1.99752
-3.08455
-2.72079
-2.98602
-2.98001
-2.96776
-2.97421
-2.88803
-2.93597
-2.6812
-2.88672
-2.1927
-2.5759
-1.61606
-1.88317
-1.36382
-2.72485
-2.74305
-2.66551
-2.67242
-3.06624
-3.1666
-3.31658
-3.43353
-3.55643
-3.67127
-3.75669
-3.82587
-3.90409
-3.88486
-3.92557
-3.88394
-3.89841
-3.76659
-2.14682
-2.01686
-1.94644
-1.96005
-2.13442
-2.0132
-1.86639
-3.11159
-2.63939
-2.99278
-2.92463
-2.94524
-2.96093
-2.7896
-2.95633
-2.50179
-2.93044
-2.01514
-2.57046
-1.40961
-1.80735
-1.04007
-2.80441
-2.8095
-2.82198
-2.71934
-3.1002
-3.24342
-3.37187
-3.48061
-3.58819
-3.6881
-3.78456
-3.89051
-3.91242
-3.96192
-3.939
-3.93512
-3.84929
-3.89381
-2.24089
-1.9585
-1.8876
-1.88851
-2.07504
-2.0082
-1.74934
-3.0979
-2.62707
-2.96109
-2.88244
-2.9165
-2.94263
-2.75882
-2.87389
-2.48641
-2.85897
-1.91804
-2.58358
-1.2262
-1.76439
-0.689207
-2.73596
-2.70919
-2.76077
-2.7103
-2.78004
-3.04933
-3.18258
-3.29045
-3.41571
-3.53243
-3.65021
-3.7343
-3.84991
-3.89894
-3.90841
-3.90319
-3.75954
-3.92593
-2.25091
-1.82561
-1.75156
-1.7615
-1.95572
-1.95106
-1.63841
-3.0153
-2.63362
-2.94405
-2.88506
-2.88088
-2.94276
-2.68578
-2.94948
-2.28644
-2.94991
-1.59199
-2.59769
-0.72685
-1.52326
-0.0663867
-2.922
-2.97519
-2.95513
-2.95521
-2.99622
-3.18196
-3.28866
-3.37689
-3.49559
-3.57561
-3.69816
-3.82087
-3.90494
-3.99011
-4.00774
-4.00794
-3.81349
-4.01095
-2.30496
-1.74765
-1.6548
-1.65768
-1.82472
-1.85852
-1.5759
-2.95672
-2.71017
-2.98469
-2.92619
-2.82045
-3.00844
-2.59692
-3.00039
-2.16514
-2.99839
-1.5208
-2.58524
-0.417224
-1.15359
0.735814
-2.74332
-2.62049
-2.75339
-2.6905
-2.69455
-2.92019
-2.92439
-3.05392
-3.16359
-3.31234
-3.47487
-3.61211
-3.7651
-3.84154
-3.90812
-3.99768
-3.76482
-3.96328
-2.176
-1.51756
-1.40619
-1.39599
-1.55159
-1.63909
-1.4639
-2.84027
-2.74494
-2.98181
-2.9482
-2.82339
-2.90386
-2.59772
-3.00429
-2.01489
-2.89383
-1.00242
-2.30417
0.74141
0.022376
2.75835
-2.8921
-3.03386
-2.87079
-3.10948
-2.96363
-3.1507
-3.14786
-3.18357
-3.31308
-3.42154
-3.56794
-3.71748
-3.8693
-3.97649
-4.11356
-4.18647
-3.93593
-4.0352
-2.19758
-1.39775
-1.22428
-1.1887
-1.28277
-1.40665
-1.43853
-2.8184
-2.86725
-3.01796
-3.04562
-2.79014
-3.01521
-2.4311
-3.21734
-1.84163
-3.31925
-0.910721
-2.30859
1.55859
1.3324
4.74291
-3.43753
-2.87007
-3.0172
-2.56131
-2.7747
-2.67678
-2.72575
-2.81591
-2.95294
-3.08774
-3.28148
-3.4766
-3.722
-3.94002
-4.1609
-4.29228
-4.08164
-3.91288
-1.94096
-1.05856
-0.812084
-0.77152
-0.859486
-1.05871
-1.4032
-2.7612
-2.94291
-3.03567
-3.07012
-2.74085
-2.99285
-2.31806
-3.06463
-1.55021
-2.94523
-0.0162571
-1.28818
4.28731
4.83216
10.8467
-3.09691
-3.56993
-3.2183
-3.33203
-2.78484
-2.98138
-2.8733
-2.93013
-3.05488
-3.16934
-3.33121
-3.54445
-3.83983
-4.15745
-4.45267
-4.62547
-4.39357
-3.90196
-1.93945
-0.942587
-0.570743
-0.420715
-0.546111
-0.795681
-1.42146
-2.76255
-3.04866
-3.08819
-3.12968
-2.67159
-3.00395
-2.30542
-3.39951
-1.93378
-3.46824
-0.271423
-0.790444
6.29543
9.15685
18.3867
-5.75402
-2.93935
-3.4022
-2.83221
-2.76633
-2.58386
-2.68179
-2.72404
-2.87075
-2.99586
-3.1922
-3.41356
-3.7436
-4.19603
-4.58448
-4.80395
-4.51822
-3.71879
-1.75604
-0.651141
-0.212451
-0.0182887
-0.260957
-0.614867
-1.46232
-2.81579
-3.20422
-3.17421
-3.18855
-2.59991
-2.94308
-2.14937
-3.28145
-1.88681
-3.54595
-0.0653889
0.540819
10.1514
19.413
37.8106
-0.102583
-0.205265
-0.289921
-0.335798
-0.470904
-0.511678
-0.57494
-0.6072
-0.675079
-0.717626
-0.763897
-0.870256
-0.880036
-0.887604
-0.87016
-0.849514
-0.841445
-0.779627
-0.897636
-0.826757
-0.84818
-0.899104
-2.09716
-1.81304
-2.05504
-2.02049
-1.99748
-1.94643
-1.85242
-1.813
-1.75133
-1.75308
-1.79933
-1.75468
-1.78711
-1.7757
-1.80023
-1.79312
-1.79033
-1.75737
-0.222287
-0.283418
-0.349453
-0.370711
-0.479604
-0.530976
-0.60113
-0.681426
-0.677342
-0.721412
-0.59255
-0.597084
-0.531668
-0.557181
-0.634604
-0.769476
-0.823321
-0.753834
-0.729736
-0.622834
-0.752701
-0.938721
-2.04535
-1.96631
-2.15378
-2.14299
-2.12322
-2.07596
-2.01
-1.93855
-1.8474
-1.76101
-1.74886
-1.70752
-1.74118
-1.70755
-1.73572
-1.7321
-1.73135
-1.70345
-0.301419
-0.336274
-0.372462
-0.415864
-0.448059
-0.46937
-0.540172
-0.526022
-0.555602
-0.552751
-0.648244
-0.8044
-0.914486
-1.06324
-1.15134
-1.11683
-1.03632
-0.935751
-0.884583
-0.786263
-0.969831
-1.23305
-2.4652
-2.53348
-2.71637
-2.72666
-2.72812
-2.68574
-2.63596
-2.57522
-2.47867
-2.26089
-2.05014
-1.95326
-1.85545
-1.75375
-1.75371
-1.72303
-1.69944
-1.65541
-0.395676
-0.391255
-0.442181
-0.441881
-0.432058
-0.490989
-0.571134
-0.557933
-0.760506
-1.03874
-1.21722
-1.31872
-1.32039
-1.38645
-1.40853
-1.33126
-1.22516
-1.09628
-0.996424
-0.902624
-1.10623
-1.45042
-2.75227
-2.91699
-3.09035
-3.10666
-3.10606
-3.06628
-3.01957
-2.9734
-2.9186
-2.79457
-2.54216
-2.16654
-1.95293
-1.71091
-1.61414
-1.52307
-1.53077
-1.48071
-0.454038
-0.462501
-0.541294
-0.570311
-0.624913
-0.590254
-1.0497
-1.3062
-1.5267
-1.65058
-1.70955
-1.72515
-1.74789
-1.84288
-1.81869
-1.73756
-1.61424
-1.4766
-1.34961
-1.18872
-1.29248
-1.58237
-2.96557
-3.1973
-3.34263
-3.36402
-3.39072
-3.3848
-3.37622
-3.32718
-3.26713
-3.17817
-3.06325
-2.83428
-2.42194
-1.93933
-1.36893
-1.27862
-1.36494
-1.33131
-0.576682
-0.58926
-0.665208
-0.698445
-0.807325
-0.9805
-1.5527
-1.78408
-1.91609
-2.01078
-2.05172
-2.06577
-2.08095
-2.18344
-2.14965
-2.10966
-1.94063
-1.76313
-1.60125
-1.44693
-1.46994
-1.60655
-2.83354
-3.30328
-3.48561
-3.50115
-3.49134
-3.5154
-3.5649
-3.48685
-3.4746
-3.38901
-3.24597
-3.02159
-2.63842
-1.96652
-1.23804
-1.12878
-1.24061
-1.23826
-0.612681
-0.635933
-0.741343
-0.814533
-0.929405
-1.57252
-1.83461
-2.04498
-2.17548
-2.29207
-2.36524
-2.41586
-2.48216
-2.59632
-2.59355
-2.58242
-2.49251
-2.42484
-2.40977
-2.36718
-2.13569
-1.61471
-2.17283
-2.81077
-3.36238
-3.46848
-3.52696
-3.5519
-3.57394
-3.62295
-3.51773
-3.42336
-3.30326
-3.10067
-2.76754
-2.12341
-1.29903
-1.08519
-1.17039
-1.20363
-0.721611
-0.743898
-0.853856
-1.01618
-1.33138
-1.76362
-1.97589
-2.1899
-2.35893
-2.5054
-2.65035
-2.78226
-2.92127
-3.02488
-3.1031
-3.17038
-3.19389
-3.23971
-3.24492
-2.92649
-2.2181
-1.44419
-1.61653
-2.11535
-2.97912
-3.39133
-3.53199
-3.61789
-3.63839
-3.60586
-3.6461
-3.50003
-3.42348
-3.20994
-2.85589
-2.28225
-1.43316
-1.08541
-1.10383
-1.17592
-0.703183
-0.708045
-0.873359
-1.3877
-1.5341
-1.99907
-2.08412
-2.31243
-2.50896
-2.71561
-2.8424
-3.01854
-3.22345
-3.39429
-3.55454
-3.72163
-3.808
-3.87247
-3.58916
-2.82065
-1.97607
-1.42356
-1.3807
-1.61786
-2.32507
-3.19284
-3.53926
-3.68983
-3.65948
-3.66119
-3.61289
-3.52383
-3.31591
-3.07745
-2.82856
-2.35816
-1.59989
-1.07109
-1.05033
-1.14372
-0.75371
-0.789923
-1.10779
-1.51344
-1.66965
-2.01404
-2.18818
-2.51459
-2.63092
-2.81836
-2.92936
-3.18656
-3.43484
-3.66173
-3.88943
-4.079
-4.09574
-3.88411
-2.97719
-2.18001
-1.74317
-1.4785
-1.38157
-1.32694
-1.65832
-2.76313
-3.48398
-3.7247
-3.84741
-3.71388
-3.70511
-3.66397
-3.59178
-3.4375
-2.9824
-2.45064
-1.76717
-1.17104
-1.02633
-1.14579
-0.802979
-0.913814
-1.21362
-1.54644
-1.78663
-1.98326
-2.24132
-2.47012
-2.67155
-2.87818
-2.97207
-3.254
-3.53111
-3.77716
-4.03235
-4.14701
-3.8516
-2.89997
-1.98209
-1.65447
-1.56836
-1.53171
-1.49097
-1.29856
-1.37961
-2.02713
-3.29792
-3.76473
-3.80571
-3.9368
-3.79926
-3.52126
-3.28952
-3.13157
-2.92815
-2.54391
-1.86968
-1.23289
-1.00351
-1.10919
-0.939359
-1.04349
-1.27288
-1.54779
-1.77851
-2.01834
-2.1671
-2.4461
-2.55792
-2.72576
-2.89686
-3.29724
-3.43128
-3.72023
-3.92762
-3.67099
-2.68091
-1.60265
-1.22966
-1.24177
-1.38571
-1.5177
-1.6116
-1.42084
-1.41234
-1.69699
-2.91134
-3.72917
-4.15596
-4.0844
-3.93686
-3.76768
-3.54241
-3.30881
-2.98286
-2.44608
-1.99326
-1.33956
-1.00247
-1.1218
-1.05359
-1.1277
-1.31251
-1.54308
-1.73445
-1.93668
-2.12691
-2.26261
-2.3845
-2.56293
-2.7591
-2.89398
-3.02912
-3.44981
-3.19351
-2.20862
-1.10873
-0.642142
-0.64394
-0.851309
-1.12637
-1.38468
-1.67349
-1.56423
-1.52828
-1.66071
-2.07116
-3.48733
-3.96727
-3.90759
-4.07691
-3.88816
-3.61313
-3.31374
-2.909
-2.76885
-1.94774
-1.40561
-1.03266
-1.1074
-1.15245
-1.1935
-1.33511
-1.49958
-1.67367
-1.83817
-2.00683
-2.06484
-2.10572
-2.17797
-2.26589
-2.48925
-2.31191
-2.52528
-1.38246
-0.466584
0.00433042
0.0391954
-0.150592
-0.451014
-0.767379
-1.11053
-1.64661
-1.68164
-1.70642
-1.77627
-2.15436
-3.02009
-4.10224
-4.3278
-4.12009
-3.87435
-3.58512
-3.26847
-2.89027
-2.49727
-2.24946
-1.5271
-1.02267
-1.10976
-1.20719
-1.2325
-1.35148
-1.4797
-1.62106
-1.72571
-1.81612
-1.83964
-1.80686
-1.84621
-1.82984
-1.4844
-0.770481
-0.443022
0.143773
0.544495
0.582984
0.43772
0.194054
-0.107719
-0.377209
-0.728253
-1.48997
-1.75615
-1.81649
-1.93383
-1.99487
-2.45912
-3.48478
-4.13335
-3.97494
-3.68936
-3.35129
-3.0119
-2.63425
-2.40279
-1.92257
-1.60971
-1.09202
-1.09057
-1.16412
-1.15217
-1.25602
-1.36734
-1.51318
-1.56612
-1.68707
-1.64087
-1.40262
-1.08758
-0.670535
0.0793288
0.623234
0.587149
0.738552
0.770584
0.648361
0.467985
0.243472
0.00238622
-0.166854
-0.415919
-1.24653
-1.78857
-1.93337
-1.9159
-2.09939
-2.32098
-2.65447
-3.47039
-3.62777
-3.35937
-3.00529
-2.64835
-2.27511
-1.99433
-1.70242
-1.49709
-1.07786
-1.01452
-1.19685
-1.1624
-1.22327
-1.28619
-1.43443
-1.48239
-1.61714
-1.28118
-0.587657
-0.00884881
0.338076
0.605775
0.622037
0.467018
0.373072
0.240807
0.17139
0.0578606
-0.110351
-0.277479
-0.370746
-0.455291
-1.06822
-1.8511
-2.05693
-2.06732
-2.09316
-2.28082
-2.48715
-2.80528
-3.02789
-2.81616
-2.42038
-2.03676
-1.66328
-1.42125
-1.18151
-1.15049
-1.08634
-1.04667
-1.01385
-1.07422
-1.14479
-1.19884
-1.26482
-1.37286
-1.32663
-0.684387
-0.282581
-0.16044
-0.193021
-0.235201
-0.310267
-0.401069
-0.459934
-0.55517
-0.620802
-0.665885
-0.73587
-0.855275
-0.926601
-0.888924
-1.19123
-1.90179
-2.06934
-2.07077
-2.17037
-2.31467
-2.48481
-2.75974
-2.81262
-2.47341
-2.02945
-1.58502
-1.19742
-0.92388
-0.797773
-0.807852
-0.97867
-0.944649
-2.0191
-1.89089
-1.87494
-1.88061
-1.86163
-2.02304
-1.94337
-1.79761
-1.66176
-1.57927
-1.48367
-1.3729
-1.29693
-1.24302
-1.22855
-1.22028
-1.2773
-1.24684
-1.3208
-1.37559
-1.48436
-1.48088
-1.60084
-2.05478
-2.13905
-2.12806
-2.21494
-2.34443
-2.52643
-2.71742
-2.93628
-2.74411
-1.83233
-1.27762
-0.861016
-0.595239
-0.521716
-0.700263
-0.795299
-0.927698
-2.23893
-2.22982
-2.34032
-2.42222
-2.48267
-2.64205
-2.57858
-2.70802
-2.66137
-2.56414
-2.39949
-2.19226
-1.9957
-1.79151
-1.67573
-1.57013
-1.58932
-1.58898
-1.57284
-1.6622
-1.75611
-1.82816
-1.91787
-2.20056
-2.09805
-2.12546
-2.2156
-2.35976
-2.55016
-2.77625
-2.93191
-3.12885
-2.76333
-1.51685
-0.72954
-0.445129
-0.263379
-0.532912
-0.750733
-0.895945
-2.09231
-2.11847
-2.23403
-2.32514
-2.44727
-2.52747
-2.565
-2.78922
-2.99188
-3.02141
-2.94773
-2.72846
-2.46129
-2.15095
-1.92087
-1.72616
-1.63979
-1.60058
-1.71738
-1.6828
-1.85142
-1.92202
-2.04079
-2.17704
-2.11326
-2.12074
-2.17694
-2.30507
-2.50062
-2.74404
-2.97859
-3.14823
-3.18673
-2.58742
-1.92999
-1.55825
-1.25545
-1.13226
-1.15533
-1.30352
-2.26954
-2.27405
-2.36859
-2.43531
-2.58023
-2.61848
-2.66859
-2.87488
-3.23604
-3.40474
-3.3963
-3.20117
-2.88335
-2.51606
-2.20018
-1.95303
-1.8105
-1.72019
-1.73065
-1.8127
-1.85696
-1.96776
-2.08842
-2.14007
-2.17056
-2.13241
-2.14128
-2.22468
-2.3918
-2.6189
-2.85169
-3.07235
-3.1246
-2.84202
-2.65222
-2.58089
-2.53449
-2.38207
-2.36524
-2.43523
-2.22194
-2.31416
-2.41598
-2.49097
-2.61719
-2.69793
-2.77568
-2.95307
-3.33666
-3.66315
-3.77417
-3.65447
-3.37798
-3.02505
-2.65754
-2.40298
-2.24663
-2.02398
-1.94195
-1.9003
-1.97464
-1.99344
-2.14053
-2.17635
-2.21867
-2.19771
-2.17102
-2.19615
-2.31412
-2.52513
-2.77358
-2.98838
-3.09373
-3.01683
-3.02945
-3.04418
-3.10898
-2.95393
-2.73641
-2.46975
-2.3194
-2.36318
-2.49826
-2.57117
-2.69934
-2.8039
-2.89254
-3.0654
-3.40413
-3.76696
-3.97002
-3.97115
-3.82217
-3.57583
-3.26377
-2.95955
-2.59124
-2.10676
-1.95412
-1.96984
-2.02945
-2.05453
-2.13799
-2.18439
-2.27115
-2.2715
-2.24757
-2.24445
-2.29552
-2.43819
-2.66486
-2.87316
-3.02218
-3.06919
-3.24085
-3.3392
-3.56165
-3.46171
-3.30675
-2.8742
-2.39863
-2.36108
-2.57828
-2.66035
-2.79401
-2.92069
-3.00997
-3.19082
-3.47547
-3.79294
-4.00682
-4.0801
-4.04021
-3.90343
-3.63785
-3.27365
-2.81595
-2.17552
-1.99129
-1.98976
-2.04095
-2.12498
-2.14237
-2.24707
-2.24833
-2.31444
-2.32952
-2.30511
-2.32166
-2.41651
-2.56868
-2.71194
-2.88375
-2.97045
-3.21568
-3.3091
-3.62357
-3.58829
-3.52455
-2.8478
-2.47872
-2.30635
-2.59268
-2.70975
-2.87734
-2.98949
-3.10497
-3.29852
-3.53376
-3.79447
-3.96796
-4.04111
-4.03127
-3.96492
-3.77891
-3.4778
-2.98295
-2.22016
-2.00098
-1.99459
-2.04358
-2.12851
-2.18766
-2.29021
-2.37415
-2.45157
-2.48726
-2.61057
-2.8105
-3.06738
-3.28166
-3.40159
-3.5471
-3.55407
-3.75851
-3.69993
-3.97475
-3.81062
-3.88534
-3.3244
-2.56411
-2.35813
-2.57428
-2.73569
-2.91552
-3.07739
-3.21885
-3.39461
-3.584
-3.78805
-3.92643
-3.98028
-3.96729
-3.92438
-3.81915
-3.60397
-3.22811
-2.33678
-1.97759
-1.95177
-2.00014
-2.11805
-2.23948
-2.3427
-2.44351
-2.67737
-2.65274
-2.87968
-3.07169
-3.15887
-3.17556
-3.14603
-3.19391
-3.10132
-3.25836
-3.05738
-3.33303
-3.0314
-3.27261
-3.13078
-2.61475
-2.44264
-2.54937
-2.79418
-2.96231
-3.10972
-3.3081
-3.45307
-3.61074
-3.75841
-3.86014
-3.90967
-3.91582
-3.89747
-3.8597
-3.72546
-3.43171
-2.59837
-2.05331
-1.95647
-2.01461
-2.10371
-2.24376
-2.32407
-2.40685
-2.65551
-2.91385
-3.1596
-3.13009
-3.12465
-3.16564
-3.1148
-3.17214
-2.98059
-3.12891
-2.73037
-2.93808
-2.36204
-2.5835
-2.23572
-2.65191
-2.54228
-2.53681
-2.85659
-3.04313
-3.17611
-3.32984
-3.51453
-3.64597
-3.76127
-3.85017
-3.90303
-3.93187
-3.93669
-3.92468
-3.83881
-3.63
-2.91439
-2.06892
-1.99258
-1.99545
-2.04673
-2.1753
-2.21731
-2.30082
-2.82248
-2.99341
-3.1063
-3.07201
-3.1116
-3.09926
-2.99845
-3.06144
-2.82758
-2.984
-2.49101
-2.77018
-2.04445
-2.23855
-1.9055
-2.68464
-2.62966
-2.54537
-2.83784
-3.07364
-3.22026
-3.33706
-3.49195
-3.63526
-3.74485
-3.83614
-3.90216
-3.95211
-3.98307
-4.01327
-3.95588
-3.85574
-3.27104
-2.12866
-1.97168
-1.95275
-1.96402
-2.06114
-2.06742
-2.19145
-2.95786
-2.92651
-3.05253
-3.02903
-3.00809
-3.06261
-2.98273
-3.04898
-2.71589
-2.98279
-2.3311
-2.75733
-1.86727
-2.08679
-1.57708
-2.71911
-2.72024
-2.60676
-2.81651
-3.12304
-3.27826
-3.4068
-3.55082
-3.63378
-3.75741
-3.85387
-3.93113
-3.98965
-4.04213
-4.07275
-4.03386
-4.01838
-3.44399
-2.15386
-1.97172
-1.94372
-1.8937
-1.96961
-1.95962
-2.09458
-3.01319
-2.89046
-2.97324
-2.99577
-2.91806
-3.03922
-2.83045
-3.07146
-2.6716
-2.9548
-2.26728
-2.8048
-1.82388
-2.13672
-1.4476
-2.73283
-2.73939
-2.65107
-2.69545
-3.06351
-3.21362
-3.35245
-3.46326
-3.60028
-3.67028
-3.78911
-3.87221
-3.95337
-4.00732
-4.08508
-4.04552
-4.05639
-3.69843
-2.22517
-1.92922
-1.84167
-1.81494
-1.89576
-1.89898
-1.99728
-3.04149
-2.8485
-2.9553
-2.94038
-2.92206
-2.93902
-2.85358
-2.93795
-2.59558
-3.05848
-2.11148
-2.93865
-1.73953
-2.23777
-1.29679
-2.80342
-2.81122
-2.78694
-2.75345
-3.07027
-3.28237
-3.41357
-3.51863
-3.6439
-3.74257
-3.84988
-3.90073
-3.94954
-4.02975
-4.08583
-4.03868
-3.99792
-3.84498
-2.31095
-1.9242
-1.75299
-1.76198
-1.85104
-1.87611
-1.91585
-3.0394
-2.85628
-2.97399
-2.93487
-2.8852
-2.96563
-2.71753
-3.00844
-2.46175
-2.98632
-2.18619
-2.99005
-1.71588
-2.39517
-1.13357
-2.73729
-2.70865
-2.81015
-2.60026
-2.78991
-3.06617
-3.21984
-3.32764
-3.44766
-3.59161
-3.71494
-3.81984
-3.94777
-3.92974
-4.02551
-3.99817
-3.94279
-3.91607
-2.3262
-1.78331
-1.5985
-1.63878
-1.74568
-1.80172
-1.81185
-2.98822
-2.81859
-2.98855
-2.93059
-2.83552
-2.96549
-2.6625
-2.96899
-2.34939
-3.10221
-1.77012
-3.18533
-1.25591
-2.3247
-0.729558
-2.93529
-2.94571
-2.95822
-3.03689
-2.84891
-3.21417
-3.33208
-3.4265
-3.53691
-3.64938
-3.78299
-3.90859
-3.98577
-4.09977
-4.17914
-4.21189
-4.04606
-4.03218
-2.36894
-1.67488
-1.49352
-1.53217
-1.639
-1.72112
-1.76703
-2.93433
-2.87119
-3.00047
-2.96076
-2.82201
-2.99875
-2.60431
-3.05261
-2.18567
-3.16358
-1.70045
-3.12219
-1.22612
-1.97279
-0.0222075
-2.71121
-2.66711
-2.76049
-2.71833
-2.71324
-2.81334
-2.9872
-3.08066
-3.21676
-3.35631
-3.53073
-3.65225
-3.82555
-3.91609
-3.98187
-4.17978
-4.01277
-3.95791
-2.28887
-1.50196
-1.24217
-1.26025
-1.37395
-1.50403
-1.62786
-2.82601
-2.88518
-2.99909
-2.99517
-2.78973
-2.95883
-2.53295
-3.05627
-2.01523
-3.15397
-1.18698
-2.73307
-0.134705
-1.06074
1.99126
-2.87772
-3.05971
-2.89981
-3.14761
-3.02565
-3.15107
-3.21044
-3.27128
-3.39266
-3.50983
-3.63914
-3.81127
-3.97538
-4.12663
-4.34457
-4.37272
-4.2832
-4.08169
-2.25898
-1.38032
-1.01637
-1.04517
-1.15552
-1.3313
-1.60586
-2.83542
-2.99921
-3.06825
-3.07912
-2.80027
-3.06732
-2.49791
-3.27241
-2.00648
-3.4948
-1.18476
-2.74602
0.776052
0.152797
4.15747
-3.38393
-2.85633
-3.03991
-2.6189
-2.79424
-2.68375
-2.78619
-2.84242
-3.01934
-3.14219
-3.36079
-3.55196
-3.81857
-4.06683
-4.34714
-4.49598
-4.39852
-4.09069
-2.19858
-1.1606
-0.823615
-0.698877
-0.77611
-0.972749
-1.46019
-2.72257
-3.03064
-3.06453
-3.10305
-2.71701
-3.00534
-2.33134
-3.20956
-1.78312
-3.39431
-0.637709
-1.77152
3.61477
4.74879
12.2066
-2.85444
-3.56049
-3.30032
-3.43178
-3.05395
-2.9783
-3.00695
-3.02289
-3.14896
-3.24497
-3.40716
-3.63678
-3.94233
-4.23142
-4.6066
-4.8518
-4.75111
-4.1418
-2.14477
-1.0186
-0.583772
-0.387886
-0.528588
-0.796531
-1.47714
-2.7534
-3.09128
-3.14999
-3.19782
-2.66594
-3.02377
-2.28109
-3.44705
-2.01738
-3.8668
-0.935262
-1.79416
5.36703
11.5779
25.7992
-5.63088
-2.85941
-3.31015
-2.77742
-2.76023
-2.59491
-2.70745
-2.74953
-2.91648
-3.04313
-3.23478
-3.46268
-3.78999
-4.26314
-4.69498
-5.05564
-4.86061
-3.99065
-1.95256
-0.738422
-0.21647
0.00188283
-0.223735
-0.572952
-1.46212
-2.76426
-3.27276
-3.22697
-3.26947
-2.60081
-2.96173
-2.09576
-3.32887
-1.87579
-3.74471
-0.465705
-0.0253232
10.5357
25.3766
48.1347
-0.212964
-0.25209
-0.283783
-0.319427
-0.433704
-0.486532
-0.565377
-0.608495
-0.649463
-0.710628
-0.764936
-0.902835
-0.902142
-0.9169
-0.817469
-0.85511
-0.874783
-0.82931
-0.795299
-0.641662
-0.797869
-1.09018
-2.14981
-2.00263
-2.20257
-2.08873
-1.97155
-1.87901
-1.79814
-1.68535
-1.6569
-1.60596
-1.65864
-1.6624
-1.73634
-1.74981
-1.80286
-1.78852
-1.77741