/*--------------------------------*- C++ -*----------------------------------*\
| =========                 |                                                 |
| \\      /  F ield         | OpenFOAM: The Open Source CFD Toolbox           |
|  \\    /   O peration     | Version:  v1806                                 |
|   \\  /    A nd           | Web:      www.OpenFOAM.com                      |
|    \\/     M anipulation  |                                                 |
\*---------------------------------------------------------------------------*/
FoamFile
{
    version     2.0;
    format      ascii;
    class       vectorField;
    location    "0.108";
    object      currentcloudofpoints;
}
// * * * * * * * * * * * * * * * * * * * * * * * * * * * * * * * * * * * * * //


2409
(
(1.05423 1.26216 1.08664)
(0.853361 1.02085 1.12016)
(1.46744 1.14022 1.00056)
(1.13374 1.30555 0.766562)
(1.20106 1.40831 1.26929)
(1.18697 1.20623 0.994953)
(1.20343 1.33788 1.02238)
(0.638477 1.26421 0.850296)
(1.66732 1.15473 0.995427)
(1.19392 1.05046 0.728034)
(1.29167 1.24733 1.38181)
(1.45151 1.16816 1.08572)
(1.4419 1.30752 1.12127)
(1.24375 1.29809 1.18706)
(1.43636 1.24264 1.11916)
(1.46215 1.15277 1.0518)
(1.43643 1.18316 1.09933)
(1.22622 1.47344 1.03723)
(1.4471 1.30424 1.10966)
(1.39475 1.26281 1.15342)
(0.883031 0.95193 1.33423)
(0.525812 1.33091 1.25779)
(0.963619 1.34853 1.1837)
(1.09369 1.20196 1.18703)
(0.972654 0.977416 1.12838)
(0.571156 1.09958 1.4127)
(0.708381 1.06587 1.34804)
(0.938579 1.53391 1.40306)
(1.06673 1.24143 1.31803)
(1.45533 1.17568 0.909401)
(1.42951 1.21718 0.902071)
(1.21768 1.46253 0.745461)
(1.23825 1.36671 0.741807)
(1.46107 1.15079 0.946283)
(1.43591 1.19143 0.909769)
(1.3639 1.38644 0.837811)
(1.20664 1.45976 0.753873)
(1.18925 1.45377 0.705243)
(0.89514 1.3908 0.617756)
(0.562222 0.947268 0.797664)
(0.760703 1.00989 0.718339)
(0.946658 0.95371 0.819004)
(1.08684 1.32584 0.818847)
(0.976978 1.23575 0.687001)
(0.62442 0.965164 0.731531)
(1.03603 0.939978 0.719981)
(0.84745 0.94867 1.00042)
(1.30194 1.41783 1.15705)
(1.23516 1.22482 1.11711)
(1.27433 1.20513 1.13593)
(1.15607 1.22475 1.01251)
(1.22357 1.41525 1.33421)
(1.34584 1.23382 1.1564)
(1.13724 1.33376 1.12318)
(1.44979 1.31444 0.98432)
(1.12207 1.22817 1.11056)
(1.22905 1.15507 0.865825)
(1.06811 1.53454 0.571238)
(1.10642 1.61072 0.711891)
(1.18061 1.28452 0.757283)
(1.01559 1.67522 1.00155)
(1.39935 1.34185 0.905188)
(1.09473 1.45224 0.816299)
(1.04848 1.38276 0.912479)
(1.18533 1.39113 0.785714)
(0.963724 1.03812 1.15772)
(0.933698 0.979347 1.13102)
(0.991167 1.30948 1.0649)
(1.0981 1.518 1.03292)
(0.990709 1.02961 1.22654)
(0.956119 1.00903 1.13886)
(0.855971 0.981104 1.12867)
(0.972789 1.44348 1.00984)
(0.9484 1.55849 0.994506)
(1.17609 1.51247 0.948454)
(1.5498 1.39711 1.13238)
(1.55765 1.36764 1.10286)
(1.49522 1.18151 0.998166)
(1.14504 1.27172 1.03592)
(1.49998 1.44155 1.07478)
(1.5699 1.36979 1.09883)
(1.51869 1.39386 1.13204)
(1.49246 1.15993 0.997064)
(0.577777 1.12474 1.20827)
(0.470024 1.06015 1.15368)
(0.669428 1.17765 1.4638)
(1.07572 1.29804 1.43814)
(1.11615 1.13024 1.50062)
(1.11406 1.01463 1.5041)
(1.31266 1.31439 1.39332)
(0.627483 1.35339 1.05609)
(0.561803 1.0901 1.22373)
(0.547903 1.28688 1.40352)
(0.942119 1.3645 1.38425)
(1.14736 1.01249 1.48873)
(1.16035 0.964218 1.37033)
(1.10515 1.38535 1.3651)
(1.35066 1.24627 1.36927)
(1.25442 1.18962 1.3716)
(1.30353 1.08016 1.29093)
(1.38252 1.08428 1.29696)
(1.43561 1.11753 1.29187)
(1.47975 1.10151 1.26516)
(1.55729 1.10979 1.21881)
(1.64059 1.14182 1.13806)
(1.24924 1.26795 1.40418)
(1.25586 1.10804 1.29802)
(1.34339 1.07512 1.29258)
(1.41351 1.10227 1.29152)
(1.45363 1.11255 1.28002)
(1.51172 1.0999 1.2399)
(1.59759 1.12223 1.1856)
(1.65913 1.1448 1.07076)
(0.640399 1.21326 0.736858)
(0.55561 1.02732 0.816666)
(0.767414 1.12335 0.851395)
(0.969593 1.16101 0.611717)
(1.12303 1.02461 0.732113)
(1.08425 1.03888 0.489799)
(1.06651 1.07825 0.540548)
(0.613789 1.03204 0.854549)
(0.70608 1.14812 0.663113)
(0.667726 1.0911 0.792887)
(0.89689 1.114 0.614564)
(1.17614 1.04883 0.525364)
(1.09259 0.967327 0.608205)
(1.08949 1.06494 0.500477)
(1.20809 1.08543 0.729861)
(1.637 1.14427 0.857524)
(1.56157 1.11558 0.773039)
(1.48401 1.10642 0.724033)
(1.4306 1.124 0.695451)
(1.37858 1.11839 0.703046)
(1.31718 1.14787 0.718651)
(1.24326 1.15935 0.661992)
(1.65396 1.14632 0.922479)
(1.59857 1.12717 0.809466)
(1.51763 1.10591 0.74962)
(1.45446 1.11589 0.707827)
(1.40696 1.12142 0.698249)
(1.34916 1.12965 0.716757)
(1.27867 1.15641 0.699724)
(1.20397 1.14347 0.648755)
(1.21326 1.62235 1.18467)
(0.886126 1.58265 1.21354)
(0.85106 1.66811 1.28549)
(1.02254 1.63548 1.36142)
(1.04002 1.45554 1.44269)
(1.05355 1.2919 1.46261)
(1.37739 1.21351 1.32002)
(1.21405 1.70708 1.02633)
(0.95098 1.71081 1.2179)
(0.897597 1.52512 1.22418)
(0.882739 1.67529 1.30664)
(1.04594 1.54779 1.41419)
(1.04918 1.37426 1.50235)
(1.30035 1.12979 1.42695)
(1.34545 1.27927 1.28442)
(1.10381 1.74948 0.839757)
(0.93052 1.69306 0.788854)
(0.977001 1.60387 0.765458)
(1.04151 1.6193 0.594885)
(0.977724 1.48414 0.531822)
(1.06013 1.283 0.475228)
(1.14522 1.21071 0.614702)
(1.15893 1.78888 0.879979)
(1.04553 1.70327 0.787017)
(0.951689 1.63743 0.782489)
(0.980527 1.5937 0.791787)
(1.03807 1.52584 0.536752)
(1.03513 1.40536 0.478764)
(1.18612 1.26391 0.570079)
(1.21427 1.10768 0.705821)
(0.644176 1.26296 0.869917)
(1.01319 1.66202 0.957431)
(0.984416 1.63688 1.05943)
(1.1852 1.57585 0.881236)
(1.15361 1.47609 1.0688)
(1.12743 1.63439 1.01147)
(1.12011 1.26057 0.988971)
(0.661778 1.39636 0.921413)
(0.826627 1.52018 0.926605)
(0.954552 1.62061 1.00799)
(1.09156 1.24561 0.891722)
(1.18586 1.46552 1.22752)
(1.14842 1.39575 1.04039)
(1.12133 1.26763 0.960762)
(1.12112 1.26998 1.01519)
(1.27159 1.49054 1.07478)
(1.41034 1.46381 1.06184)
(1.40058 1.48546 1.07469)
(1.52279 1.43674 1.1122)
(1.60426 1.42503 1.03209)
(1.65301 1.40473 1.0007)
(1.68825 1.30084 0.994928)
(1.3107 1.45666 1.03277)
(1.25688 1.3986 1.17718)
(1.43091 1.46421 1.03475)
(1.43734 1.49024 1.0904)
(1.58327 1.42248 1.06259)
(1.6356 1.41546 1.00849)
(1.67951 1.3425 0.994529)
(1.68612 1.23034 0.995302)
(1.33717 1.26276 0.816889)
(1.26652 1.09408 0.765504)
(1.17378 1.47871 0.714025)
(1.28858 1.25293 1.28794)
(1.26894 1.31195 1.21057)
(1.29815 1.18855 1.3191)
(0.621425 1.20189 0.856716)
(0.910956 1.10013 0.818986)
(0.660521 1.18191 0.717821)
(1.53097 1.10911 0.99393)
(1.50258 1.12944 0.997312)
(1.57952 1.09439 0.993284)
(1.25384 1.49982 1.27532)
(1.37384 1.62972 1.16184)
(1.3092 1.49989 1.36158)
(1.62083 1.3658 1.25213)
(1.20644 1.68452 1.19305)
(1.38147 1.1639 1.26155)
(1.65028 1.25877 1.21862)
(1.56836 1.33152 1.31745)
(1.1743 1.60821 1.28284)
(1.51051 1.68008 1.23818)
(1.54194 1.66258 1.16023)
(0.919355 1.56444 1.22995)
(1.51714 1.50206 1.27448)
(1.66169 1.36318 1.21032)
(1.36542 1.51366 1.09417)
(1.66935 1.36754 1.1061)
(1.41539 1.34459 1.30152)
(1.64027 1.40504 1.15022)
(1.07234 1.79023 1.2023)
(1.30499 1.16182 1.30549)
(0.951416 1.44103 1.08887)
(1.44015 1.45749 1.35158)
(1.51064 1.21177 1.31468)
(1.29987 1.65218 1.06275)
(0.953179 1.73985 1.22981)
(1.28836 1.42185 1.23768)
(1.45738 1.27999 1.30123)
(1.52173 1.38979 1.28582)
(1.10154 1.74675 1.06332)
(1.32923 1.1829 1.35079)
(1.68435 1.271 1.09347)
(1.27 1.48011 1.22463)
(1.06377 1.48307 1.19742)
(1.44443 1.35824 1.27436)
(1.43167 1.57183 1.25177)
(1.58561 1.42223 1.20386)
(1.27774 1.13482 1.28643)
(1.35695 1.11764 1.29048)
(1.3373 1.20017 1.34378)
(1.30417 1.18061 1.36716)
(1.26442 1.15767 1.30787)
(1.39085 1.15059 1.31861)
(1.40698 1.17752 1.32233)
(1.40736 1.27475 1.30111)
(1.42155 1.20721 1.30875)
(1.43085 1.23906 1.30217)
(1.42648 1.35281 1.29134)
(1.4427 1.21499 1.29416)
(1.46397 1.17301 1.29098)
(1.46153 1.32938 1.27631)
(1.49287 1.15012 1.28254)
(1.53479 1.14388 1.26218)
(1.47082 1.24037 1.30899)
(1.60059 1.17064 1.23038)
(1.64715 1.19888 1.17738)
(1.57647 1.21477 1.28528)
(1.67005 1.20388 1.11947)
(1.68299 1.2111 1.04572)
(1.66912 1.26002 1.15713)
(1.68786 1.28631 1.04576)
(1.25716 1.61365 1.15435)
(1.20915 1.68387 1.12652)
(1.09521 1.75858 1.10541)
(1.22978 1.68528 1.08095)
(1.26158 1.67771 1.01859)
(1.25042 1.3937 1.23679)
(1.31515 1.64547 1.00623)
(1.24614 1.63807 1.25254)
(1.55263 1.59942 1.12873)
(1.45015 1.57141 1.2422)
(1.24103 1.39356 1.1761)
(1.60132 1.41518 1.13691)
(1.53915 1.42816 1.18204)
(1.57413 1.64028 1.21931)
(1.6452 1.40104 1.07132)
(1.62361 1.41333 1.09614)
(1.62647 1.40213 1.1781)
(1.68054 1.32915 1.05183)
(1.66291 1.37991 1.05237)
(1.65881 1.38523 1.12431)
(1.67999 1.31215 1.10186)
(1.1819 1.44845 1.25956)
(1.27222 1.62591 1.26806)
(1.32636 1.60075 1.17952)
(1.42375 1.64841 1.15162)
(1.38706 1.59871 1.13515)
(1.27243 1.65487 1.26502)
(1.34292 1.64083 1.14095)
(1.40896 1.5664 1.05559)
(1.52285 1.6722 1.15704)
(1.28635 1.44558 1.15713)
(1.39349 1.33161 1.27429)
(1.37235 1.37217 1.30056)
(1.32088 1.16744 1.26921)
(1.39869 1.32412 1.29147)
(1.45145 1.47339 1.29189)
(1.43257 1.42435 1.2678)
(1.17174 1.43599 1.16452)
(1.08433 1.45272 1.32394)
(1.27119 1.55215 1.23595)
(1.03403 1.45325 1.14067)
(1.42525 1.58197 1.2)
(1.61866 1.38055 1.22785)
(1.64399 1.37123 1.20779)
(1.60147 1.43859 1.2614)
(1.62675 1.52583 1.21933)
(1.55728 1.38094 1.29614)
(1.56638 1.40147 1.29608)
(1.6018 1.34669 1.28696)
(1.64369 1.35467 1.23396)
(1.62428 1.33744 1.27915)
(1.65807 1.38118 1.17719)
(1.56933 1.47618 1.28193)
(1.47652 1.5195 1.3506)
(1.15045 1.73216 1.23445)
(1.16633 1.75123 1.16195)
(1.19371 1.69445 1.25855)
(1.04085 1.76048 1.11687)
(1.05417 1.76123 1.15927)
(0.910688 1.68655 1.16468)
(1.1296 1.71847 1.11024)
(0.912581 1.59847 1.25157)
(0.893986 1.54898 1.25903)
(0.994804 1.76246 1.23735)
(0.877802 1.58104 1.18667)
(0.902936 1.67598 1.2932)
(0.896131 1.65253 1.17499)
(1.05552 1.56681 1.37314)
(1.03256 1.63969 1.28159)
(0.909753 1.67992 1.25545)
(1.00512 1.39511 1.34101)
(1.08387 1.36484 1.44758)
(1.02908 1.48834 1.25022)
(1.33346 1.15474 1.39038)
(1.35484 1.18381 1.31219)
(1.3542 1.2067 1.29716)
(1.3228 1.17145 1.31822)
(1.05884 1.37615 1.05649)
(1.11313 1.43561 1.23522)
(0.988066 1.64643 1.27579)
(1.30401 1.6032 1.02666)
(1.31207 1.61073 1.11092)
(1.14037 1.46148 1.1354)
(1.47285 1.63772 1.1833)
(1.67234 1.30464 1.16692)
(1.02366 1.449 1.06366)
(1.03101 1.46111 1.13302)
(1.28275 1.52277 1.03858)
(1.27082 1.4536 1.1444)
(1.48831 1.61479 1.09677)
(1.65843 1.30985 1.22577)
(1.60811 1.28484 1.28676)
(1.53577 1.27833 1.32018)
(1.6703 1.35542 1.16519)
(1.5398 1.34595 1.29992)
(1.52854 1.46276 1.27375)
(1.50386 1.30336 1.29698)
(1.1512 1.64017 1.26506)
(1.42432 1.49907 1.37646)
(1.35546 1.57554 1.32626)
(1.46895 1.46552 1.32798)
(1.50585 1.49629 1.25685)
(1.48551 1.48675 1.23905)
(1.47253 1.40837 1.26179)
(1.49656 1.34723 1.26299)
(0.753037 1.55307 1.47851)
(0.689846 1.44549 1.3995)
(0.922051 1.18609 1.08714)
(0.548327 1.2187 1.27276)
(0.694761 1.5353 1.29691)
(0.876113 1.50999 1.47863)
(0.606766 1.08237 1.2882)
(0.852211 1.61847 1.20441)
(1.18796 1.21902 1.52072)
(0.965353 1.24577 1.10257)
(0.56829 1.26774 1.26086)
(0.864804 1.51049 1.25884)
(0.916672 1.61257 1.44307)
(0.94994 1.45215 1.41775)
(1.01746 1.47669 1.48343)
(0.842164 1.67117 1.22814)
(0.491637 1.04352 1.20129)
(1.06368 1.29611 1.459)
(0.59568 1.1411 1.12295)
(0.797238 1.41581 1.13236)
(0.925536 1.47604 1.44276)
(0.837507 1.58143 1.26245)
(1.01579 1.44339 1.47959)
(0.809682 1.28767 1.24788)
(0.909611 1.35443 1.21225)
(0.857793 1.0032 1.31265)
(1.00816 1.21688 1.15766)
(0.66007 1.48715 1.42263)
(0.948181 1.45572 1.40571)
(0.777966 1.56298 1.42475)
(0.658283 1.3839 1.10828)
(0.705835 1.37949 1.13039)
(0.787306 1.16791 1.06253)
(1.30137 1.2907 1.40864)
(0.768544 1.52469 1.05966)
(1.23268 1.50454 1.20633)
(0.943309 1.30405 1.12297)
(0.659581 1.19809 1.16263)
(0.656752 1.15549 1.06086)
(0.521504 1.11796 1.2518)
(0.632769 1.18962 1.21432)
(0.617916 1.08913 1.18581)
(0.481847 1.07887 1.21802)
(0.461988 1.05065 1.18753)
(0.624281 1.18594 1.2156)
(0.572996 0.980838 1.15314)
(0.600181 1.04158 1.20435)
(0.466659 1.05443 1.17041)
(1.0833 1.04658 1.53246)
(1.08441 1.36323 1.33975)
(1.14064 1.21703 1.53011)
(1.15685 1.09736 1.48594)
(0.997673 1.37778 1.45216)
(1.35395 1.30677 1.2981)
(1.32891 1.27082 1.27005)
(1.13334 1.30536 1.45922)
(0.749129 1.50874 1.2358)
(0.755891 1.49187 1.28033)
(0.684776 1.52654 1.26575)
(0.833199 1.54538 1.24949)
(0.741665 1.46715 1.27437)
(0.644841 1.42173 1.25265)
(0.679484 1.45209 1.26829)
(0.947701 1.6602 1.39267)
(0.901773 1.23251 1.29357)
(0.627263 1.41215 1.25202)
(0.888774 1.50435 1.29502)
(0.895138 1.18827 1.30755)
(0.537558 1.30102 1.21798)
(0.62495 1.15133 1.10521)
(0.599763 1.28212 1.09158)
(0.577997 1.31704 1.06554)
(0.944641 1.09963 1.27966)
(0.954842 1.0193 1.02787)
(0.702306 1.43361 1.09753)
(1.04816 1.63189 1.17526)
(0.872191 1.54513 1.26847)
(0.857981 1.58336 1.26489)
(0.968638 1.53948 1.33367)
(1.02061 1.66928 1.24763)
(0.803902 1.43081 1.40517)
(0.834741 1.5837 1.35979)
(1.23999 1.49188 1.23244)
(0.977305 1.49929 1.48338)
(1.02758 1.55767 1.43596)
(0.956715 1.48226 1.48614)
(0.897555 1.48973 1.4984)
(0.843089 1.56128 1.48897)
(0.814609 1.51144 1.4979)
(0.618276 1.37167 1.25046)
(1.13142 1.20215 1.53307)
(0.972957 1.42701 1.41563)
(0.959086 1.4506 1.44037)
(1.00713 1.36422 1.47703)
(0.85555 1.55417 1.4164)
(0.839895 1.5613 1.42891)
(0.885683 1.53226 1.42208)
(0.872969 1.5476 1.40996)
(0.825616 1.5283 1.40361)
(1.0414 1.54298 1.42662)
(1.00307 1.64558 1.37865)
(1.02595 1.48373 1.45338)
(1.02614 1.45935 1.45695)
(0.984094 1.49808 1.4617)
(0.944079 1.50044 1.46505)
(0.820355 1.65727 1.28658)
(0.812011 1.60562 1.20727)
(1.27491 1.16996 1.39735)
(1.05805 1.29189 1.4589)
(0.99741 1.34886 1.48353)
(1.00803 1.36054 1.5036)
(1.32654 1.21299 1.40484)
(1.27512 1.22716 1.42872)
(1.15126 1.26943 1.51922)
(1.02002 1.32573 1.46784)
(1.02196 1.4079 1.49422)
(0.807488 1.0245 1.32243)
(0.573576 1.25211 1.2639)
(1.03802 1.16187 1.16241)
(0.848938 1.03842 1.29528)
(0.717033 1.30297 1.30557)
(1.04975 1.19457 1.08486)
(0.989753 1.22563 1.04589)
(0.522176 1.13168 1.28463)
(0.869596 1.58186 1.19422)
(1.07027 1.73655 1.22275)
(1.21572 1.60704 1.22433)
(1.02918 1.31576 1.13266)
(0.908306 1.52672 1.28565)
(0.818614 1.56056 1.45673)
(0.742765 1.52604 1.46964)
(0.649706 1.47792 1.33083)
(1.04084 1.18809 1.15034)
(0.701085 1.52064 1.46018)
(0.866842 1.02935 1.1828)
(0.711537 1.50692 1.44089)
(0.679904 1.47941 1.01465)
(1.13149 1.6139 1.18182)
(1.19673 1.57267 1.16884)
(0.809292 1.50568 1.06214)
(0.744068 1.32678 1.29593)
(0.784665 1.32471 1.16552)
(0.915606 1.37044 1.32663)
(0.84487 1.31836 1.28004)
(1.02178 1.58717 1.09228)
(0.809022 1.44726 1.0624)
(0.962308 1.29895 1.09752)
(0.851252 1.36853 1.04481)
(0.832582 1.48767 1.03103)
(0.578117 1.30277 1.18463)
(0.935909 1.46132 1.39464)
(0.703587 1.10371 1.37568)
(0.594847 1.3088 1.22563)
(0.971073 1.38035 1.38537)
(0.896025 1.51817 1.40879)
(0.884267 1.52406 1.45597)
(0.583266 1.38785 1.248)
(0.91704 1.2391 1.05689)
(0.908784 1.28676 1.04215)
(0.814075 1.36825 1.03328)
(0.955622 1.33261 1.21245)
(0.61606 1.44689 1.35189)
(0.623658 1.45964 1.22883)
(0.676303 1.43006 1.42362)
(0.739614 1.31694 1.31847)
(0.750622 1.30285 1.04923)
(0.785156 1.2311 1.3137)
(0.705677 1.27579 1.29424)
(0.686769 1.36334 1.14756)
(0.528889 1.25687 0.664674)
(0.888306 1.54434 0.741894)
(0.584869 1.13261 0.707388)
(0.483669 1.20037 0.691615)
(0.978281 1.42867 0.731842)
(0.757049 1.61242 0.665912)
(0.936642 1.65154 0.69494)
(0.841261 1.48233 0.618602)
(0.64972 1.22532 0.524126)
(0.82079 1.51622 0.779127)
(0.971381 1.30816 0.72566)
(0.928833 1.70261 0.650493)
(0.760814 1.63485 0.649996)
(0.590418 1.31895 0.746077)
(0.806574 1.23909 0.785343)
(0.874608 1.60304 0.780191)
(0.868085 1.55952 0.609598)
(0.507357 0.982966 0.8693)
(1.18976 1.17049 0.569838)
(0.966629 1.21511 0.964606)
(1.07168 1.1349 0.749787)
(0.856909 1.32809 0.817221)
(1.05411 1.19892 0.856508)
(1.04495 1.12658 0.968043)
(0.941034 1.6142 0.76696)
(0.605539 1.52289 0.674218)
(0.802606 1.23215 0.753555)
(1.02654 1.14732 0.958123)
(0.938955 1.50614 0.548387)
(0.819458 1.43404 0.903643)
(0.855838 1.39072 0.609891)
(1.04627 1.25379 0.895865)
(1.11099 1.70038 0.855591)
(0.634501 1.51071 0.582353)
(0.917346 1.56292 0.560448)
(1.1875 1.29538 0.602819)
(0.530546 1.38355 0.769668)
(0.545363 1.31099 0.712722)
(0.570141 1.13421 0.675525)
(0.567401 1.12336 0.697281)
(0.602695 1.12049 0.680637)
(0.602791 1.52521 0.634714)
(0.715434 1.60125 0.774343)
(0.475871 1.10706 0.701578)
(0.520561 1.36166 0.65441)
(0.617966 1.41767 0.540126)
(0.830035 1.49954 0.62719)
(0.834113 1.56414 0.635753)
(0.958536 1.40514 0.510698)
(0.811758 1.61101 0.640647)
(0.866604 1.53131 0.62429)
(0.967063 1.39038 0.523502)
(0.781966 1.55143 0.635822)
(0.91669 1.32464 0.726931)
(0.708437 1.59785 0.677389)
(0.751692 1.62976 0.679044)
(0.821624 1.59948 0.614242)
(0.788522 1.41607 0.626686)
(1.15371 1.23197 0.616748)
(1.21104 1.16272 0.682791)
(1.11531 1.30625 0.586021)
(0.87243 1.63125 0.76127)
(0.87412 1.5962 0.695555)
(0.940983 1.60005 0.671151)
(0.926962 1.59396 0.792773)
(0.911418 1.61329 0.806245)
(1.10101 1.4628 0.813926)
(1.06206 1.45415 0.807469)
(0.947595 1.62608 0.778455)
(0.930966 1.63051 0.810375)
(1.02274 1.65745 0.706107)
(0.955569 1.68594 0.718776)
(1.20179 1.61679 0.807884)
(1.10279 1.25341 0.527835)
(1.06993 1.13095 0.576743)
(0.905332 1.45543 0.574939)
(0.933072 1.43633 0.507641)
(1.11516 1.26371 0.514901)
(0.607041 1.42748 0.619924)
(0.605456 1.54883 0.75198)
(0.599021 1.08101 0.609081)
(0.759533 1.06025 0.94962)
(0.99158 1.19532 0.920536)
(1.10888 1.05895 0.524579)
(1.01146 1.25225 0.57548)
(1.16021 1.124 0.588678)
(0.581368 1.3564 0.759796)
(0.698506 1.5022 0.804734)
(0.7771 1.49916 0.781069)
(0.621873 1.49684 0.812211)
(0.863906 1.58674 0.773781)
(0.85916 1.51229 0.67083)
(0.882854 1.51254 0.773969)
(0.795644 1.53295 0.77775)
(0.792277 1.47976 0.901234)
(0.635295 1.55871 0.715991)
(0.656251 1.52185 0.637068)
(0.74718 1.2601 0.827852)
(0.888652 1.26681 0.779537)
(0.840923 1.4036 0.613828)
(0.964395 1.37036 0.552287)
(0.922138 1.37668 0.586895)
(0.984741 1.27217 0.794022)
(0.868985 1.14573 0.61398)
(1.12607 1.13841 0.493539)
(0.996136 1.5791 0.77477)
(0.925064 1.60046 0.747409)
(0.974085 1.574 0.744288)
(1.05825 1.60547 0.581533)
(0.989546 1.59549 0.744658)
(0.973901 1.59012 0.761033)
(1.00245 1.53616 0.537208)
(1.02311 1.52563 0.529606)
(0.986834 1.58564 0.560993)
(0.888139 1.66854 0.627992)
(0.922418 1.52856 0.555779)
(0.838256 1.63134 0.616973)
(0.769995 1.64086 0.746028)
(0.689169 1.60386 0.681743)
(0.900625 1.52344 0.584734)
(0.856142 1.56928 0.575022)
(0.826341 1.60163 0.597041)
(0.910066 1.49595 0.60642)
(0.940767 1.48366 0.573045)
(0.494995 1.13584 0.715677)
(0.504083 1.17216 0.731304)
(0.5853 1.17366 0.738294)
(0.493896 1.10765 0.61716)
(0.439653 1.12089 0.676479)
(0.960124 1.25539 0.975241)
(0.69037 1.1512 0.561356)
(0.963127 1.24234 0.968685)
(0.729911 1.05519 0.966739)
(0.930521 1.26462 0.764925)
(0.814662 1.23724 0.868104)
(0.599432 1.0525 0.619656)
(0.975745 1.10713 0.981362)
(0.538766 1.07001 0.619279)
(0.45625 1.02243 0.746375)
(1.08998 1.72358 0.85611)
(1.14547 1.77573 0.899775)
(0.624961 1.09656 0.820976)
(0.740972 1.18304 0.70533)
(0.692816 1.20162 0.676524)
(0.75715 1.18724 0.765893)
(1.09962 1.10877 0.715316)
(1.02729 1.46618 0.843302)
(1.03808 1.46862 0.847751)
(0.945558 1.10078 0.827406)
(0.892416 1.43601 0.886574)
(0.749277 1.3369 0.682126)
(0.948257 1.12028 0.746754)
(0.898162 1.47896 0.935545)
(0.895963 1.4542 0.835466)
(0.997863 1.24947 0.854878)
(0.995943 1.49755 0.952453)
(0.974292 1.57457 0.954802)
(0.764875 1.39615 0.81856)
(1.0981 1.56305 0.919999)
(0.856389 1.20915 0.943488)
(0.704653 1.17055 0.64849)
(0.936387 1.21913 0.968223)
(1.09859 1.10765 0.74136)
(1.07299 1.16031 0.837206)
(0.912173 1.25632 0.815824)
(1.42102 1.62417 0.781119)
(1.32316 1.68294 0.831245)
(1.63566 1.38424 0.763342)
(1.03128 1.42026 0.723462)
(1.19103 1.77568 0.797389)
(1.64177 1.25778 0.775565)
(1.32472 1.20968 0.69985)
(1.29681 1.31831 0.738076)
(1.33958 1.7261 0.850411)
(1.23787 1.59212 0.754328)
(0.922575 1.67829 0.835269)
(1.43498 1.53615 0.756181)
(1.48102 1.43501 0.712264)
(1.25396 1.30518 0.7191)
(1.4568 1.46411 0.630056)
(1.29009 1.21371 0.643431)
(1.54038 1.25737 0.679824)
(1.01906 1.40952 0.796927)
(1.21339 1.52046 0.942152)
(1.67695 1.35661 0.885985)
(1.61842 1.46324 0.898806)
(1.54293 1.3856 0.713023)
(1.37319 1.27022 0.68475)
(1.01942 1.71174 0.828392)
(1.27953 1.45339 0.891189)
(1.60743 1.46178 0.735278)
(1.4077 1.28837 0.688042)
(1.44446 1.32064 0.801526)
(1.20843 1.77367 0.903229)
(1.68119 1.2488 0.893661)
(1.21237 1.22429 0.61821)
(1.5679 1.54636 0.770028)
(1.56778 1.45601 0.920462)
(1.44362 1.28568 0.670447)
(0.962604 1.65272 0.787893)
(1.18613 1.56688 0.793903)
(1.6872 1.26899 0.94319)
(1.67824 1.20217 0.945837)
(1.66414 1.19465 0.871829)
(1.39693 1.65565 0.833939)
(1.32958 1.68619 0.80971)
(1.38679 1.60941 0.830688)
(1.36597 1.56317 0.913254)
(1.34684 1.59916 0.740228)
(1.44098 1.6009 0.783566)
(1.44926 1.6169 0.854789)
(1.36784 1.50275 0.636611)
(1.45994 1.58669 0.690863)
(1.49582 1.60629 0.754048)
(1.53039 1.56497 0.770186)
(1.54215 1.55795 0.705305)
(1.24375 1.45979 0.920895)
(1.30892 1.47725 0.86042)
(1.24714 1.73552 0.952179)
(1.09308 1.49016 0.99556)
(1.33306 1.67819 0.998155)
(1.33883 1.47608 0.832128)
(1.41695 1.48982 0.762626)
(1.2378 1.5219 0.9416)
(1.42945 1.50761 0.748287)
(1.51824 1.50581 0.790109)
(1.41763 1.50546 0.819534)
(1.59149 1.42954 0.981091)
(1.55831 1.42882 0.961964)
(1.55038 1.51623 0.824334)
(1.61424 1.43851 0.954719)
(1.64818 1.41639 0.936391)
(1.59983 1.46277 0.915463)
(1.67385 1.3706 0.941528)
(1.68522 1.30915 0.934403)
(1.65752 1.40586 0.880624)
(1.68062 1.289 0.881352)
(1.17908 1.14709 0.642189)
(1.17986 1.19066 0.633558)
(1.23992 1.19682 0.627585)
(1.07214 1.71085 0.837128)
(1.12538 1.7564 0.820979)
(1.18625 1.78587 0.847936)
(1.14774 1.77671 0.840527)
(0.971639 1.71374 0.791386)
(1.08684 1.73712 0.787076)
(1.32706 1.7214 0.941761)
(1.25005 1.76885 0.898208)
(1.26865 1.76607 0.827336)
(1.22321 1.73994 0.765587)
(1.63509 1.31862 0.759067)
(1.58771 1.31877 0.707743)
(1.59266 1.24761 0.718239)
(1.55577 1.16919 0.724668)
(1.60143 1.17478 0.763594)
(1.66535 1.3008 0.82148)
(1.66396 1.24758 0.829928)
(1.65887 1.36464 0.817754)
(1.64331 1.19428 0.815255)
(0.960487 1.66026 0.821636)
(0.970378 1.59736 0.807778)
(0.965351 1.63125 0.764838)
(0.957987 1.69214 0.819447)
(1.13882 1.51986 0.572481)
(1.11848 1.62883 0.643625)
(0.9793 1.6429 0.750706)
(1.07393 1.39161 0.656815)
(1.12289 1.48417 0.587707)
(1.10423 1.56739 0.624232)
(1.2052 1.25376 0.610063)
(1.27709 1.22089 0.595601)
(1.31239 1.26196 0.692468)
(1.24616 1.22009 0.630285)
(1.4166 1.3576 0.762805)
(1.33479 1.52771 0.701668)
(1.19747 1.53594 0.727463)
(1.06247 1.41328 0.718518)
(1.28714 1.33778 0.71756)
(1.32357 1.46228 0.693199)
(0.983199 1.42261 0.939232)
(1.07511 1.54189 0.616036)
(1.16612 1.42963 0.959146)
(1.17835 1.49039 0.869374)
(1.25694 1.55551 0.809681)
(1.35485 1.51938 0.666857)
(1.02115 1.64548 0.667367)
(1.19474 1.62797 0.796503)
(1.20013 1.39327 0.96616)
(1.01798 1.68371 0.810325)
(1.33394 1.23837 0.74181)
(1.34058 1.25941 0.757629)
(1.36132 1.22643 0.695026)
(1.3114 1.2871 0.773885)
(1.28896 1.23604 0.703648)
(1.29291 1.21334 0.692897)
(1.28742 1.1905 0.658249)
(1.33122 1.17328 0.697129)
(1.36384 1.16351 0.686626)
(1.29113 1.17957 0.671589)
(1.35977 1.31661 0.788074)
(1.48783 1.38106 0.783378)
(1.37823 1.29387 0.78386)
(1.3934 1.6631 0.932942)
(1.48203 1.4405 0.680665)
(0.971182 1.67696 0.808269)
(1.58337 1.50611 0.851623)
(1.53102 1.42121 0.690429)
(1.53437 1.41847 0.742027)
(1.5215 1.38043 0.769947)
(1.56175 1.41014 0.689151)
(1.54531 1.47841 0.667184)
(1.59508 1.5049 0.751273)
(1.50142 1.34832 0.7215)
(1.48144 1.26266 0.663633)
(1.53015 1.33584 0.693816)
(1.47127 1.18377 0.68479)
(1.50952 1.16863 0.701201)
(1.57521 1.3718 0.702166)
(1.45758 1.31874 0.756217)
(1.42674 1.29327 0.685981)
(1.42297 1.30051 0.771436)
(1.44239 1.21133 0.674415)
(1.4256 1.20427 0.677116)
(1.64107 1.42684 0.826153)
(1.62392 1.45722 0.816973)
(1.60761 1.48069 0.840268)
(1.62163 1.41174 0.748514)
(1.38998 1.28747 0.692914)
(1.38717 1.18211 0.679707)
(1.40647 1.19213 0.680111)
(0.978479 1.50563 1.34254)
(0.921599 0.957776 1.06952)
(0.999608 1.06891 1.33235)
(1.07287 1.28574 1.25481)
(1.14226 1.2154 1.32501)
(0.885157 1.08876 1.13426)
(0.813478 1.09931 1.33348)
(0.804317 1.01715 1.32922)
(0.81918 1.05875 1.16049)
(1.15274 1.33398 1.25656)
(1.02316 1.07692 1.41397)
(0.882046 1.12322 1.21973)
(1.35713 1.22112 1.13436)
(1.04134 1.10444 1.41204)
(1.14361 1.21538 1.0518)
(1.12545 1.24904 0.908793)
(1.12266 1.22235 0.982703)
(1.21809 1.2276 1.04885)
(1.42362 1.36579 1.11318)
(1.18634 1.14833 1.15682)
(0.541408 1.3246 1.30746)
(0.678102 1.20293 1.36538)
(0.577285 1.20611 1.40678)
(1.11803 1.08179 1.24489)
(0.659967 1.08563 1.36686)
(1.00955 1.05374 1.34479)
(1.02744 1.03366 1.37209)
(1.07116 1.1025 1.36559)
(1.04059 1.13089 1.41284)
(0.578183 1.30061 1.36592)
(0.521004 1.18515 1.38047)
(0.849511 1.13267 1.09346)
(1.04328 1.00589 1.11101)
(0.847541 0.980316 1.27636)
(0.969987 1.10733 1.31843)
(0.96788 1.23455 1.25078)
(0.941086 1.18647 1.27146)
(1.09741 1.06764 1.223)
(0.974164 1.18685 1.14222)
(1.20505 1.14232 1.20697)
(1.30058 1.26604 1.3366)
(1.2702 1.19578 1.11381)
(1.10932 1.21836 1.0461)
(0.901643 1.07697 1.28128)
(1.08103 1.28303 1.15251)
(0.936002 1.18369 1.35881)
(1.17165 1.34867 1.23195)
(1.09523 1.24636 1.276)
(0.940278 1.04634 1.35735)
(1.26266 1.29108 1.25327)
(1.29161 1.32498 1.32797)
(0.878251 1.06031 1.16549)
(0.804403 1.16179 1.34467)
(0.852645 0.990702 1.30828)
(0.882279 1.01999 1.17137)
(1.0492 1.06818 1.21953)
(1.04504 1.07108 1.22531)
(1.02486 1.07816 1.24046)
(0.981511 1.0732 1.31027)
(0.958207 1.42079 1.14738)
(1.01085 1.15245 1.26477)
(0.96944 1.36535 1.1655)
(0.892288 1.11834 1.33452)
(0.946055 1.44869 1.12604)
(1.16806 1.32095 1.32381)
(1.12709 1.23513 1.31631)
(0.93282 1.36976 1.11646)
(0.951722 1.47254 1.12405)
(0.958991 1.01229 1.34378)
(1.03757 1.0022 1.13658)
(0.994832 1.24033 1.21499)
(0.91399 1.12062 1.11616)
(1.32516 1.36744 1.0046)
(1.44277 1.44243 1.17551)
(1.49065 1.39888 1.17959)
(1.55535 1.56238 1.12685)
(1.51435 1.5092 1.14296)
(1.32513 1.39703 1.03859)
(1.43803 1.38678 1.21071)
(1.48994 1.37712 1.20069)
(1.39518 1.3724 1.13193)
(1.49318 1.19177 1.05183)
(1.54366 1.52152 1.15608)
(1.34597 1.38742 1.03669)
(1.398 1.48388 1.34497)
(1.20987 1.28073 0.995543)
(1.31076 1.43304 1.12802)
(1.53591 1.35397 1.14507)
(1.51138 1.3546 1.1571)
(1.47477 1.3661 1.19556)
(1.57754 1.54868 1.17872)
(1.55429 1.4737 1.15706)
(1.45517 1.43494 1.20546)
(1.47689 1.54497 1.13521)
(1.45227 1.41071 1.21699)
(1.44713 1.44586 1.18117)
(1.46759 1.50369 1.17939)
(1.44191 1.43628 1.23009)
(1.54494 1.48238 1.15171)
(1.19016 1.26328 1.01056)
(1.19473 1.2858 1.02335)
(1.41008 1.39791 0.964792)
(1.33614 1.24586 0.959478)
(1.26812 1.26457 0.970558)
(1.46053 1.39483 1.16238)
(1.47881 1.20005 1.06924)
(1.50574 1.32122 1.05511)
(1.48166 1.18319 1.07012)
(1.49188 1.16364 1.03416)
(1.33189 1.42971 1.05856)
(1.27891 1.46822 1.03174)
(1.22752 1.4638 1.30079)
(1.37188 1.4555 1.29379)
(1.52734 1.54729 1.18543)
(1.31804 1.42721 1.08197)
(1.29527 1.38267 1.12576)
(1.36196 1.43449 1.13347)
(1.30835 1.21875 1.14443)
(1.38044 1.4133 1.15065)
(1.32199 1.40248 1.16894)
(1.36597 1.44774 1.11983)
(1.39176 1.39437 1.04187)
(1.39954 1.23473 1.09064)
(1.39522 1.41431 1.10045)
(1.33493 1.47987 1.35725)
(1.50602 1.53852 1.18076)
(1.48805 1.54129 1.20422)
(1.24881 1.29465 0.987013)
(1.4385 1.31059 1.06287)
(1.26801 1.44806 1.01804)
(1.22489 1.37066 1.13532)
(1.30661 1.44644 1.00829)
(1.40543 1.46876 1.34964)
(1.37355 1.35589 1.06249)
(1.42696 1.45673 1.29524)
(1.49316 1.18128 1.02554)
(1.51712 1.38437 1.10838)
(1.51737 1.3907 1.11666)
(1.3811 1.48493 1.28208)
(1.54799 1.5466 1.11457)
(1.5525 1.36407 1.13778)
(1.51576 1.38312 1.1881)
(1.54059 1.57367 1.22294)
(1.51256 1.39197 1.16906)
(1.28154 1.37335 0.848749)
(1.52364 1.40487 1.02464)
(1.36234 1.46872 0.743663)
(1.35533 1.36572 0.974282)
(1.48878 1.43583 0.800236)
(1.55448 1.38953 1.05418)
(1.22159 1.21578 0.823948)
(1.54578 1.39868 0.903077)
(1.19708 1.21535 0.828384)
(1.21471 1.46702 0.911713)
(1.50536 1.2374 0.967956)
(1.20417 1.36766 0.767159)
(1.57956 1.34215 1.03162)
(1.19851 1.27282 0.937474)
(1.39767 1.29118 0.917717)
(0.978962 1.37639 0.959795)
(1.13098 1.24742 0.972678)
(1.21242 1.19046 0.874221)
(1.31414 1.2519 0.941593)
(1.23009 1.22106 0.83222)
(1.00583 1.4077 0.681603)
(1.06598 1.35911 0.963901)
(1.13627 1.20425 0.692592)
(1.18549 1.20467 0.766883)
(1.25492 1.39506 0.883057)
(1.23149 1.36772 0.820442)
(1.34248 1.41388 0.944069)
(1.55004 1.38586 0.894404)
(1.27408 1.53983 0.77356)
(1.25288 1.54056 0.770754)
(1.31915 1.50585 0.802427)
(1.18894 1.17489 0.769293)
(1.28802 1.34599 0.841313)
(1.10699 1.41178 0.92521)
(1.2359 1.31869 0.992953)
(1.19832 1.35057 0.906366)
(1.32201 1.34072 0.927765)
(1.46085 1.43947 0.758099)
(1.27882 1.3297 0.990082)
(1.19369 1.37865 0.766063)
(1.2679 1.37096 0.872844)
(1.30273 1.41638 0.968617)
(1.38658 1.44 0.793442)
(1.37212 1.43529 0.757798)
(1.56043 1.39245 1.00151)
(1.14521 1.51409 0.930961)
(1.5728 1.35993 0.98004)
(1.37359 1.44553 0.834879)
(1.46402 1.46033 0.916508)
(1.46942 1.28508 0.923601)
(1.4532 1.46193 0.867099)
(1.19371 1.49523 0.908998)
(1.21198 1.40671 0.999725)
(1.52238 1.41744 1.10237)
(1.52832 1.39291 1.03123)
(1.47572 1.18235 0.941704)
(1.46361 1.19387 0.928654)
(1.31769 1.44788 0.770466)
(1.57064 1.3562 1.0675)
(1.57112 1.38576 1.06274)
(1.5543 1.40121 0.920631)
(1.45583 1.46548 0.765523)
(1.49693 1.1929 0.975217)
(1.53195 1.391 1.11736)
(1.54653 1.38791 1.10502)
(1.571 1.365 1.04204)
(1.48402 1.16494 0.961074)
(1.58088 1.35611 0.978539)
(1.05448 1.24796 0.661757)
(0.668665 1.33806 0.648814)
(0.947969 1.32965 0.814745)
(0.775212 1.4266 0.69635)
(1.0305 1.29397 0.740187)
(1.23122 1.21566 0.787795)
(0.511989 0.971327 0.736733)
(0.960233 1.1327 0.736956)
(0.769938 1.3397 0.875214)
(0.979216 1.18595 0.799879)