/*--------------------------------*- C++ -*----------------------------------*\
| =========                 |                                                 |
| \\      /  F ield         | OpenFOAM: The Open Source CFD Toolbox           |
|  \\    /   O peration     | Version:  v1806                                 |
|   \\  /    A nd           | Web:      www.OpenFOAM.com                      |
|    \\/     M anipulation  |                                                 |
\*---------------------------------------------------------------------------*/
FoamFile
{
    version     2.0;
    format      ascii;
    class       surfaceScalarField;
    location    "0.108";
    object      phi;
}
// * * * * * * * * * * * * * * * * * * * * * * * * * * * * * * * * * * * * * //

dimensions      [0 3 -1 0 0 0 0];
oriented        oriented;


internalField   nonuniform List<scalar> 
187200
(
9.76775e-06
1.51865e-06
-1.12856e-05
6.18619e-05
-2.66316e-05
-2.54625e-05
8.6778e-05
-1.23742e-05
-1.25416e-05
0.000107411
-1.0592e-05
-1.00406e-05
0.000124367
-7.09666e-06
-9.85926e-06
0.000143054
-6.57355e-06
-1.21135e-05
0.000160088
-2.60285e-06
-1.44309e-05
0.000178266
-4.79861e-07
-1.76982e-05
0.000194608
2.91211e-06
-1.92536e-05
0.000206308
8.50805e-06
-2.02078e-05
0.000219362
6.83995e-06
-1.98944e-05
0.000231198
1.07288e-05
-2.25649e-05
0.000230987
1.74222e-05
-1.7212e-05
0.000207138
3.38697e-05
-1.00207e-05
0.000165053
4.38557e-05
-1.77073e-06
0.000129106
3.06446e-05
5.30261e-06
7.95475e-05
3.03755e-05
1.9183e-05
2.93035e-05
4.15268e-05
8.71695e-06
-6.70942e-05
9.94053e-05
-3.00819e-06
-0.000211249
0.000143362
7.92033e-07
-0.000485171
0.000235964
3.79571e-05
-0.000677925
0.000239915
-4.71602e-05
-0.000825496
0.00028881
-0.000141239
-0.000875175
0.000309537
-0.000259858
-0.000865126
0.000340481
-0.00035053
-0.00079823
0.000368939
-0.000435835
-0.000689782
0.000395147
-0.000503595
-0.000548969
0.000410677
-0.00055149
-0.00038357
0.000406303
-0.000571703
-0.000215196
0.00038875
-0.000557123
-8.11565e-05
0.000349519
-0.000483559
8.34627e-06
0.000300955
-0.000390458
4.43145e-05
0.000240705
-0.000276674
4.08633e-05
0.00017606
-0.000172609
1.95208e-05
0.000122243
-0.0001009
-1.46684e-07
8.22393e-05
-6.25721e-05
-9.91515e-06
5.64783e-05
-4.67097e-05
-1.33184e-05
4.36676e-05
-4.02648e-05
-1.13074e-05
3.4224e-05
-3.62359e-05
2.48578e-05
-3.61661e-05
4.03403e-06
1.87494e-05
-2.12646e-05
4.93918e-05
-3.56414e-05
-3.63475e-05
9.46771e-05
-2.7923e-05
-2.97363e-05
0.00012801
-1.68034e-05
-2.71215e-05
0.000152807
-6.68832e-06
-2.52042e-05
0.000171894
3.46928e-06
-2.91306e-05
0.000182581
2.18605e-05
-3.515e-05
0.000188399
3.46476e-05
-4.09458e-05
0.000181988
6.00038e-05
-5.068e-05
0.000169805
7.85312e-05
-5.784e-05
0.000131758
0.000118648
-7.37617e-05
7.17821e-05
0.000163132
-9.24281e-05
-1.35473e-05
0.000201172
-9.84208e-05
-0.000113202
0.00024133
-0.000107806
-0.000230859
0.000295717
-0.000134205
-0.000401664
0.000368254
-0.000166803
-0.00057051
0.00044643
-0.000247209
-0.000751436
0.000527702
-0.000305249
-0.000914483
0.000636099
-0.000373647
-0.00108135
0.000743571
-0.000433341
-0.00125087
0.000872142
-0.000466659
-0.00135835
0.000950599
-0.0006032
-0.00143419
0.00105576
-0.000691114
-0.00143474
0.0010938
-0.000783719
-0.0013611
0.00113789
-0.000871051
-0.00122307
0.00116087
-0.000929964
-0.00103398
0.00116868
-0.000962626
-0.000808247
0.00114574
-0.000960794
-0.000570887
0.001089
-0.000920056
-0.000343159
0.00100685
-0.00084583
-0.000148394
0.000882785
-0.000728031
1.05827e-05
0.000736359
-0.000594381
0.000101705
0.000581571
-0.000431989
0.0001298
0.000451674
-0.000303709
0.000119759
0.000333559
-0.000201276
9.26173e-05
0.000247572
-0.000138191
6.14528e-05
0.000187046
-9.9404e-05
3.68232e-05
0.000147191
-7.88953e-05
1.34532e-05
0.000117741
-6.01489e-05
8.28032e-05
-4.44934e-05
2.10897e-05
1.13082e-05
-1.36484e-05
6.26811e-05
-4.02309e-05
-3.70021e-05
0.000106124
-2.96613e-05
-4.17048e-05
0.000138657
-7.10411e-06
-4.22325e-05
0.00015712
2.31179e-05
-4.82686e-05
0.000165064
5.27135e-05
-5.7189e-05
0.000157985
9.44399e-05
-6.55003e-05
0.000144115
0.00013112
-8.26021e-05
0.000119972
0.000190844
-0.000106696
6.81288e-05
0.000259388
-0.000129014
-1.66401e-05
0.000344817
-0.0001414
-0.000117576
0.000425808
-0.000161741
-0.000265244
0.000529476
-0.000180636
-0.000439362
0.000638359
-0.000222911
-0.000633274
0.000749789
-0.000260159
-0.000813633
0.000861056
-0.000312445
-0.000967663
0.000972229
-0.00037177
-0.0011031
0.00109321
-0.000430071
-0.0012338
0.00124713
-0.000480342
-0.00137413
0.00140314
-0.00051924
-0.00151485
0.00153901
-0.000526151
-0.00159248
0.00163293
-0.000604698
-0.00162921
0.00173328
-0.000640792
-0.00160644
0.00174668
-0.000675649
-0.00152119
0.0017688
-0.000716156
-0.00138623
0.00175467
-0.000728752
-0.00121366
0.00171511
-0.000718996
-0.00101531
0.00163277
-0.00068538
-0.000803614
0.00151393
-0.000636637
-0.000585073
0.001362
-0.000573693
-0.000393264
0.00118255
-0.000491579
-0.000232647
0.000999325
-0.000423583
-0.000110932
0.000797269
-0.000337414
-2.69954e-05
0.000635253
-0.000267516
1.87715e-05
0.000487848
-0.000200057
3.54478e-05
0.000383214
-0.000152319
3.84785e-05
0.000305957
-0.000121942
3.06859e-05
0.00025593
-0.000100947
1.3912e-05
0.000207745
-7.32311e-05
0.000141637
-4.49219e-05
2.39936e-05
5.71057e-06
-1.83964e-05
6.4338e-05
-3.20762e-05
-4.84994e-05
0.000105371
-1.07422e-05
-5.99519e-05
0.00012977
3.56652e-05
-6.71688e-05
0.00013616
8.89637e-05
-7.22361e-05
0.000128232
0.00014578
-8.51377e-05
0.000111134
0.000221149
-0.000109611
7.8399e-05
0.000299217
-0.000135363
2.52959e-05
0.000411553
-0.000167607
-5.25681e-05
0.000524371
-0.00018712
-0.000159071
0.00065661
-0.00020529
-0.00030522
0.000792923
-0.000220965
-0.000465235
0.000928046
-0.000238555
-0.000617665
0.00104608
-0.00025529
-0.000763581
0.00117423
-0.000278523
-0.000898462
0.00130343
-0.00030749
-0.00102208
0.00143551
-0.000339662
-0.00112966
0.00155727
-0.000356486
-0.00123727
0.00171634
-0.00036159
-0.0013533
0.00185492
-0.000335754
-0.00148914
0.00194652
-0.000271666
-0.00156029
0.00199757
-0.000293485
-0.00159528
0.00205153
-0.000283251
-0.00157908
0.00200745
-0.000276979
-0.0015129
0.00198666
-0.00028404
-0.0014139
0.00192842
-0.000272759
-0.00129077
0.00184658
-0.000254594
-0.00115031
0.00172717
-0.000234868
-0.000997877
0.00157327
-0.000211771
-0.000831158
0.0014027
-0.000207417
-0.000652248
0.00120943
-0.000205786
-0.000474229
0.00102662
-0.000205316
-0.000314936
0.000836965
-0.00019899
-0.00018688
0.000700049
-0.000192853
-9.64809e-05
0.00057104
-0.000173591
-3.52436e-05
0.000473417
-0.00015144
3.57152e-06
0.000403959
-0.000136818
1.79912e-05
0.000352745
-0.000111234
1.56626e-05
0.000290227
-8.01536e-05
0.000199713
-4.2414e-05
2.42286e-05
1.70904e-05
-3.56088e-05
6.51306e-05
2.75918e-06
-7.57369e-05
0.000109672
3.74381e-05
-9.27215e-05
0.000130403
0.000113505
-9.85713e-05
0.000127412
0.000199123
-0.000107168
0.000100981
0.000294733
-0.000122522
6.38002e-05
0.000411966
-0.000153636
2.30546e-05
0.000522758
-0.000182795
-2.08537e-05
0.000666445
-0.000210984
-9.01099e-05
0.000815981
-0.000222353
-0.000181149
0.000973895
-0.000226245
-0.000281494
0.00111717
-0.000223907
-0.000393923
0.00125901
-0.000218536
-0.0005272
0.00139481
-0.000215452
-0.000661946
0.00152073
-0.000211757
-0.0007824
0.00163379
-0.000209912
-0.000882265
0.00173579
-0.000200414
-0.000959293
0.00180513
-0.000170827
-0.00105011
0.00190316
-9.60034e-05
-0.00115873
0.00197915
-1.561e-05
-0.00131409
0.00200757
9.43047e-05
-0.00139236
0.00197016
0.00010567
-0.00144596
0.00198283
0.000122302
-0.00146052
0.00190602
0.00011599
-0.00144004
0.00186965
9.65284e-05
-0.00139789
0.00180207
8.42128e-05
-0.00133727
0.00171609
6.98716e-05
-0.00126906
0.00160382
5.51358e-05
-0.00117407
0.00146505
1.3241e-05
-0.00105338
0.00131431
-3.2292e-05
-0.000904265
0.00114564
-8.53258e-05
-0.00073504
0.000991394
-0.000133995
-0.000562351
0.000831139
-0.000166863
-0.000393693
0.000714769
-0.000183378
-0.000253286
0.000617983
-0.000187351
-0.00013797
0.000528726
-0.000170626
-5.51494e-05
0.000471585
-0.000150448
-5.31333e-06
0.000426828
-0.000123921
9.57468e-06
0.000359266
-8.39288e-05
0.000247249
-3.79634e-05
1.77338e-05
6.36147e-05
-6.42578e-05
6.77043e-05
7.06069e-05
-0.000117817
0.000113393
0.000131803
-0.000140053
0.000133927
0.000233547
-0.000140576
0.000126107
0.000347132
-0.000140188
9.75594e-05
0.000475004
-0.000151725
7.04464e-05
0.000625329
-0.000186251
4.25367e-05
0.000771353
-0.000220686
6.18847e-07
0.000943017
-0.000234655
-5.89306e-05
0.00109969
-0.000224164
-0.000127639
0.00124862
-0.000206012
-0.000205796
0.00137903
-0.000183693
-0.000290455
0.00150186
-0.000158191
-0.000369737
0.00160284
-0.000128752
-0.000447725
0.00169317
-9.44518e-05
-0.000511845
0.00175581
-5.7898e-05
-0.000586265
0.00180283
7.37528e-06
-0.000681307
0.00182107
7.91021e-05
-0.000784174
0.00184285
0.000163171
-0.000896163
0.00182498
0.000266156
-0.00106133
0.00183925
0.000333486
-0.0011669
0.00173615
0.000339582
-0.00125735
0.00173404
0.000339237
-0.00132011
0.00164201
0.000326773
-0.00135207
0.00160124
0.000300368
-0.00136789
0.00153995
0.000277947
-0.00136843
0.00147261
0.000244014
-0.00135689
0.0013884
0.000203879
-0.00131822
0.00128514
0.00014124
-0.00123203
0.00117661
5.15006e-05
-0.00111492
0.00105307
-2.45374e-05
-0.000948249
0.000936883
-0.000112159
-0.000768323
0.000819339
-0.000168125
-0.000568021
0.000723093
-0.000208627
-0.000385233
0.000652605
-0.00021741
-0.000231972
0.000572947
-0.000197484
-0.00011033
0.000526172
-0.000176229
-3.03464e-05
0.000485691
-0.000138846
6.16574e-06
0.000413869
-9.11148e-05
0.000290118
-3.67052e-05
1.98473e-05
0.000141188
-9.74201e-05
8.60131e-05
0.000175721
-0.000171278
0.000139628
0.000266024
-0.000187835
0.000163892
0.000388639
-0.000179357
0.00015908
0.000528324
-0.000176381
0.000119972
0.000694067
-0.000179956
0.000108635
0.000853452
-0.000216786
8.97793e-05
0.0010181
-0.000227892
7.47733e-05
0.0011755
-0.000217473
4.0171e-05
0.00131867
-0.00018437
-5.89834e-06
0.00144444
-0.00014975
-6.70197e-05
0.00155162
-0.000111475
-0.000133333
0.0016389
-7.07252e-05
-0.000199268
0.00169679
-2.80115e-05
-0.000267722
0.0017316
3.00176e-05
-0.000325241
0.00173166
8.16748e-05
-0.000388934
0.00172313
0.000143399
-0.000452001
0.00167285
0.000211283
-0.000552718
0.0016443
0.000299268
-0.000656457
0.00155034
0.000378386
-0.000824252
0.00155861
0.000448438
-0.00096532
0.0014207
0.000456514
-0.00107415
0.0014053
0.000437576
-0.00118635
0.00134194
0.000412275
-0.00126943
0.00131565
0.000368668
-0.00134167
0.00128054
0.00033165
-0.00139665
0.00124537
0.000282215
-0.00143262
0.00119681
0.000227573
-0.00144213
0.00113762
0.000157018
-0.00139041
0.00107033
5.45628e-05
-0.00130116
0.000986764
-2.29521e-05
-0.0011545
0.000896096
-0.000105867
-0.000964614
0.000806753
-0.000177301
-0.000737071
0.000713725
-0.000218175
-0.000501284
0.000670274
-0.000253456
-0.00031807
0.000619246
-0.000229513
-0.000158034
0.000574255
-0.000208118
-5.30309e-05
0.000540978
-0.00016029
1.30948e-06
0.000464861
-0.00010533
0.000330886
-3.94573e-05
2.96109e-05
0.000242596
-0.000131017
0.000112649
0.00031201
-0.000219327
0.00017988
0.000428931
-0.000230137
0.000207715
0.000565914
-0.00020511
0.000203919
0.000717939
-0.000185821
0.000188968
0.000895454
-0.000186436
0.00020234
0.00104835
-0.000208272
0.000205658
0.00121617
-0.000201391
0.000198144
0.00135435
-0.000171335
0.00016322
0.00147896
-0.000125365
0.000121368
0.00157255
-8.6262e-05
6.93564e-05
0.00164518
-4.15417e-05
1.32246e-05
0.00168399
1.10407e-05
-4.8251e-05
0.00168662
7.16387e-05
-0.000106822
0.00166561
0.00012456
-0.000168109
0.00161011
0.00018283
-0.000231372
0.00154755
0.000238839
-0.000295484
0.0014538
0.000283162
-0.000376534
0.00139007
0.000335275
-0.000490604
0.00127357
0.000390836
-0.000634003
0.0012645
0.000437509
-0.000811351
0.00115541
0.000442638
-0.000939234
0.00111806
0.000415124
-0.00109271
0.00110612
0.000389297
-0.00121706
0.00109168
0.000348312
-0.00132612
0.00108134
0.000308258
-0.00141803
0.00107135
0.000265933
-0.00149093
0.00104834
0.000221368
-0.00152908
0.0010238
0.000151977
-0.00150854
0.00097753
7.22592e-05
-0.00144444
0.000914614
8.05286e-06
-0.00131844
0.00084058
-7.04873e-05
-0.00112649
0.000770974
-0.000156162
-0.000901457
0.000702271
-0.000213584
-0.000641053
0.000661048
-0.000251179
-0.000411537
0.000650826
-0.000261096
-0.000214605
0.000608139
-0.000230816
-7.89435e-05
0.00058851
-0.000183194
-5.88424e-06
0.000509782
-0.00011798
0.0003691
-4.40972e-05
4.76473e-05
0.000355636
-0.000160687
0.000154564
0.0004664
-0.000261307
0.000249229
0.000604388
-0.000270121
0.000295131
0.000747246
-0.000227234
0.000295237
0.000912246
-0.000194413
0.000296323
0.00107648
-0.000182116
0.000299447
0.00122119
-0.000175959
0.000305857
0.00136525
-0.000155491
0.000308761
0.00147541
-0.000123963
0.000288475
0.001576
-7.6758e-05
0.000245732
0.00163645
-2.11588e-05
0.000198091
0.00166123
3.1589e-05
0.00013825
0.00165271
9.1119e-05
7.30349e-05
0.00161385
0.000137984
8.5717e-06
0.00154537
0.000184702
-5.92006e-05
0.00145125
0.000226633
-0.000129494
0.00135706
0.000260782
-0.000205103
0.0012463
0.000283111
-0.00028267
0.00116392
0.00030372
-0.000401862
0.00106059
0.000332172
-0.000519387
0.00102509
0.000356942
-0.00070749
0.000975141
0.000368374
-0.000865559
0.000925081
0.000351045
-0.00103516
0.000945994
0.000329726
-0.00118356
0.000936286
0.000303798
-0.00131298
0.000942599
0.00026816
-0.00143066
0.000941608
0.000247423
-0.00152635
0.000939931
0.000204091
-0.00159493
0.000921469
0.000170917
-0.00161369
0.000882796
0.000113491
-0.00156736
0.000828669
3.96175e-05
-0.00145648
0.00076764
-3.79452e-05
-0.00126814
0.000705964
-0.00012333
-0.00103036
0.000654818
-0.000190325
-0.000751891
0.000621341
-0.000238758
-0.000492104
0.00064674
-0.000255701
-0.000268191
0.000632595
-0.000248369
-0.000101718
0.000622784
-0.000200747
-1.45739e-05
0.000554446
-0.00013181
0.000405502
-5.09758e-05
6.5939e-05
0.000466451
-0.000176753
0.000198927
0.000626213
-0.0002928
0.000319753
0.00077986
-0.000296298
0.000380484
0.000924567
-0.000238052
0.000399828
0.00107669
-0.000183792
0.000404246
0.00122141
-0.000149343
0.000398195
0.00135578
-0.000128548
0.000400669
0.00147057
-0.000107788
0.000391547
0.00155535
-7.08184e-05
0.000382548
0.00160599
-2.09841e-05
0.000357029
0.00163499
2.69814e-05
0.000300913
0.00162956
8.77856e-05
0.000229494
0.00158647
0.000137661
0.000158953
0.00150254
0.000181856
8.54654e-05
0.00140427
0.000214592
8.84702e-06
0.00128993
0.000237935
-6.81088e-05
0.00118383
0.000250188
-0.000150094
0.00107716
0.000251119
-0.000232791
0.000995843
0.000250774
-0.000355558
0.000924533
0.000258826
-0.00047827
0.000877492
0.000270304
-0.000649827
0.000857804
0.000288894
-0.000827656
0.000812255
0.000290655
-0.000987815
0.00082901
0.000277142
-0.00114609
0.000822327
0.000272236
-0.00127945
0.000833576
0.000242381
-0.00141174
0.000834599
0.000239298
-0.00152978
0.000834604
0.000223365
-0.00161921
0.00081005
0.000200848
-0.00166395
0.00077547
0.000152067
-0.00164472
0.000732868
7.65789e-05
-0.00155302
0.00068522
-9.28015e-06
-0.00138478
0.000635578
-9.78543e-05
-0.0011466
0.000595454
-0.000178822
-0.000866729
0.000558102
-0.000216632
-0.00056989
0.000592312
-0.000242411
-0.000320188
0.000627058
-0.000244165
-0.000128201
0.000638871
-0.000208075
-2.35855e-05
0.000588255
-0.000138425
0.000437623
-5.57065e-05
8.24862e-05
0.000566661
-0.000182695
0.000245398
0.000775161
-0.000311859
0.000393522
0.000942508
-0.000310773
0.000473315
0.00108288
-0.00023811
0.000509563
0.00121393
-0.000173484
0.000513165
0.00133505
-0.00011724
0.000507903
0.00144531
-8.42654e-05
0.000498351
0.00153089
-5.07723e-05
0.000476651
0.00159053
-1.3479e-05
0.000447168
0.00161816
1.73051e-05
0.000409059
0.00160705
6.6051e-05
0.000365503
0.0015558
0.000117313
0.000301055
0.0014861
0.000164813
0.000218259
0.00138605
0.000199286
0.000132848
0.00126727
0.000222411
4.70121e-05
0.00114733
0.000228434
-3.89215e-05
0.00104421
0.000225555
-0.000127872
0.000950696
0.000215415
-0.000220027
0.00088072
0.000207277
-0.000334854
0.000831022
0.000208338
-0.000458779
0.000787185
0.000214232
-0.000602297
0.000766795
0.000234528
-0.000780261
0.000741759
0.000248461
-0.000929741
0.000729539
0.000248951
-0.0010838
0.000723398
0.000252992
-0.00122315
0.000724805
0.000248114
-0.00136346
0.000729981
0.000244936
-0.00149787
0.000716031
0.00025298
-0.00161086
0.000694888
0.000228149
-0.00168075
0.000664965
0.000180397
-0.00169912
0.000624448
0.000126786
-0.00163675
0.000591276
3.15781e-05
-0.00148702
0.000553881
-6.80347e-05
-0.00124053
0.000524975
-0.000176004
-0.000946892
0.000492742
-0.000228283
-0.000634782
0.00052037
-0.000240167
-0.000368189
0.000585721
-0.000225256
-0.000151252
0.000640835
-0.000218901
-3.08781e-05
0.000611652
-0.00014377
0.000469573
-6.28277e-05
9.57273e-05
0.000649808
-0.000178875
0.000285469
0.000906716
-0.000321296
0.000458578
0.00108759
-0.00031819
0.000557188
0.00121594
-0.00023167
0.000605657
0.001323
-0.000157537
0.000614862
0.0014156
-8.97606e-05
0.000608465
0.00149791
-4.62034e-05
0.000588771
0.00155672
-6.12897e-06
0.000555087
0.0015922
3.20113e-05
0.000508272
0.00158698
7.79926e-05
0.000452097
0.0015541
0.000109119
0.000390917
0.00148339
0.000133591
0.000324296
0.00138248
0.000170246
0.000249546
0.00126154
0.000199258
0.000162187
0.00114644
0.000208185
7.22516e-05
0.00102944
0.000207825
-1.6637e-05
0.000936596
0.000196499
-0.00010797
0.000857934
0.000184096
-0.000207207
0.000801547
0.000178411
-0.000318986
0.00076322
0.00017958
-0.000438298
0.000720974
0.000185524
-0.000565359
0.000690323
0.000203533
-0.000718216
0.000671554
0.000223061
-0.000852826
0.000633812
0.000230338
-0.000995076
0.000621006
0.000244643
-0.00112983
0.000613958
0.000245604
-0.00127969
0.000606975
0.000272864
-0.00142564
0.000594131
0.000267848
-0.00155385
0.000577786
0.000245317
-0.00165486
0.000554117
0.000211849
-0.00169706
0.000536403
0.000130253
-0.00166932
0.000515502
4.80304e-05
-0.00155768
0.00048354
-4.13048e-05
-0.00134341
0.000452459
-0.000141752
-0.00104382
0.000434792
-0.000241633
-0.000702836
0.000442634
-0.000263253
-0.000401571
0.000513264
-0.000228808
-0.00017428
0.000611734
-0.000198188
-3.85636e-05
0.000622472
-0.000146536
0.000497135
-6.61268e-05
0.000106532
0.000707722
-0.000164446
0.000320398
0.00101029
-0.000317442
0.000520495
0.00120123
-0.000313738
0.000639717
0.00131512
-0.000218404
0.000694675
0.00140248
-0.000134433
0.000707617
0.00146939
-6.67243e-05
0.00070038
0.00152221
-1.70585e-05
0.000673988
0.00155133
3.17735e-05
0.000630119
0.00155908
7.69864e-05
0.000568603
0.00153522
0.000113285
0.000496638
0.00147971
0.000146356
0.000419242
0.00139179
0.000168995
0.000338063
0.00128305
0.000180609
0.000257086
0.00115788
0.000184635
0.000176926
0.00103929
0.000187312
9.05086e-05
0.000936553
0.000179309
3.85019e-07
0.000855956
0.000170763
-8.91338e-05
0.000786024
0.000161429
-0.000189091
0.000738248
0.000163256
-0.000294158
0.000699551
0.000168736
-0.000400348
0.00065071
0.000176453
-0.000516646
0.0006169
0.000189722
-0.000640673
0.000588993
0.000206589
-0.000757883
0.000537313
0.000213709
-0.000883623
0.000517824
0.000228922
-0.00101518
0.000500622
0.000244893
-0.00116498
0.000489167
0.000267606
-0.001316
0.000477762
0.000267389
-0.00146228
0.000466244
0.000257829
-0.00158385
0.000462029
0.000213654
-0.00166514
0.000461127
0.000156565
-0.00167709
0.000434384
9.30668e-05
-0.00161098
0.000392997
2.4433e-05
-0.00143901
0.00035247
-7.19736e-05
-0.00115658
0.000335967
-0.000183612
-0.000800251
0.000351719
-0.000265411
-0.000453642
0.000432455
-0.0002658
-0.000198307
0.000547782
-0.000191382
-4.68584e-05
0.000617703
-0.00014668
0.000523235
-7.29584e-05
0.000110446
0.000746146
-0.000148869
0.000343666
0.00108738
-0.000310306
0.000568924
0.00128737
-0.000311402
0.000705507
0.00138859
-0.000210044
0.000767445
0.00145437
-0.000113832
0.000780732
0.00149739
-4.12872e-05
0.000770909
0.00152541
6.62295e-06
0.000734777
0.00152652
6.09464e-05
0.000681672
0.00150854
0.000103647
0.000615262
0.00146157
0.000140051
0.00053518
0.00139129
0.000168501
0.000442895
0.00129334
0.000190735
0.000347455
0.0011825
0.000195987
0.000259589
0.00106038
0.000185364
0.000180531
0.000951834
0.000166512
0.000102501
0.000857805
0.000156776
2.36977e-05
0.000785005
0.000149754
-6.2715e-05
0.000724839
0.000147597
-0.000160425
0.000680333
0.000155626
-0.000254583
0.000629633
0.000164075
-0.000352736
0.000577435
0.000171427
-0.000455918
0.000540884
0.000179198
-0.000549184
0.000496449
0.00018581
-0.000649957
0.000444335
0.000193752
-0.00075811
0.000417603
0.000208373
-0.000882038
0.00038807
0.00023648
-0.00102211
0.000377268
0.000251968
-0.00117154
0.000367173
0.000260025
-0.00132335
0.000370964
0.000247091
-0.00147404
0.000380092
0.000232624
-0.0015864
0.0003696
0.000203883
-0.00165072
0.000330698
0.000168009
-0.00163163
0.000275776
9.81329e-05
-0.00150221
0.000221665
1.38566e-06
-0.00125045
0.000191827
-0.000107618
-0.000896473
0.00021484
-0.000217103
-0.000511554
0.000321887
-0.000274351
-0.00022007
0.000479854
-0.000223554
-5.21957e-05
0.000596361
-0.000146533
0.00054945
-7.84134e-05
0.0001167
0.000750013
-0.000120566
0.000368485
0.00112349
-0.000287899
0.00061379
0.00133603
-0.000293955
0.000767036
0.00143238
-0.000197041
0.000834081
0.00147901
-9.16859e-05
0.000844012
0.00149853
-1.10746e-05
0.000826557
0.00149938
4.34825e-05
0.000786728
0.00147677
8.95764e-05
0.000730994
0.00143734
0.00012693
0.000656057
0.00137336
0.000163154
0.000570077
0.00128998
0.000187295
0.000473406
0.0011865
0.000203507
0.000371515
0.00107642
0.00020797
0.000274045
0.000966323
0.000191526
0.000194834
0.000868087
0.000162957
0.000120515
0.000786506
0.000145618
4.7839e-05
0.000721482
0.000136198
-3.14841e-05
0.000663241
0.000140921
-0.000119832
0.000615425
0.000153256
-0.000207666
0.000557872
0.000159593
-0.000298977
0.000504109
0.000164637
-0.000383339
0.000461114
0.000164132
-0.000458695
0.000410118
0.000161687
-0.000543702
0.000360501
0.000168841
-0.000636307
0.000326127
0.000184081
-0.000745075
0.000293009
0.00020383
-0.00087107
0.000278764
0.000224499
-0.00100937
0.000272717
0.000232758
-0.00116892
0.000289553
0.000240959
-0.0013213
0.000292118
0.000240352
-0.00146523
0.000272637
0.000240898
-0.00157392
0.000227864
0.000211521
-0.00161237
0.000162023
0.000152201
-0.00154326
8.56703e-05
6.68854e-05
-0.00133423
3.22717e-05
-4.9473e-05
-0.00101028
4.08676e-05
-0.000149973
-0.00059831
0.000154422
-0.000244508
-0.000249518
0.000387864
-0.000256802
-6.14715e-05
0.000555426
-0.00014711
0.000569261
-8.12828e-05
0.000116592
0.000732956
-9.95347e-05
0.000378303
0.00112899
-0.000267202
0.000638521
0.00135465
-0.000278837
0.000805523
0.00144847
-0.000183091
0.000880085
0.00148132
-7.68709e-05
0.000888517
0.00147528
1.48181e-05
0.000865948
0.00145233
6.96217e-05
0.00081868
0.0014074
0.000116643
0.000756669
0.00135123
0.000148121
0.000680932
0.00127471
0.000174382
0.000594316
0.00118278
0.00019381
0.000493319
0.00107594
0.000211562
0.000391827
0.000971881
0.00020603
0.00029609
0.000871438
0.000190622
0.000211761
0.00078724
0.000165174
0.000141945
0.000714199
0.000142123
7.87571e-05
0.000650292
0.000134378
2.18113e-06
0.000602188
0.000137629
-8.1509e-05
0.000552155
0.000146959
-0.000160168
0.000485865
0.000150666
-0.000240838
0.000434692
0.000150086
-0.000309586
0.000388901
0.000140959
-0.0003767
0.000339582
0.000137651
-0.000448328
0.000289146
0.000142982
-0.00052617
0.00025072
0.000153247
-0.000619064
0.000212886
0.000173019
-0.000721111
0.000194194
0.000186618
-0.00085034
0.000197636
0.00020431
-0.000990539
0.000206151
0.000223602
-0.00114453
0.000196086
0.00025002
-0.00130629
0.000175936
0.000258466
-0.00144843
0.000126625
0.000243377
-0.00153616
5.38415e-05
0.000195911
-0.00152522
-4.3655e-05
0.000118388
-0.00138093
-0.000126813
1.47987e-05
-0.00108629
-0.000155752
-9.80212e-05
-0.000688144
-4.82505e-05
-0.000195477
-0.000286787
0.000222423
-0.000235915
-7.08141e-05
0.000502908
-0.000163454
0.000577064
-7.86153e-05
0.000131615
0.000638987
-3.76444e-05
0.000404814
0.00107387
-0.000218076
0.000677121
0.00132292
-0.000240582
0.000862175
0.00141629
-0.000152873
0.000938357
0.00144027
-3.5133e-05
0.000939951
0.00141915
5.45382e-05
0.000904038
0.00137581
0.000112426
0.000850378
0.00131
0.00015105
0.000786157
0.00124014
0.000175312
0.00071067
0.00115731
0.000192892
0.000627379
0.00106733
0.000198747
0.000534099
0.000970077
0.000199142
0.000435296
0.000875895
0.000194789
0.000339371
0.000787255
0.000180108
0.000251442
0.000713125
0.000162043
0.000172996
0.00064951
0.000143136
9.55274e-05
0.000595001
0.00013276
2.75103e-05
0.000535288
0.000134918
-3.59708e-05
0.000476671
0.000138965
-0.000111191
0.000425621
0.000135464
-0.000187092
0.00038129
0.000129303
-0.00024631
0.00032828
0.00011984
-0.000304604
0.000280949
0.000116927
-0.000367868
0.000231182
0.000121229
-0.000435606
0.000188607
0.000129852
-0.000511368
0.000148121
0.000140528
-0.000600545
0.000127645
0.000155727
-0.000709498
0.000124844
0.000181746
-0.00083326
0.000114863
0.00021505
-0.000982121
9.75344e-05
0.000247414
-0.00114593
7.23484e-05
0.000267401
-0.00130455
1.91427e-05
0.000266103
-0.00142836
-5.81234e-05
0.00023577
-0.00147045
-0.000172296
0.000170728
-0.00138834
-0.000283011
7.40869e-05
-0.0011513
-0.000356865
-3.59217e-05
-0.000779526
-0.000282459
-0.000137567
-0.000346238
-1.59242e-05
-0.000194943
-6.82616e-05
0.000409305
-0.000184376
0.000580184
-7.13802e-05
0.000124263
0.000530455
-1.57304e-05
0.000388398
0.00101684
-0.000207112
0.00067421
0.00128087
-0.00024376
0.000876161
0.00137332
-0.000158981
0.000966921
0.00138589
-3.63757e-05
0.000972354
0.00134272
7.09938e-05
0.00094294
0.00127841
0.000126815
0.000884616
0.00120354
0.000164789
0.00080635
0.00113368
0.000184725
0.000720405
0.00104484
0.00019841
0.000634067
0.000950181
0.000203482
0.000545862
0.000857835
0.000200447
0.000459494
0.000771614
0.000190648
0.000376307
0.000695838
0.000174603
0.000297389
0.000634658
0.000157384
0.000226041
0.000577571
0.000143287
0.000160356
0.000526506
0.000134179
8.69904e-05
0.000476526
0.000132127
-2.24811e-06
0.000432858
0.000133052
-7.63139e-05
0.000380009
0.000119677
-0.000140277
0.000331481
0.000113773
-0.000191708
0.00027619
0.000103521
-0.000246144
0.000231458
0.000103928
-0.000300549
0.000181333
0.000104255
-0.000360498
0.000137532
0.000111023
-0.000421837
9.10753e-05
0.000118385
-0.000495718
6.67067e-05
0.00013482
-0.000578104
4.19762e-05
0.000165254
-0.000684634
2.00839e-05
0.000201309
-0.000814672
-7.31976e-06
0.000234893
-0.000968945
-3.53907e-05
0.000262012
-0.00113381
-9.09559e-05
0.000274961
-0.00128454
-0.000169244
0.000261851
-0.00137597
-0.000295244
0.000214383
-0.00135618
-0.000432639
0.000129838
-0.00118114
-0.000562706
3.08029e-05
-0.000835461
-0.000545835
-8.23075e-05
-0.000417316
-0.000281859
-0.000152209
-7.35658e-05
0.000222552
-0.000156999
0.000561881
-5.52664e-05
0.000156725
0.000323749
4.99815e-05
0.000399273
0.000895224
-0.000120929
0.000689995
0.00117518
-0.000185039
0.000899109
0.00127455
-0.000110347
0.0010001
0.00128017
4.72313e-06
0.000997813
0.00123865
0.000106366
0.000950056
0.00116667
0.000159504
0.000882848
0.00107598
0.000194769
0.000819508
0.000989784
0.000207237
0.000760426
0.000895969
0.000207956
0.000695021
0.00081315
0.000202435
0.000619322
0.000740447
0.000193086
0.000537306
0.000673891
0.000179739
0.000453054
0.000616632
0.000163457
0.000370648
0.000567472
0.000149591
0.000290802
0.000528343
0.000129075
0.000209258
0.000488953
0.000119097
0.000125746
0.000440785
0.000119253
3.87339e-05
0.000395259
0.000124612
-3.18417e-05
0.000338687
0.000111898
-9.52713e-05
0.000291943
0.000102967
-0.000147805
0.000235071
9.36547e-05
-0.00019983
0.000189585
9.38995e-05
-0.000249523
0.000138487
9.25398e-05
-0.000304291
9.40072e-05
9.82935e-05
-0.000362968
4.06972e-05
0.000109056
-0.000424725
2.94272e-06
0.00012552
-0.0004952
-4.30819e-05
0.000155533
-0.000587201
-7.97286e-05
0.000191814
-0.000697039
-0.000127074
0.000229593
-0.000830313
-0.000169804
0.000267687
-0.000982531
-0.000238436
0.000299698
-0.00114343
-0.000319982
0.00031164
-0.00126919
-0.000458029
0.000288539
-0.00131081
-0.000613474
0.000222453
-0.00119039
-0.000826219
0.000143099
-0.00088181
-0.000882045
2.76277e-05
-0.000451545
-0.000627368
-8.47536e-05
-8.58542e-05
-3.42143e-05
-0.00010892
0.000496717
-2.06888e-05
0.000128427
0.000182451
1.28702e-05
0.000347281
0.000811789
-0.00013542
0.000640587
0.00108669
-0.000204814
0.000861185
0.00118539
-0.000131435
0.000982644
0.00117289
-1.41787e-05
0.00101381
0.00111231
9.51713e-05
0.000996974
0.00102138
0.000162124
0.00095133
0.00093575
0.000185871
0.000889044
0.000866786
0.000185285
0.000811345
0.000794221
0.000179446
0.000731269
0.000722626
0.0001706
0.000649164
0.000659954
0.000162598
0.00056925
0.000601744
0.000152062
0.000489357
0.000554572
0.000141953
0.000409207
0.000515443
0.000132179
0.000327645
0.000482248
0.000127657
0.000249943
0.000448743
0.000117913
0.000173833
0.000406064
0.00011083
9.60546e-05
0.000359177
0.000113861
1.40197e-05
0.000305587
0.000115135
-5.18428e-05
0.000254749
0.000103058
-0.00010788
0.000197865
9.32446e-05
-0.000157313
0.000149536
8.9482e-05
-0.000202144
9.5331e-05
8.79873e-05
-0.000248345
4.70138e-05
9.31942e-05
-0.000303258
-6.4622e-06
0.000102073
-0.000352597
-5.53308e-05
0.000107612
-0.000404729
-0.000120053
0.000129104
-0.000475198
-0.000173343
0.000164084
-0.00056409
-0.000240125
0.000201943
-0.000678287
-0.000300014
0.000244406
-0.000816181
-0.000392125
0.000291582
-0.000982433
-0.000487477
0.000333747
-0.00113972
-0.000657581
0.000356841
-0.00123361
-0.000854595
0.000335004
-0.00120955
-0.00110662
0.000256338
-0.00101792
-0.00121913
0.000145453
-0.000578127
-0.00108928
2.21219e-05
-0.000155922
-0.000428379
-2.80421e-05
0.000315939
2.48576e-05
9.27727e-05
7.50937e-05
1.45841e-05
0.000339346
0.00069239
-0.000127175
0.000625665
0.000993436
-0.000193062
0.000866862
0.00110123
-0.000157039
0.00100105
0.00109207
-5.33688e-05
0.00103632
0.00102924
4.78005e-05
0.000998517
0.00093519
0.000123996
0.000930721
0.000845501
0.000158046
0.000874668
0.000766149
0.00015669
0.000816151