/*--------------------------------*- C++ -*----------------------------------*\
| =========                 |                                                 |
| \\      /  F ield         | OpenFOAM: The Open Source CFD Toolbox           |
|  \\    /   O peration     | Version:  v1806                                 |
|   \\  /    A nd           | Web:      www.OpenFOAM.com                      |
|    \\/     M anipulation  |                                                 |
\*---------------------------------------------------------------------------*/
FoamFile
{
    version     2.0;
    format      ascii;
    class       vectorField;
    location    "0.0485";
    object      currentcloudofpoints;
}
// * * * * * * * * * * * * * * * * * * * * * * * * * * * * * * * * * * * * * //


2409
(
(0.767215 1.33288 1.00155)
(0.774447 0.873591 1.00005)
(1.23884 1.355 0.999559)
(0.985151 1.066 0.750926)
(0.988946 1.06703 1.24973)
(1.09083 1.09711 1.00012)
(0.663851 1.45058 0.999431)
(0.674992 0.700238 1.0012)
(1.35339 1.52818 0.999864)
(0.998928 1.07604 0.57375)
(0.987934 1.08159 1.41743)
(1.22706 1.33909 1.08533)
(1.19194 1.29849 1.15802)
(1.13419 1.23965 1.2146)
(1.06259 1.15617 1.25771)
(1.23355 1.3486 1.04294)
(1.21092 1.31874 1.12225)
(1.16379 1.26955 1.18546)
(1.09777 1.20143 1.23709)
(1.02694 1.10781 1.26088)
(0.789456 0.880339 1.05054)
(0.82933 0.899392 1.09729)
(0.8805 0.937529 1.14559)
(0.933891 0.998453 1.19268)
(0.78122 0.878096 1.02493)
(0.810502 0.890453 1.07151)
(0.85654 0.916111 1.12029)
(0.910418 0.966943 1.16472)
(0.959093 1.03371 1.21846)
(1.22598 1.33902 0.913506)
(1.18991 1.29837 0.841426)
(1.13199 1.23863 0.786584)
(1.06126 1.15338 0.743635)
(1.2333 1.34817 0.955963)
(1.20912 1.31893 0.876957)
(1.16159 1.26931 0.814419)
(1.0966 1.19892 0.764747)
(1.02276 1.10606 0.740821)
(0.934388 0.997076 0.807174)
(0.880962 0.936997 0.854633)
(0.826829 0.900813 0.901526)
(0.790722 0.880734 0.949554)
(0.958684 1.03267 0.781647)
(0.910671 0.965379 0.834751)
(0.855388 0.916651 0.879523)
(0.809505 0.891268 0.927714)
(0.783248 0.87856 0.975366)
(0.936248 1.12851 1.1928)
(0.866583 1.20308 1.1557)
(0.810747 1.26557 1.10799)
(0.778462 1.3113 1.0756)
(0.964261 1.09602 1.21191)
(0.903774 1.16266 1.17414)
(0.836618 1.23751 1.12639)
(0.792904 1.28752 1.09039)
(0.770702 1.32414 1.0408)
(0.77867 1.31177 0.926479)
(0.809275 1.26757 0.888188)
(0.864687 1.20432 0.843123)
(0.933625 1.12822 0.81019)
(0.770842 1.32346 0.962485)
(0.792708 1.28959 0.90746)
(0.834578 1.23868 0.871823)
(0.901473 1.16399 0.825382)
(0.961362 1.09465 0.790742)
(0.71285 0.987673 1.00012)
(0.678618 1.08442 0.999803)
(0.673262 1.17215 0.999853)
(0.701268 1.26177 0.999697)
(0.747196 0.933222 1.00112)
(0.698962 1.03815 0.999145)
(0.67774 1.12731 1.00013)
(0.684726 1.2163 0.999583)
(0.732435 1.29743 1.00055)
(0.855175 1.38342 1.00368)
(0.952374 1.40845 1.00445)
(1.05659 1.41053 1.00033)
(1.15827 1.39615 0.999426)
(0.810063 1.35729 1.0022)
(0.904135 1.39585 1.00484)
(1.00295 1.40833 1.00215)
(1.11131 1.40199 0.999536)
(1.19927 1.38068 0.999418)
(0.690532 0.716541 1.11871)
(0.721576 0.741641 1.22299)
(0.755923 0.77208 1.29445)
(0.792576 0.812702 1.34274)
(0.841457 0.862677 1.36814)
(0.88863 0.928101 1.39862)
(0.945467 1.00272 1.41649)
(0.67859 0.709618 1.06118)
(0.706937 0.727296 1.17271)
(0.739216 0.759422 1.26107)
(0.774726 0.791538 1.3194)
(0.817402 0.837873 1.35511)
(0.865278 0.893002 1.38132)
(0.919551 0.965488 1.40582)
(0.969428 1.04221 1.41651)
(1.05341 1.14841 1.42142)
(1.12991 1.21472 1.39782)
(1.194 1.28221 1.36349)
(1.24723 1.35003 1.31872)
(1.29851 1.41226 1.25384)
(1.3289 1.47324 1.17709)
(1.34759 1.51501 1.09179)
(1.01615 1.11609 1.4194)
(1.09273 1.18159 1.4097)
(1.1649 1.24653 1.37906)
(1.21974 1.31631 1.34086)
(1.27394 1.37916 1.28719)
(1.31472 1.44225 1.21511)
(1.3391 1.49477 1.13522)
(1.35111 1.52242 1.04618)
(0.691069 0.713751 0.87997)
(0.720019 0.740287 0.775351)
(0.753586 0.768813 0.702124)
(0.789297 0.811039 0.656667)
(0.837247 0.861053 0.627114)
(0.887321 0.927616 0.602008)
(0.944265 1.00164 0.583016)
(0.680948 0.703761 0.94008)
(0.705258 0.73011 0.825969)
(0.738222 0.75392 0.735444)
(0.771764 0.790732 0.678986)
(0.814167 0.835356 0.643189)
(0.861774 0.892652 0.614908)
(0.917917 0.964734 0.595933)
(0.973486 1.03859 0.577771)
(1.34726 1.51506 0.908251)
(1.32919 1.4739 0.82286)
(1.29869 1.4122 0.746289)
(1.24802 1.3494 0.681136)
(1.19459 1.28207 0.635239)
(1.1298 1.21566 0.602704)
(1.05935 1.14684 0.580634)
(1.35077 1.52235 0.953635)
(1.33908 1.49518 0.86489)
(1.31506 1.44276 0.784786)
(1.27438 1.37863 0.713078)
(1.2206 1.31577 0.658284)
(1.165 1.24704 0.620154)
(1.09347 1.1818 0.593215)
(1.0284 1.11196 0.576448)
(0.668304 1.44263 1.11203)
(0.678847 1.42282 1.20953)
(0.709078 1.38442 1.29678)
(0.76725 1.32558 1.36136)
(0.824753 1.27006 1.37888)
(0.879001 1.21412 1.39523)
(0.930568 1.15441 1.39643)
(0.665959 1.44826 1.05857)
(0.675699 1.43279 1.1656)
(0.69306 1.405 1.25646)
(0.740081 1.35429 1.33438)
(0.797418 1.29659 1.37316)
(0.853524 1.24301 1.38047)
(0.902043 1.18435 1.3973)
(0.961565 1.12063 1.40662)
(0.669281 1.44168 0.887137)
(0.676672 1.42392 0.79412)
(0.713889 1.38272 0.702122)
(0.765023 1.32645 0.637354)
(0.826272 1.26976 0.624149)
(0.878308 1.21542 0.61064)
(0.942562 1.15126 0.593166)
(0.668941 1.44621 0.939855)
(0.673059 1.43377 0.836689)
(0.695391 1.40444 0.744012)
(0.740508 1.35455 0.665527)
(0.797736 1.2962 0.627276)
(0.854758 1.24324 0.622865)
(0.903599 1.18358 0.60464)
(0.976375 1.116 0.577601)
(0.608566 0.780071 1.00086)
(0.5673 0.85746 1.00002)
(0.536634 0.943935 1.00014)
(0.521583 1.04098 1.00001)
(0.52144 1.14163 0.999902)
(0.537544 1.2424 0.999659)
(0.586018 1.34614 0.999701)
(0.638226 0.743691 1.00109)
(0.586202 0.81951 1.00044)
(0.55249 0.899437 0.999841)
(0.52764 0.991717 1.0001)
(0.520849 1.09067 0.999884)
(0.52808 1.19178 0.999702)
(0.559228 1.29339 0.999773)
(0.62368 1.39917 0.999558)
(0.749758 1.53326 0.998986)
(0.831645 1.58886 0.99947)
(0.922205 1.6234 1.00024)
(1.01968 1.62997 1.00079)
(1.10462 1.61774 1.00026)
(1.1807 1.59871 0.999725)
(1.26284 1.56961 0.999925)
(0.709409 1.49482 0.999318)
(0.79374 1.56294 0.99913)
(0.878356 1.60757 0.999741)
(0.973728 1.62777 1.00061)
(1.06467 1.62232 1.00062)
(1.14221 1.60479 0.99984)
(1.21981 1.58336 0.99981)
(1.30821 1.54783 0.999887)
(0.979868 1.07646 0.669721)
(0.996204 1.0762 0.613006)
(0.980539 1.0686 0.71167)
(0.987408 1.07265 1.3321)
(0.988887 1.06657 1.29159)
(0.989525 1.0781 1.38044)
(0.716691 0.792686 0.99799)
(0.745213 0.834026 0.998365)
(0.684306 0.740886 1.00024)
(1.30057 1.42704 0.999623)
(1.26706 1.38989 0.99969)
(1.33357 1.47301 0.999631)
(0.901381 1.52816 1.26183)
(0.915604 1.58918 1.17329)
(1.00907 1.32584 1.3955)
(1.10052 1.58759 1.15907)
(0.780691 1.55077 1.08657)
(1.04128 1.24448 1.41652)
(1.25435 1.54694 1.13728)
(1.1734 1.5439 1.21935)
(0.811432 1.54505 1.18134)
(1.00646 1.57508 1.21601)
(0.997104 1.61446 1.11533)
(0.800926 1.44969 1.30283)
(1.0804 1.51782 1.27633)
(1.1721 1.58094 1.13147)
(0.994653 1.48983 1.31681)
(1.21189 1.58418 1.06538)
(1.09649 1.31172 1.40174)
(1.1411 1.60053 1.07386)
(0.730298 1.50025 1.1416)
(0.952903 1.23962 1.39536)
(0.91395 1.32713 1.39024)
(1.06148 1.41481 1.35987)
(1.2422 1.48181 1.24069)
(0.888216 1.60439 1.08428)
(0.73832 1.47251 1.22517)
(0.979664 1.39921 1.37286)
(1.2167 1.41885 1.30663)
(1.1548 1.46794 1.30743)
(0.719007 1.50529 1.0686)
(0.993124 1.17997 1.41442)
(1.28645 1.55495 1.05962)
(0.905608 1.43764 1.34706)
(0.842255 1.36147 1.37096)
(1.15907 1.3789 1.35618)
(0.957556 1.62449 1.05036)
(1.07514 1.61338 1.07118)
(1.04139 1.19897 1.42132)
(1.07846 1.22954 1.41364)
(0.986283 1.13221 1.4158)
(1.01721 1.16578 1.4229)
(1.01738 1.21283 1.415)
(1.11224 1.26313 1.4005)
(1.14527 1.29585 1.38111)
(1.07115 1.2772 1.40969)
(1.17647 1.33028 1.35766)
(1.20285 1.36362 1.33424)
(1.12766 1.34422 1.37886)
(1.23161 1.38338 1.31078)
(1.25792 1.4124 1.27705)
(1.18731 1.39948 1.33227)
(1.27166 1.44446 1.24452)
(1.28336 1.47491 1.20634)
(1.23294 1.44772 1.27363)
(1.2918 1.50942 1.15836)
(1.29989 1.52906 1.11413)
(1.24801 1.51596 1.19203)
(1.31741 1.53541 1.07579)
(1.32102 1.5411 1.02984)
(1.26969 1.55077 1.09844)
(1.27475 1.5621 1.02991)
(0.810912 1.57074 1.04279)
(0.767021 1.54321 1.04533)
(0.751087 1.52934 1.07906)
(0.735487 1.52041 1.0339)
(0.693043 1.47989 1.03762)
(0.908412 1.61353 1.04248)
(0.863382 1.59667 1.0438)
(0.838184 1.57887 1.08744)
(0.990642 1.62669 1.02619)
(0.940956 1.62419 1.02561)
(0.924356 1.61533 1.06735)
(1.08988 1.61412 1.0359)
(1.04933 1.62 1.03603)
(1.02162 1.61741 1.06232)
(1.16024 1.59794 1.03728)
(1.12266 1.60637 1.03698)
(1.1085 1.60466 1.07318)
(1.23667 1.57616 1.03345)
(1.19587 1.59069 1.03228)
(1.17529 1.59065 1.07017)
(1.24743 1.56841 1.06364)
(0.856801 1.53788 1.22433)
(0.864719 1.56799 1.17945)
(0.907829 1.56042 1.21809)
(0.962282 1.58357 1.19582)
(0.954162 1.55437 1.23945)
(0.853997 1.57766 1.13375)
(0.903614 1.59823 1.12896)
(0.95864 1.60439 1.14414)
(1.00351 1.5965 1.16637)
(0.944582 1.61208 1.10014)
(1.03038 1.28596 1.39939)
(1.05491 1.3199 1.3973)
(1.00232 1.24369 1.39977)
(0.982768 1.28376 1.39296)
(1.03627 1.36803 1.38002)
(1.0791 1.36261 1.38134)
(0.961636 1.32794 1.39171)
(0.933338 1.28432 1.39249)
(0.994408 1.36075 1.38504)
(0.947708 1.36267 1.38296)
(1.02136 1.40666 1.36489)
(1.08774 1.59889 1.11578)
(1.12056 1.59182 1.11761)
(1.05248 1.59762 1.14019)
(1.03908 1.61132 1.09524)
(1.12635 1.52669 1.25078)
(1.09217 1.55483 1.22043)
(1.1357 1.5648 1.19022)
(1.13592 1.58176 1.14658)
(1.17358 1.56352 1.17622)
(1.15587 1.58996 1.10243)
(1.05784 1.5784 1.19014)
(1.04522 1.5462 1.2475)
(0.772185 1.52385 1.1642)
(0.756581 1.52711 1.11453)
(0.798099 1.54895 1.1365)
(0.725905 1.50306 1.10713)
(0.700922 1.47236 1.13009)
(0.705968 1.46216 1.17857)
(0.694116 1.47524 1.09146)
(0.709113 1.44814 1.21924)
(0.723262 1.42908 1.2646)
(0.735099 1.48703 1.18575)
(0.756168 1.41725 1.30235)
(0.785218 1.38551 1.33857)
(0.768978 1.46294 1.26656)
(0.833912 1.31444 1.37688)
(0.805208 1.34375 1.36613)
(0.823598 1.40378 1.34351)
(0.869101 1.3 1.38152)
(0.895029 1.27238 1.38737)
(0.879357 1.34376 1.37966)
(0.912929 1.22772 1.39634)
(0.940004 1.19794 1.39382)
(0.96299 1.16886 1.40149)
(0.976041 1.21088 1.3985)
(0.85375 1.4883 1.28566)
(0.90503 1.48317 1.30849)
(0.855581 1.44331 1.32733)
(0.951889 1.46402 1.33363)
(0.950779 1.50958 1.29184)
(0.807804 1.49895 1.247)
(0.999505 1.53409 1.26789)
(1.23236 1.56567 1.10223)
(0.874314 1.39913 1.36053)
(0.911364 1.37863 1.37303)
(0.944709 1.41855 1.36111)
(0.987755 1.44369 1.3489)
(0.978827 1.61893 1.08284)
(1.21186 1.56345 1.13723)
(1.21358 1.54381 1.18134)
(1.207 1.51289 1.23545)
(1.19108 1.58086 1.09922)
(1.16433 1.50402 1.26654)
(1.11578 1.49126 1.29335)
(1.20084 1.47255 1.27707)
(0.776769 1.5094 1.20546)
(1.03832 1.50394 1.29574)
(1.02976 1.45065 1.34062)
(1.07216 1.46551 1.32276)
(1.10721 1.44071 1.33471)
(1.11023 1.3964 1.35995)
(1.15821 1.42278 1.33471)
(1.18669 1.44312 1.31009)
(0.648738 1.07852 1.34363)
(0.563441 1.16497 1.21223)
(0.592257 0.931688 1.20014)
(0.623105 0.869546 1.20828)
(0.592806 1.2094 1.27162)
(0.719129 1.13282 1.36751)
(0.654164 0.790203 1.17562)
(0.623027 1.36545 1.17012)
(0.854055 1.03031 1.39323)
(0.592641 1.12744 1.2825)
(0.646064 0.921362 1.29109)
(0.571748 1.26243 1.17791)
(0.658621 1.18353 1.34469)
(0.786813 0.964337 1.3708)
(0.740404 1.23507 1.36921)
(0.665033 1.27161 1.32801)
(0.680544 0.833727 1.2597)
(0.859022 1.12672 1.39502)
(0.590865 0.84897 1.11546)
(0.533288 1.13959 1.11929)
(0.782012 1.0761 1.37403)
(0.623798 1.31656 1.25111)
(0.802162 1.1843 1.37392)
(0.534032 1.04337 1.10998)
(0.710459 0.944805 1.34337)
(0.721003 0.862685 1.3218)
(0.59727 1.02111 1.27134)
(0.655568 0.994193 1.33392)
(0.766334 0.890076 1.35529)
(0.710166 1.03124 1.3603)
(0.563482 1.01175 1.17652)
(0.564736 1.08643 1.20502)
(0.633786 0.766922 1.08635)
(0.918473 1.0809 1.40132)
(0.549104 0.949574 1.09025)
(0.588467 1.33657 1.08214)
(0.53876 1.22343 1.07819)
(0.61934 0.823256 1.14678)
(0.606493 0.860754 1.16533)
(0.637558 0.831434 1.19172)
(0.642479 0.780657 1.13274)
(0.610238 0.809582 1.1017)
(0.651988 0.851998 1.23417)
(0.669276 0.811456 1.21972)
(0.67093 0.754716 1.14851)
(0.6884 0.7664 1.19912)
(0.660665 0.743984 1.10316)
(0.70147 0.789759 1.24237)
(0.87767 0.979405 1.39639)
(0.908654 1.01729 1.40325)
(0.816444 0.915064 1.37055)
(0.840708 0.944008 1.38346)
(0.819836 0.994964 1.3798)
(0.935433 1.04234 1.41)
(0.956542 1.08318 1.4101)
(0.888721 1.05499 1.39756)
(0.567052 1.2131 1.19842)
(0.585946 1.23634 1.23225)
(0.579902 1.1873 1.24552)
(0.600714 1.28979 1.221)
(0.60932 1.26166 1.26637)
(0.62588 1.19705 1.31324)
(0.627977 1.24111 1.30334)
(0.663676 1.22629 1.33797)
(0.594098 1.16789 1.27918)
(0.623781 1.1559 1.31709)
(0.642967 1.29536 1.29389)
(0.58168 1.1465 1.25195)
(0.607775 0.900278 1.20489)
(0.591226 0.891287 1.15975)
(0.569861 0.900029 1.10267)
(0.570974 0.941875 1.14875)
(0.577061 0.852956 1.05808)
(0.596868 0.813869 1.05933)
(0.61905 0.772973 1.04401)
(0.55738 0.902923 1.04504)
(0.597053 1.3132 1.17893)
(0.624555 1.34132 1.21538)
(0.579723 1.29943 1.13452)
(0.607466 1.3517 1.13016)
(0.550774 1.19518 1.15307)
(0.555872 1.24387 1.13253)
(0.561491 1.27912 1.08261)
(0.701049 1.20938 1.35802)
(0.705651 1.25237 1.35319)
(0.730757 1.18438 1.3652)
(0.691616 1.15828 1.35865)
(0.655328 1.13133 1.3438)
(0.685248 1.10575 1.35729)
(0.620148 1.10315 1.31775)
(0.805493 0.876729 1.36282)
(0.777948 0.927813 1.36201)
(0.781816 1.01897 1.36957)
(0.816766 1.05272 1.37974)
(0.747629 0.998655 1.36116)
(0.745413 1.05334 1.36639)
(0.748752 0.955478 1.35555)
(0.737761 0.918817 1.34681)
(0.709878 0.987813 1.35012)
(0.754513 1.27911 1.36622)
(0.719055 1.29842 1.34632)
(0.783132 1.25295 1.37238)
(0.813156 1.22738 1.37373)
(0.772217 1.21006 1.3693)
(0.76066 1.1585 1.36774)
(0.689315 1.32568 1.31761)
(0.667315 1.35047 1.27892)
(0.893129 1.14012 1.39666)
(0.869461 1.17072 1.39513)
(0.833781 1.15552 1.3813)
(0.842563 1.199 1.38146)
(0.922371 1.118 1.39655)
(0.884254 1.10371 1.39599)
(0.853196 1.07878 1.39115)
(0.822436 1.10043 1.38008)
(0.79268 1.13093 1.37124)
(0.621127 0.927303 1.2492)
(0.636928 0.896904 1.25097)
(0.597553 0.976988 1.23787)
(0.620781 0.970976 1.28354)
(0.555207 0.980338 1.13474)
(0.578006 0.971954 1.18869)
(0.584127 1.018 1.22747)
(0.664293 0.879266 1.27449)
(0.652328 1.39424 1.194)
(0.646211 1.40355 1.14384)
(0.628912 1.39017 1.1025)
(0.623374 1.39449 1.04265)
(0.652217 1.36838 1.23622)
(0.713534 1.08238 1.36296)
(0.681264 1.05556 1.35333)
(0.619605 1.05009 1.31271)
(0.596995 1.07431 1.27907)
(0.652061 1.03649 1.33882)
(0.623047 1.00848 1.30756)
(0.683774 1.01306 1.34752)
(0.651208 0.73467 1.04417)
(0.541953 0.946093 1.04504)
(0.531577 0.993175 1.04554)
(0.52522 1.13935 1.05892)
(0.524621 1.08856 1.05954)
(0.525541 1.04065 1.05414)
(0.540767 0.995818 1.10083)
(0.533356 1.09097 1.11628)
(0.537675 1.23236 1.03868)
(0.528093 1.18197 1.03873)
(0.534917 1.18155 1.10024)
(0.586849 1.3413 1.04171)
(0.560914 1.28894 1.04203)
(0.717931 0.806753 1.27829)
(0.757789 0.83812 1.33363)
(0.739356 0.818796 1.30895)
(0.700883 0.850375 1.29253)
(0.780349 0.851842 1.35014)
(0.74377 0.876263 1.33895)
(0.75072 1.10534 1.36847)
(0.682566 0.894833 1.30533)
(0.565178 1.1257 1.21074)
(0.582831 1.10775 1.24817)
(0.584928 1.05408 1.24101)
(0.715621 0.904637 1.33173)
(0.677068 0.933459 1.32067)
(0.649878 0.957528 1.31403)
(0.68348 0.969798 1.33806)
(0.548651 1.11322 1.1667)
(0.549615 1.1532 1.17005)
(0.548654 1.02755 1.14549)
(0.549935 1.06546 1.16118)
(0.56492 1.04898 1.1921)
(0.631043 0.981195 0.693534)
(0.623874 1.18007 0.681767)
(0.625593 0.92907 0.735852)
(0.618173 0.875257 0.800072)
(0.563138 1.2193 0.815924)
(0.762355 1.09024 0.63042)
(0.595273 1.3137 0.818214)
(0.84843 1.12307 0.611949)
(0.602339 1.0084 0.731521)
(0.577997 1.15691 0.748982)
(0.737475 0.939318 0.653844)
(0.669342 1.27173 0.669249)
(0.690293 1.12641 0.640877)
(0.609361 1.07702 0.693266)
(0.718605 1.04019 0.643364)
(0.595939 1.24537 0.742333)
(0.783878 1.17906 0.627055)
(0.666918 0.835433 0.743597)
(0.85361 1.02918 0.606718)
(0.648618 0.792952 0.835332)
(0.549584 0.915956 0.926024)
(0.537653 1.12942 0.865961)
(0.53575 1.01064 0.890992)
(0.589046 0.840986 0.90055)
(0.639775 1.32829 0.736889)
(0.572475 1.05974 0.780233)
(0.686121 0.897881 0.683509)
(0.580252 0.950318 0.818316)
(0.729471 1.22835 0.62972)
(0.548645 1.25483 0.91464)
(0.787862 0.979582 0.62739)
(0.633327 0.762572 0.921141)
(0.614391 1.37428 0.891102)
(0.665731 1.01039 0.657235)
(0.672983 1.20168 0.64831)
(0.92161 1.07796 0.591977)
(0.606327 1.0428 0.710576)
(0.620953 1.02921 0.691825)
(0.617177 0.995069 0.710966)
(0.629503 0.955496 0.7135)
(0.61529 0.968657 0.732911)
(0.646291 0.995516 0.673229)
(0.636297 1.04458 0.672072)
(0.654304 0.914158 0.705876)
(0.658545 0.939756 0.687434)
(0.676504 0.954081 0.670942)
(0.808747 1.06004 0.624146)
(0.807995 1.10593 0.625759)
(0.848269 1.07636 0.611066)
(0.772157 1.13497 0.630193)
(0.818808 1.15187 0.625223)
(0.82037 1.00228 0.617076)
(0.775275 1.03497 0.632902)
(0.740555 1.06495 0.637622)
(0.704509 1.08401 0.644164)
(0.727607 1.10884 0.6372)
(0.736871 1.15264 0.634294)
(0.754101 1.0109 0.640503)
(0.931895 1.1146 0.592255)
(0.966155 1.07885 0.577872)
(0.936051 1.04036 0.586552)
(0.59757 1.27945 0.775543)
(0.580901 1.23277 0.7747)
(0.57935 1.26539 0.813504)
(0.618536 1.28602 0.7364)
(0.61885 1.322 0.773433)
(0.574064 1.28464 0.859762)
(0.557674 1.23745 0.861699)
(0.659261 1.37537 0.760744)
(0.637749 1.36851 0.797795)
(0.604359 1.34412 0.851206)
(0.648715 1.40045 0.833691)
(0.578969 1.3138 0.898298)
(0.879419 1.09998 0.604027)
(0.88709 1.0534 0.601897)
(0.833125 1.19698 0.62483)
(0.862556 1.16956 0.612917)
(0.890239 1.13667 0.603631)
(0.58828 1.03488 0.754663)
(0.593408 1.0701 0.732272)
(0.605659 0.940275 0.7747)
(0.594443 0.98056 0.771716)
(0.577824 1.00531 0.797254)
(0.875806 0.978001 0.604923)
(0.906417 1.01654 0.597834)
(0.837993 0.950723 0.614281)
(0.618725 1.12812 0.686275)
(0.597073 1.11745 0.717609)
(0.600625 1.16917 0.712293)
(0.57751 1.10808 0.761267)
(0.58723 1.20043 0.742617)
(0.571275 1.18837 0.777572)
(0.611013 1.21268 0.707576)
(0.561542 1.14494 0.798772)
(0.551631 1.17474 0.836827)
(0.555367 1.09502 0.817155)
(0.693238 1.02554 0.651167)
(0.727867 0.989733 0.651144)
(0.703077 0.97525 0.657613)
(0.763438 0.959818 0.643016)
(0.78715 0.902385 0.643201)
(0.765054 0.877927 0.658798)
(0.713355 0.918843 0.667829)
(0.740783 0.858443 0.675673)
(0.812903 0.921882 0.628024)
(0.647827 1.22523 0.673468)
(0.633433 1.25951 0.701091)
(0.656291 1.29981 0.69852)
(0.718478 1.29955 0.651525)
(0.694433 1.32476 0.680997)
(0.678508 1.35519 0.71585)
(0.699564 1.24996 0.645001)
(0.748223 1.27622 0.632347)
(0.671503 1.23608 0.656969)
(0.64945 1.19092 0.663543)
(0.701368 1.21517 0.637956)
(0.658939 1.15379 0.657051)
(0.649517 1.10249 0.662901)
(0.679625 1.06906 0.652071)
(0.758792 1.20374 0.629624)
(0.709743 1.17758 0.636798)
(0.682974 1.16394 0.643939)
(0.805218 1.22467 0.628361)
(0.779074 1.24934 0.62855)
(0.645306 0.88345 0.740421)
(0.641489 0.856937 0.770857)
(0.622575 0.902709 0.766689)
(0.631876 0.835571 0.818248)
(0.658063 0.815613 0.787299)
(0.692873 0.789146 0.758514)
(0.710646 0.803716 0.720748)
(0.682896 0.769372 0.80427)
(0.676864 0.867245 0.710721)
(0.720412 0.837515 0.694712)
(0.543081 1.19151 0.88715)
(0.599417 0.912728 0.809695)
(0.617731 0.819363 0.868255)
(0.604086 0.86003 0.849366)
(0.582908 0.896638 0.859864)
(0.641959 1.40826 0.886984)
(0.639382 1.41234 0.943366)
(0.574313 0.846098 0.949392)
(0.59572 0.808347 0.949142)
(0.618565 0.770457 0.960857)
(0.651663 0.730898 0.960597)
(0.609692 0.803286 0.910406)
(0.541373 0.927746 0.962628)
(0.557395 0.883723 0.962106)
(0.568641 0.878004 0.913003)
(0.526101 1.02241 0.945908)
(0.532205 0.973529 0.945924)
(0.54128 0.962697 0.908415)
(0.526041 1.08287 0.933665)
(0.52729 1.13348 0.933454)
(0.53615 1.07011 0.876454)
(0.541771 1.24847 0.957169)
(0.532175 1.19773 0.957342)
(0.563836 1.2995 0.955407)
(0.599967 1.36079 0.942721)
(0.661359 0.73923 0.899993)
(0.668459 0.755111 0.856544)
(0.640568 0.778075 0.877017)
(0.563734 0.933886 0.870606)
(0.558906 0.979812 0.851554)
(0.556035 1.03718 0.831222)
(0.953263 1.58923 0.817898)
(0.878741 1.54392 0.765438)
(1.18102 1.5712 0.84265)
(0.959141 1.40332 0.624699)
(0.74918 1.51622 0.868992)
(1.26403 1.54262 0.864934)
(1.04211 1.25494 0.580565)
(1.04942 1.36489 0.616192)
(0.846196 1.57535 0.863711)
(0.963444 1.51492 0.711419)
(0.857806 1.45463 0.676298)
(0.954744 1.61823 0.919169)
(1.05478 1.48099 0.679469)
(0.984285 1.31874 0.602408)
(1.0489 1.56073 0.771791)
(0.955371 1.24276 0.600723)
(1.2352 1.50661 0.780259)
(0.916851 1.30421 0.610586)
(0.788744 1.55609 0.932052)
(1.21688 1.58241 0.933271)
(1.12534 1.60616 0.91512)
(1.13773 1.52563 0.745039)
(1.12208 1.32141 0.608511)
(0.775246 1.48981 0.761236)
(0.863137 1.59916 0.942691)
(1.10884 1.58298 0.827459)
(1.17559 1.37462 0.650619)
(1.11966 1.42488 0.655806)
(0.726025 1.50428 0.931327)
(1.28931 1.55338 0.940462)
(1.00188 1.17926 0.578737)
(1.03812 1.607 0.862846)
(1.05239 1.6227 0.939328)
(1.20912 1.43327 0.698624)
(0.774246 1.41898 0.686527)
(0.865197 1.35152 0.624387)
(1.27623 1.56116 0.97004)
(1.32227 1.5404 0.970051)
(1.31858 1.53464 0.924289)
(0.900655 1.58287 0.838059)
(0.862193 1.5623 0.813575)
(0.917681 1.56794 0.790483)
(0.923297 1.5294 0.735798)
(0.960364 1.55455 0.762133)
(0.95542 1.60257 0.868295)
(0.905265 1.59683 0.889433)
(1.00778 1.5371 0.74031)
(1.00451 1.57641 0.792683)
(0.997847 1.59821 0.839231)
(0.998158 1.61131 0.889787)
(1.04477 1.58687 0.816766)
(0.772053 1.54531 0.963328)
(0.812977 1.57369 0.965849)
(0.697117 1.4788 0.962064)
(0.739746 1.51967 0.965253)
(0.759385 1.53154 0.93067)
(0.848837 1.59466 0.970349)
(0.89445 1.61215 0.971197)
(0.827761 1.57896 0.936975)
(0.940616 1.62154 0.959237)
(0.989488 1.62511 0.959473)
(0.910961 1.60991 0.929869)
(1.07989 1.61967 0.969475)
(1.03689 1.62625 0.969831)
(1.00624 1.62044 0.928256)
(1.11532 1.61059 0.957614)
(1.15265 1.59885 0.956212)
(1.0902 1.61244 0.926828)
(1.19859 1.58951 0.966893)
(1.23928 1.5749 0.965952)
(1.16946 1.59069 0.922425)
(1.25138 1.56659 0.935816)
(0.999132 1.1287 0.572596)
(0.976042 1.16612 0.586871)
(1.02507 1.16442 0.573108)
(0.712989 1.4718 0.82811)
(0.711561 1.48023 0.874049)
(0.739518 1.51018 0.897609)
(0.698917 1.4736 0.907811)
(0.728018 1.45754 0.773399)
(0.760989 1.50563 0.813434)
(0.819741 1.56616 0.895927)
(0.771599 1.53676 0.899789)
(0.799773 1.54803 0.864404)
(0.812637 1.5365 0.809969)
(1.22101 1.5557 0.850725)
(1.20693 1.54079 0.808154)
(1.24927 1.52504 0.821839)
(1.2804 1.48747 0.80363)
(1.29712 1.50795 0.843334)
(1.23961 1.56312 0.897774)
(1.27629 1.54815 0.902711)
(1.19831 1.57594 0.88691)
(1.30515 1.52739 0.887235)
(0.745363 1.43648 0.727259)
(0.770457 1.37128 0.658138)
(0.744939 1.40084 0.69324)
(0.774896 1.45503 0.720823)
(0.846184 1.30986 0.625103)
(0.816304 1.33876 0.631134)
(0.821316 1.38393 0.647117)
(0.897633 1.26078 0.613115)
(0.872158 1.28797 0.622353)
(0.892771 1.32746 0.619781)
(0.947495 1.19763 0.600564)
(0.914029 1.22954 0.605544)
(0.934788 1.27393 0.605665)
(0.983001 1.21212 0.595215)
(1.05 1.41851 0.645758)
(1.00747 1.44197 0.650985)
(1.00495 1.38345 0.621531)
(0.972529 1.3585 0.611864)
(1.01814 1.34201 0.60945)
(0.95055 1.31224 0.606255)
(0.939266 1.35154 0.614808)
(0.913361 1.37846 0.625043)
(0.912482 1.48523 0.691942)
(0.911504 1.42822 0.648155)
(0.961686 1.45957 0.662339)
(1.01108 1.49747 0.694407)
(0.861739 1.40125 0.643418)
(0.827914 1.51747 0.760494)
(0.869148 1.49925 0.717186)
(0.817298 1.47323 0.713867)
(1.01734 1.28851 0.598301)
(1.05195 1.30999 0.601402)
(1.08435 1.28719 0.592713)
(1.08623 1.34364 0.611637)
(0.970763 1.28158 0.602132)
(1.00431 1.25077 0.595397)
(1.02156 1.21826 0.582464)
(1.07928 1.23586 0.58482)
(1.12819 1.2684 0.605496)
(1.04455 1.20351 0.577765)
(1.08316 1.39282 0.636689)
(1.08706 1.45135 0.667183)
(1.11944 1.37181 0.630875)
(0.858447 1.58661 0.902458)
(1.05184 1.51931 0.723207)
(0.816341 1.43721 0.680223)
(1.04556 1.61297 0.900787)
(1.09214 1.53935 0.757979)
(1.0972 1.50209 0.711232)
(1.13287 1.47596 0.695125)
(1.12197 1.55295 0.785656)
(1.07952 1.5708 0.798756)
(1.0749 1.59471 0.844654)
(1.17522 1.48041 0.714429)
(1.2257 1.46803 0.73819)
(1.18652 1.51469 0.757859)
(1.25388 1.41914 0.726054)
(1.26899 1.45664 0.765188)
(1.15917 1.54704 0.792124)
(1.16453 1.4294 0.674094)
(1.19195 1.40337 0.674242)
(1.14709 1.39923 0.650911)
(1.22845 1.38955 0.692168)
(1.21212 1.36122 0.668926)
(1.15191 1.58818 0.878966)
(1.11709 1.59473 0.870913)
(1.08366 1.60358 0.88748)
(1.14426 1.57462 0.833564)
(1.14849 1.34785 0.629429)
(1.15928 1.30148 0.623905)
(1.18618 1.32863 0.644659)
(0.856905 1.03173 1.15412)
(0.74588 0.992498 1.0693)
(0.698202 1.11815 1.05344)
(0.855638 1.11365 1.16087)
(0.698468 1.21628 1.05944)
(0.796167 1.09619 1.12853)
(0.811391 0.989531 1.12083)
(0.748914 1.08125 1.08537)
(0.740788 1.17803 1.09258)
(0.913852 1.06457 1.17833)
(0.703008 1.03052 1.03021)
(0.802165 1.17596 1.12935)
(0.748014 1.24347 1.09045)
(0.73466 0.954405 1.03187)
(0.730203 1.2819 1.05472)
(0.7464 1.30864 1.02852)
(0.752961 1.29627 1.06409)
(0.761125 1.27702 1.08211)
(0.777988 1.25375 1.0965)
(0.737569 1.2624 1.07408)
(0.783222 0.987165 1.09287)
(0.782572 1.03372 1.10302)
(0.752436 1.03482 1.07556)
(0.730437 1.05521 1.0547)
(0.726418 1.09961 1.06489)
(0.706278 1.07412 1.03838)
(0.725883 1.01196 1.04834)
(0.740985 0.974141 1.05014)
(0.719644 0.993544 1.0303)
(0.82306 0.943518 1.1087)
(0.791887 0.942278 1.08329)
(0.769842 0.937745 1.06007)
(0.763392 0.917456 1.0412)
(0.722706 1.14626 1.06726)
(0.719404 1.19701 1.07464)
(0.697475 1.16558 1.05286)
(0.683724 1.19576 1.02811)
(0.68487 1.14624 1.02881)
(0.742696 1.21033 1.08963)
(0.722796 1.23005 1.07457)
(0.697489 1.24019 1.03173)
(0.712595 1.2488 1.05671)
(0.714283 1.27337 1.02763)
(0.898827 1.01246 1.16412)
(0.924047 1.031 1.18153)
(0.886158 1.04763 1.16439)
(0.951666 1.06496 1.20433)
(0.887097 1.08818 1.16799)
(0.856842 1.07306 1.15632)
(0.925327 1.09731 1.18328)
(0.897642 1.12026 1.17314)
(0.806691 1.0417 1.12417)
(0.774327 1.08732 1.10543)
(0.746342 1.12916 1.08438)
(0.770006 1.13766 1.10473)
(0.709037 1.00968 1.01476)
(0.69377 1.05866 1.01462)
(0.724848 0.971741 1.01573)
(0.691222 1.10231 1.02532)
(0.871108 0.983823 1.14745)
(0.835325 1.00928 1.13736)
(0.828023 1.06283 1.1426)
(0.848052 0.960611 1.13156)
(0.825994 1.10442 1.14533)
(0.861076 1.1574 1.15882)
(0.804064 1.22135 1.11438)
(0.833863 1.18967 1.1424)
(0.829484 1.14519 1.14687)
(0.773048 1.20969 1.09937)
(0.75646 0.916004 1.01643)
(0.771696 1.17635 1.10624)
(0.798984 1.13627 1.12849)
(0.861974 1.33655 1.09897)
(1.13459 1.36275 1.1098)
(1.09689 1.39558 1.05961)
(1.07337 1.32678 1.1466)
(0.989934 1.3136 1.15426)
(1.027 1.23358 1.19989)
(1.03839 1.36813 1.1195)
(1.00067 1.39791 1.06838)
(0.953536 1.21877 1.18348)
(1.17661 1.38284 1.05456)
(0.95409 1.35797 1.11617)
(0.912756 1.29636 1.13722)
(0.902685 1.38606 1.06643)
(0.827897 1.35963 1.05575)
(0.994122 1.15237 1.227)
(1.0489 1.39693 1.06258)
(1.06762 1.38292 1.0899)
(1.02005 1.38336 1.0937)
(0.976935 1.37837 1.09375)
(0.99626 1.36375 1.11769)
(1.08732 1.36429 1.11213)
(1.10517 1.34454 1.12841)
(1.05749 1.34779 1.13263)
(1.11649 1.37939 1.08518)
(1.03064 1.32039 1.14921)
(1.015 1.34224 1.13741)
(0.974435 1.33725 1.13456)
(0.802391 1.33532 1.06521)
(0.796283 1.34695 1.02841)
(0.835685 1.30166 1.1001)
(0.81889 1.32327 1.08419)
(0.843819 1.34807 1.07878)
(1.16298 1.33316 1.1307)
(1.18172 1.35527 1.09806)
(1.15617 1.3734 1.08322)
(1.20233 1.3645 1.06943)
(1.20957 1.37334 1.0272)
(1.04051 1.19204 1.23148)
(1.07363 1.23739 1.20989)
(1.098 1.28227 1.17305)
(1.13061 1.31433 1.14954)
(1.04824 1.28346 1.1675)
(1.02348 1.15033 1.24571)
(0.991984 1.10826 1.23763)
(1.00947 1.19134 1.21549)
(0.912438 1.20953 1.16914)
(0.945253 1.17058 1.1908)
(0.974932 1.18298 1.20133)
(0.966483 1.13903 1.20882)
(0.932993 1.26116 1.15728)
(0.888152 1.25194 1.14339)
(0.990678 1.22294 1.1899)
(0.970386 1.2692 1.16425)
(0.952552 1.30519 1.14554)
(1.00817 1.27389 1.16832)
(0.840842 1.37294 1.03035)
(0.861499 1.28175 1.11807)
(0.887695 1.3165 1.1122)
(0.881849 1.36115 1.08403)
(0.865258 1.37276 1.06021)
(0.927513 1.37029 1.09018)
(0.908866 1.34657 1.10373)
(0.935243 1.32811 1.12498)
(1.1681 1.38999 1.02721)
(1.13808 1.38772 1.05678)
(1.12968 1.39574 1.02995)
(0.878825 1.38641 1.03583)
(0.927568 1.39914 1.03631)
(1.02878 1.4054 1.03438)
(0.976657 1.40418 1.0368)
(0.951587 1.39104 1.06662)
(1.07814 1.40378 1.02954)
(0.955492 1.2365 0.822086)
(1.15229 1.35323 0.879668)
(0.94161 1.37756 0.913634)
(1.03827 1.23518 0.795903)
(0.950611 1.33043 0.870148)
(1.05931 1.36631 0.879388)
(0.890199 1.26589 0.85713)
(1.02066 1.30871 0.84146)
(0.85873 1.32811 0.891618)
(1.09486 1.31348 0.837783)
(1.14337 1.39006 0.938362)
(0.993712 1.15434 0.777517)
(1.02899 1.40286 0.943999)
(0.853535 1.37076 0.948096)
(0.817097 1.31999 0.911213)
(0.833279 1.29893 0.891813)
(0.809066 1.35235 0.976233)
(0.815058 1.34157 0.937884)
(0.855083 1.34966 0.916584)
(0.874398 1.29892 0.880194)
(0.848631 1.26823 0.875524)
(0.876188 1.23595 0.850424)
(0.943614 1.17958 0.81286)
(0.975791 1.19379 0.803759)
(0.964505 1.13979 0.795887)
(1.01528 1.19291 0.784622)
(0.997855 1.23298 0.811704)
(0.98657 1.31963 0.858494)
(0.987562 1.27375 0.834972)
(0.954361 1.28757 0.85474)
(1.02959 1.27335 0.823447)
(0.911324 1.21865 0.832427)
(0.923984 1.2509 0.841159)
(0.921729 1.29906 0.867545)
(0.85404 1.37792 0.97595)
(0.90568 1.32899 0.884661)
(0.901576 1.35286 0.902603)
(0.947019 1.35438 0.891313)
(0.897362 1.37386 0.931348)
(0.988769 1.10818 0.76504)
(1.02226 1.14986 0.757756)
(1.04597 1.1909 0.768637)
(1.08043 1.34062 0.861699)
(1.05754 1.31151 0.840798)
(1.04173 1.33897 0.860737)
(1.06539 1.27749 0.818868)
(1.00484 1.34884 0.875018)
(1.12513 1.3336 0.858482)
(1.10745 1.35932 0.882241)
(1.17093 1.32749 0.861692)
(1.14068 1.30813 0.838913)
(1.10857 1.27636 0.814159)
(1.07968 1.23752 0.788725)
(1.10196 1.37941 0.908964)
(1.14739 1.37262 0.909288)
(1.18413 1.36891 0.926821)
(1.18965 1.34916 0.895747)
(0.903173 1.39 0.977356)