/*--------------------------------*- C++ -*----------------------------------*\
| =========                 |                                                 |
| \\      /  F ield         | OpenFOAM: The Open Source CFD Toolbox           |
|  \\    /   O peration     | Version:  v1806                                 |
|   \\  /    A nd           | Web:      www.OpenFOAM.com                      |
|    \\/     M anipulation  |                                                 |
\*---------------------------------------------------------------------------*/
FoamFile
{
    version     2.0;
    format      ascii;
    class       volScalarField;
    location    "0.1435";
    object      p;
}
// * * * * * * * * * * * * * * * * * * * * * * * * * * * * * * * * * * * * * //

dimensions      [0 2 -2 0 0 0 0];


internalField   nonuniform List<scalar> 
64000
(
0.000812697
0.15486
0.338573
0.689946
1.21849
1.95935
2.94193
3.98023
5.17284
6.66627
8.41816
10.4198
12.7423
15.3301
18.1442
21.1474
24.3325
27.4893
31.1233
33.8046
38.1762
42.2105
44.5657
46.8851
49.1384
51.205
53.234
54.9574
56.59
57.8212
58.7267
60.2138
61.3119
62.3225
63.1848
63.8863
64.4356
64.9011
65.226
65.4107
-0.391538
-0.282539
-0.00418219
0.355866
0.851842
1.5373
2.44083
3.4464
4.74389
6.30994
8.06639
9.9393
12.1084
14.7967
17.7086
20.7969
24.0988
27.2932
30.9315
33.8777
38.0791
42.0734
44.6047
46.9571
49.2418
51.3115
53.3345
55.0794
56.647
58.0191
58.783
60.3068
61.3168
62.3117
63.1611
63.8683
64.4033
64.8855
65.2162
65.4078
-1.18203
-1.04707
-0.778794
-0.461723
-0.00452667
0.581827
1.39313
2.36521
3.64062
5.1808
6.99613
9.07743
11.4698
14.1347
17.0186
20.0764
23.3233
26.6043
30.2949
33.384
37.5861
41.6182
44.1912
46.5241
48.7937
50.8355
52.8365
54.5941
56.2132
57.6285
58.8455
60.1058
60.9538
62.1122
63.0619
63.7946
64.3736
64.864
65.1747
65.3647
-2.3541
-2.22258
-1.95845
-1.58926
-1.13179
-0.638419
-0.0145018
0.865601
2.15541
3.7224
5.55985
7.64485
10.0213
12.6246
15.5572
18.743
22.147
25.5792
29.3804
32.6375
36.8383
41.0266
43.5914
45.9647
48.2271
50.262
52.2548
54.014
55.6665
57.1409
58.4784
59.7017
60.8171
61.8902
63.0036
63.8937
64.4899
64.9325
65.1771
65.3208
-3.87236
-3.7511
-3.51877
-3.16412
-2.74434
-2.23796
-1.75026
-1.15921
0.00625178
1.4581
3.24611
5.32853
7.72528
10.5035
13.6505
17.0785
20.6496
24.2261
28.2462
31.7757
36.0495
40.3842
42.9713
45.3828
47.6385
49.6687
51.6528
53.3463
55.0657
56.6023
58.0777
59.3833
60.4839
61.5687
63.1644
64.11
64.5597
64.9359
65.0614
65.206
-5.61038
-5.55421
-5.38876
-5.03974
-4.72956
-4.30898
-3.86495
-3.64199
-2.51831
-1.07801
0.667343
2.69061
5.11157
7.9084
11.2094
14.9134
18.8018
22.7502
27.1038
30.942
35.3358
39.8019
42.3608
44.8076
47.0961
49.1674
51.1198
52.8569
54.5347
56.1535
57.6559
59.0758
60.4082
61.6609
63.45
64.1527
64.436
64.7839
64.9099
64.98
-7.1503
-7.10536
-7.06565
-6.95126
-6.81296
-6.38677
-6.30572
-6.02376
-4.52574
-3.48509
-1.93367
-0.0251173
2.28672
4.85434
8.07445
12.1815
16.5258
20.8689
25.5539
29.8651
34.2564
39.0723
41.7185
44.2285
46.5655
48.6736
50.6434
52.4112
54.083
55.7217
57.2165
58.5872
59.9698
61.2083
62.9717
63.8474
64.1434
64.4865
64.6005
64.6572
-8.5428
-8.4927
-8.42942
-8.33759
-8.27013
-8.11854
-8.39817
-7.69126
-7.11627
-6.16217
-4.78689
-3.01929
-0.813839
1.83452
4.91294
9.03787
13.7699
18.4863
23.4937
28.3692
32.8466
38.0021
40.9752
43.5632
45.972
48.1384
50.1218
51.9533
53.6244
55.3168
56.8001
58.1782
59.534
60.7863
62.2519
63.4939
63.7569
64.0501
64.1605
64.2013
-10.3376
-10.2996
-10.2537
-10.1837
-10.1915
-10.1431
-10.5961
-10.4059
-9.99004
-9.23788
-8.03964
-6.44821
-4.31814
-1.75986
1.35342
5.92766
10.9182
15.9259
21.2328
26.5698
31.4598
36.4808
40.0355
42.7053
45.2265
47.4645
49.5143
51.3959
53.144
54.8619
56.3728
57.717
59.04
60.238
61.4987
62.9057
63.2588
63.4468
63.6153
63.6206
-12.2325
-12.3072
-12.2885
-12.3962
-12.2938
-12.6606
-13.3855
-13.3959
-13.1125
-12.5662
-11.5927
-10.1889
-8.33137
-5.9673
-2.10032
2.66724
7.79476
13.1439
18.8295
24.5777
29.9362
34.9612
38.8987
41.6981
44.3368
46.6739
48.7834
50.7705
52.611
54.2751
55.8431
57.1785
58.3938
59.6048
60.7424
62.0829
62.658
62.7622
62.8672
62.8769
-14.2862
-14.3351
-14.4372
-14.6264
-14.7568
-15.7405
-16.3101
-16.558
-16.4314
-16.1329
-15.4211
-14.366
-12.8267
-9.91145
-5.75628
-1.0253
4.26869
9.97116
16.0393
22.2094
27.9935
33.3392
37.5031
40.5071
43.2567
45.7369
47.9533
50.0761
51.9547
53.6518
55.1199
56.5059
57.7159
58.8723
59.8572
61.0631
61.7054
61.8793
61.9507
61.9706
-16.397
-16.4466
-16.6706
-16.9593
-17.4974
-18.8359
-19.4818
-19.7742
-19.9845
-19.864
-19.5621
-18.9116
-17.0377
-13.8414
-9.88539
-5.17499
0.31627
6.38889
12.905
19.5509
25.7435
31.4514
35.8395
39.0956
42.0051
44.6154
46.9676
49.0821
51.015
52.7673
54.4072
55.9534
57.2045
58.2459
59.1387
59.927
60.716
60.8177
60.8241
60.8495
-18.5866
-18.6806
-18.9936
-19.4695
-20.5269
-21.8708
-22.6396
-23.2478
-23.635
-23.8673
-23.8739
-23.2837
-21.0814
-18.2571
-14.558
-9.81573
-4.09409
2.3704
9.3205
16.4115
22.89
28.902
33.6598
37.2899
40.4766
43.3516
45.8007
48.0767
50.1955
52.1735
53.6142
54.6735
55.7756
56.8174
57.9198
58.871
59.246
59.4596
59.5601
59.5679
-20.6807
-20.813
-21.2391
-22.0241
-23.3809
-24.7306
-25.7179
-26.7364
-27.5044
-27.9554
-28.2051
-27.2018
-25.6296
-23.2595
-19.7176
-14.9444
-9.03747
-2.27797
5.02205
12.4099
18.9366
25.1099
30.7404
35.4674
39.2836
42.2889
44.8841
47.0779
48.8465
50.3329
51.7873
53.0831
54.2558
55.3142
56.3074
56.9688
57.8505
57.9591
57.9791
57.9885
-22.8786
-23.0489
-23.6551
-24.6954
-26.11
-27.522
-28.9903
-30.3662
-31.4788
-32.1805
-32.1885
-31.7308
-30.6635
-28.5303
-25.1387
-20.3977
-14.5754
-7.90002
-0.369521
7.72101
15.0283
22.0628
28.0183
33.2092
37.0877
39.9427
42.3389
44.5951
46.5124
48.188
49.6967
51.0831
52.342
53.4577
54.4042
55.2665
56.0094
56.3118
56.3489
56.3487
-24.71
-25.0065
-25.7445
-26.8813
-28.387
-30.1536
-32.0101
-33.7872
-35.2157
-36.1784
-36.4804
-36.5938
-35.8352
-33.8414
-30.5484
-26.0747
-20.6745
-13.7027
-5.56497
3.61586
11.8579
19.0073
24.5888
29.3206
33.7421
36.9379
39.5596
41.6508
43.6048
45.4305
47.0903
48.6507
50.0701
51.3249
52.414
53.2164
53.9665
54.7634
54.3422
54.4225
-26.8822
-27.2118
-27.9545
-29.0677
-30.6319
-32.651
-34.8611
-36.9955
-38.8217
-40.1204
-41.0156
-41.3913
-40.8395
-39.0486
-35.9527
-31.524
-26.3592
-19.3627
-10.0314
-0.261361
8.73693
16.1574
21.0617
24.9702
28.7343
32.7753
35.5216
38.0796
40.1316
41.9812
43.83
45.6199
47.2762
48.7239
49.9135
50.8115
51.5588
52.0634
52.2269
52.2378
-28.1357
-28.5439
-29.2952
-30.4163
-32.1544
-34.6363
-37.3106
-39.7942
-42.1234
-43.8012
-44.9963
-45.7177
-45.4924
-44.0376
-41.16
-36.8234
-31.9303
-23.9781
-14.4398
-3.97954
5.50498
13.2898
18.3305
21.9474
24.5408
26.9507
30.2199
33.2649
36.1718
38.1958
40.2045
42.3262
44.2378
45.8582
47.2359
48.3954
49.1453
49.5317
49.9906
49.8162
-30.0206
-30.3093
-30.9457
-31.9576
-33.8403
-36.8353
-39.5963
-42.1931
-44.8436
-46.804
-48.3888
-49.4812
-49.7264
-48.7171
-46.0819
-41.86
-36.5837
-28.3883
-18.2442
-7.74454
1.95085
10.0684
15.4436
19.1208
21.3983
22.995
25.1697
27.5841
30.3114
33.3672
35.9396
38.7379
41.2445
43.2846
44.9328
46.298
47.058
47.3087
47.4549
47.3695
-29.8026
-30.0128
-30.6027
-31.681
-34.2116
-37.9295
-40.7708
-43.6145
-46.7216
-49.4103
-51.3036
-52.875
-53.581
-52.8867
-50.4363
-46.3323
-40.0671
-31.3181
-21.5011
-11.5204
-1.88996
6.44316
12.0627
15.5269
17.673
19.53
21.439
23.9613
26.6004
29.1016
31.5243
33.7357
36.2821
38.6396
40.604
42.0101
43.097
44.2528
44.6573
44.551
-28.574
-29.091
-29.6277
-30.8803
-34.7049
-39.0105
-42.0074
-45.1666
-48.4987
-51.4313
-53.6344
-55.501
-56.4718
-56.0295
-53.7458
-49.1993
-42.3296
-33.5377
-24.6834
-15.5095
-6.07247
2.3141
7.7563
10.7588
12.9448
14.7039
16.5544
19.1651
22.0666
25.375
28.7423
30.9699
33.2941
35.8868
37.87
39.0214
39.8675
40.4079
41.195
41.4574
-30.4326
-30.0606
-30.4004
-31.7781
-35.7487
-39.6056
-42.6134
-45.8774
-49.4863
-52.367
-54.9424
-57.039
-58.3651
-58.2976
-56.2223
-51.4802
-44.4265
-35.58
-27.7372
-19.5165
-10.5303
-2.00122
3.47556
5.76296
7.67826
9.27384
11.0637
13.9243
17.551
21.826
25.6459
28.8113
30.8155
33.2133
34.783
36.7271
37.9096
38.4493
38.734
39.1514
-30.6217
-30.6858
-31.1178
-32.7068
-36.247
-39.6778
-42.7508
-46.0471
-49.761
-52.4807
-55.2866
-57.6907
-59.5231
-60.1512
-58.8674
-54.6282
-46.8407
-37.5866
-29.8248
-22.2791
-14.1254
-5.55141
-1.45134
0.698162
1.93724
3.90057
6.15238
9.6786
13.9667
18.3888
22.4288
25.9363
28.6011
31.0773
32.9632
34.2595
35.5817
36.0932
36.1431
35.7835
-30.6857
-30.924
-31.3152
-32.9319
-35.7558
-38.7869
-41.8306
-45.0977
-48.7127
-51.9305
-54.5804
-57.4978
-60.0393
-61.7315
-61.457
-58.548
-51.9158
-42.479
-32.7998
-24.2095
-17.2648
-9.50332
-6.46004
-4.65298
-3.17407
-0.80917
2.09375
5.93656
10.5488
15.436
19.7929
23.4595
26.2306
28.4734
30.4565
32.1259
33.407
34.1716
34.49
34.5468
-30.5473
-30.7177
-31.2525
-32.4442
-34.5752
-37.2628
-40.2565
-43.4808
-46.8623
-50.2542
-52.6516
-56.3588
-59.6066
-62.424
-63.3039
-61.0437
-55.8748
-48.1708
-38.8226
-28.0349
-20.3587
-13.5817
-11.1654
-8.89999
-7.39646
-4.64129
-1.01237
3.14013
8.08448
13.2551
17.8699
21.7013
24.5478
26.9608
28.4591
29.818
30.7424
31.3727
31.6489
31.6162
-29.585
-30.0466
-30.2243
-31.2597
-32.7473
-34.8593
-37.4269
-40.3008
-43.6378
-46.7282
-48.7569
-52.4166
-55.7935
-59.1461
-61.6825
-61.8728
-60.6746
-56.223
-47.7747
-36.4828
-26.474
-19.4568
-16.8403
-14.865
-12.8228
-8.80789
-3.39427
1.66817
6.97428
12.1715
16.7044
20.4194
23.0994
25.1759
26.2008
27.3904
28.1289
28.7045
28.9695
28.9579
-29.0143
-28.89
-29.2204
-29.3949
-30.1857
-31.9015
-34.4065
-36.8808
-39.8608
-43.3485
-44.8787
-48.0156
-51.0938
-54.0241
-56.5526
-58.3707
-59.6855
-56.3331
-49.7607
-42.1828
-33.1168
-25.4741
-22.549
-20.064
-16.2195
-9.92272
-2.77643
2.67941
7.66879
12.3549
16.3141
19.651
22.0256
23.6275
24.3661
25.213
25.6655
25.983
25.9034
25.6751
-27.852
-27.5858
-27.7586
-27.7803
-27.8166
-28.5232
-30.7425
-33.624
-35.734
-37.6369
-38.2575
-40.6934
-43.1213
-45.2749
-47.2852
-48.3775
-47.7992
-43.9031
-41.0805
-39.3139
-35.1044
-28.3388
-25.2092
-21.6219
-15.4162
-6.95824
1.19645
5.9993
9.71034
13.2985
16.3635
19.1908
21.036
21.7791
22.1153
22.1828
22.2564
22.4387
22.478
23.0164
-26.4326
-26.3022
-26.03
-25.8109
-25.0112
-25.8463
-27.8072
-29.0898
-29.6587
-30.4733
-30.6165
-32.2007
-33.5494
-34.2209
-34.4301
-34.0925
-32.6434
-29.8912
-29.4157
-30.184
-28.4499
-22.7683
-19.1603
-15.3549
-9.98406
-2.44618
4.65035
8.63204
11.0415
13.2035
14.9312
16.4645
16.2196
15.3873
15.3886
15.0827
14.972
15.0718
14.9873
15.4477
-24.5833
-24.4458
-24.1698
-23.9522
-22.7411
-22.4991
-23.1249
-23.1383
-23.0024
-23.0521
-22.6433
-22.4066
-21.8612
-20.5835
-19.2148
-17.7021
-16.0187
-14.0593
-13.6903
-13.8379
-12.4919
-8.31404
-5.00861
-2.60476
0.525159
4.73846
8.45609
10.6078
11.5331
12.0631
12.5344
12.4091
11.8045
11.608
11.2173
10.5402
9.90075
9.46459
8.87326
8.90561
-22.5314
-22.282
-21.759
-21.121
-19.7614
-19.0098
-18.6701
-17.8759
-16.9685
-15.8427
-14.0834
-12.0807
-9.75034
-7.11872
-4.6191
-2.32777
-0.529187
0.87719
1.35651
2.03625
3.66891
6.64093
9.74092
10.6507
11.2921
12.057
12.4786
12.6212
12.3155
11.2517
9.81472
9.1802
8.84553
8.61887
7.60869
6.7254
5.5384
4.82354
4.00898
4.27283
-19.8302
-19.5117
-18.8004
-17.8876
-17.0258
-16.0287
-14.6508
-12.8651
-10.9786
-8.63563
-5.76357
-2.51329
1.15785
5.02399
8.55916
11.6785
13.6797
14.8383
15.3304
16.329
17.2799
18.5507
20.3097
19.8543
18.6954
17.4088
15.7607
14.2843
12.8971
10.342
7.57512
6.63584
5.52978
5.21263
3.87109
2.97111
1.37193
0.790637
-0.105223
0.411974
-16.6286
-16.4189
-15.9685
-15.1918
-14.1604
-12.6227
-10.6019
-8.18414
-5.39513
-2.15357
1.42401
5.47338
10.1928
14.9177
18.9542
22.0967
24.2733
25.9423
26.5541
27.6597
27.5842
27.8403
27.8922
26.0099
23.3889
20.7701
17.7535
14.8249
12.5383
9.13498
5.64373
4.15142
2.23851
1.39708
0.448822
-1.04097
-2.50855
-2.96469
-3.71038
-2.91311
-13.6732
-13.4501
-13.0179
-12.1598
-10.7468
-8.88544
-6.60089
-3.64446
-0.254798
3.38986
7.37021
11.8998
16.9507
22.0871
26.6257
30.294
33.0586
35.1505
35.6527
36.5218
36.4975
34.998
32.3421
29.8443
26.2534
22.4997
18.4237
14.4895
11.5093
7.01708
3.50978
1.1195
-0.749929
-2.17601
-2.99265
-4.64861
-6.09662
-6.12873
-6.86677
-5.59583
-11.593
-11.3023
-10.5359
-9.4974
-7.86639
-6.08938
-3.57476
-0.292032
3.55301
7.55229
11.859
16.7475
22.0273
27.3855
32.3814
36.4673
39.7203
42.0452
41.9621
42.6418
41.1919
38.8063
35.4053
31.7855
27.267
23.0354
18.1824
13.8153
9.96228
4.71396
1.13918
-1.23117
-3.35442
-4.88386
-6.44242
-7.37263
-9.37122
-9.17316
-9.78251
-7.88663
-10.1684
-9.5722
-8.634
-7.06648
-5.28911
-3.22561
-0.688741
2.7539
6.89825
11.2617
15.7044
20.7098
26.1464
31.5735
36.7354
40.1285
43.1706
45.1782
45.1525
45.3606
44.4875
41.4215
37.3736
33.0792
27.8873
22.9765
17.6794
12.6725
8.43361
2.6748
-1.15904
-3.34014
-5.99475
-7.32831
-8.65344
-9.7881
-11.8621
-11.1461
-12.1773
-9.15923
-8.12398
-7.86122
-6.85854
-5.52395
-3.42167
-1.14172
1.62232
5.1815
9.6741
14.4471
19.1381
24.2066
29.6158
34.54
38.6973
41.5747
44.2837
46.478
47.1903
46.3536
46.0812
43.0532
38.4562
33.7005
28.0879
22.755
17.127
11.7886
7.12748
1.08489
-3.09553
-5.42956
-8.17534
-9.54356
-11.5409
-11.5756
-13.7443
-13.1918
-13.3929
-9.53755
-8.22223
-7.29164
-6.41256
-4.23581
-1.80323
0.823261
3.96211
7.82689
12.5747
17.7254
22.4727
27.0398
31.348
35.4367
39.2632
42.6828
45.3233
47.6287
48.3526
47.2197
47.0387
44.1481
39.1982
34.1563
28.1731
22.7357
16.797
11.3317
6.1388
-0.166036
-4.5083
-6.98641
-9.63939
-11.1503
-13.0588
-13.418
-14.8033
-12.8116
-12.7482
-6.15494
-7.56556
-7.24484
-5.86573
-3.88364
-1.52046
0.951208
5.8609
9.86654
14.7353
19.7923
24.5288
28.8162
32.5257
36.0415
39.6673
43.2899
45.9467
48.2911
48.7268
47.8189
47.4682
44.8983
39.7482
34.2542
28.0485
22.6662
16.6248
11.2164
5.32553
-0.973218
-5.73047
-8.00183
-10.687
-11.504
-14.0159
-14.1175
-16.0568
-13.0713
-11.6296
-2.0326
-10.2744
-6.70362
-5.40251
-2.90523
-0.562496
2.25664
6.12777
10.7807
15.891
20.9521
25.5852
29.7309
33.2258
36.5244
40.0068
43.5975
46.0976
48.2695
48.4339
48.0272
47.4892
45.193
40.1676
34.4693
28.2826
22.9116
16.7485
11.2502
4.9361
-1.51054
-6.47407
-8.8815
-11.3211
-11.7093
-13.8146
-13.4572
-14.4161
-9.48279
-4.51508
10.5307
0.245763
0.355423
0.656063
0.950731
1.41227
2.06026
2.93779
3.99046
5.25705
6.78626
8.57828
10.6482
12.959
15.3929
17.9208
21.0203
24.2852
27.6292
31.3361
34.2141
38.3297
42.1576
44.6765
47.0696
49.3466
51.4076
53.3659
55.0548
56.6016
58.0066
58.8313
60.2468
61.356
62.3606
63.3145
63.9629
64.5551
65.0686
65.3905
65.5663
-0.136263
0.050254
0.292416
0.599695
1.04175
1.56959
2.44391
3.39192
4.6529
6.29253
8.17695
10.2202
12.4564
15.0166
17.8142
20.8228
24.0798
27.3514
30.9488
34.0494
38.2301
42.1232
44.7794
47.1204
49.3635
51.3753
53.3089
54.9787
56.5385
57.9167
59.0794
60.1834
61.3261
62.3829
63.2661
63.9539
64.5164
65.0039
65.3273
65.5131
-0.875695
-0.736279
-0.513897
-0.195432
0.226301
0.638935
1.48064
2.50753
3.79397
5.32143
7.16183
9.22592
11.5842
14.2072
17.0725
20.0634
23.3055
26.6355
30.2608
33.4876
37.7264
41.6396
44.3199
46.6241
48.8583
50.8442
52.7782
54.4541
56.0573
57.4983
58.7787
60.0227
61.1726
62.2585
63.157
63.8633
64.4824
64.9745
65.2835
65.4638
-2.01533
-1.9049
-1.68761
-1.34263
-0.909648
-0.421321
0.182158
1.02201
2.24233
3.76342
5.5938
7.70532
10.0871
12.6999
15.6294
18.7293
22.1092
25.5956
29.3473
32.7233
37.0238
41.0343
43.7348
46.0605
48.2903
50.3088
52.262
53.9822
55.6476
57.1449
58.5003
59.7162
60.9002
62.0373
63.2007
64.0628
64.593
65.0431
65.296
65.4283
-3.60272
-3.49698
-3.30866
-2.8721
-2.50373
-2.0456
-1.54402
-0.963201
0.143687
1.58765
3.38265
5.44847
7.81062
10.5432
13.6567
16.9634
20.5653
24.2832
28.169
31.6443
36.2065
40.3403
43.0519
45.4131
47.6135
49.7379
51.7519
53.6098
55.3005
56.8432
58.2206
59.5137
60.6392
61.8202
63.3324
64.2163
64.7027
65.0456
65.2066
65.3166
-5.38279
-5.27376
-5.03038
-4.76343
-4.49288
-4.06893
-3.69383
-3.31724
-2.29997
-0.919568
0.785789
2.79761
5.20294
7.99131
11.2397
14.7855
18.5966
22.6999
26.9735
30.828
35.5137
39.81
42.5989
45.0155
47.2981
49.3738
51.2956
53.0485
54.808
56.4006
57.9015
59.3641
60.6083
61.9236
63.593
64.311
64.6286
64.9138
65.0609
65.1089
-6.89993
-6.85823
-6.80248
-6.64506
-6.542
-6.23081
-6.05785
-5.76796
-4.72643
-3.51332
-1.92119
0.00969417
2.35495
5.10231
8.314
12.1769
16.5356
20.9161
25.5633
29.8394
34.5146
39.0933
42.0155
44.5282
46.8869
48.9992
50.9916
52.7755
54.4626
56.0714
57.5422
58.8828
60.2223
61.5251
63.255
64.0613
64.3852
64.634
64.7521
64.8089
-8.31036
-8.25579
-8.21737
-8.07349
-8.07732
-7.96158
-8.17093
-7.91529
-7.19692
-6.19433
-4.80249
-3.00489
-0.761827
1.98345
5.35629
9.35261
13.8867
18.6239
23.6352
28.3803
33.1361
38.1447
41.3322
43.9439
46.3757
48.561
50.5973
52.4035
54.1743
55.6212
57.2197
58.5209
59.8227
61.0685
62.5897
63.6958
63.9908
64.2251
64.3246
64.3576
-10.101
-10.055
-9.99403
-9.90428
-9.88559
-9.93088
-10.5831
-10.5152
-10.0334
-9.27323
-8.06295
-6.46029
-4.21981
-1.48233
1.97059
6.21468
11.0324
16.1013
21.436
26.6436
31.6559
36.7779
40.412
43.1764
45.7191
48.0238
50.1243
52.0357
53.7702
55.3601
56.7692
58.1637
59.3173
60.6375
61.8373
63.1778
63.4876
63.681
63.7731
63.7849
-12.0217
-12.0347
-12.052
-12.1407
-12.1383
-12.4917
-13.3972
-13.4737
-13.1823
-12.6032
-11.6251
-10.137
-8.09419
-5.33204
-1.65993
2.80508
7.88844
13.3146
19.05
24.7174
30.0995
35.2879
39.2976
42.245
44.9115
47.3305
49.5658
51.5363
53.4108
54.9848
56.3533
57.4287
58.668
59.8375
61.1545
62.3828
62.927
62.9997
63.0524
63.0458
-14.1269
-14.1975
-14.2842
-14.5172
-14.7155
-15.5401
-16.3377
-16.5283
-16.4727
-16.1389
-15.4076
-14.1966
-12.288
-9.43084
-5.6227
-1.01279
4.31054
10.1
16.2467
22.3883
28.188
33.6743
37.934
41.139
43.9602
46.5293
48.8658
51.1081
52.9052
54.4999
55.9136
57.2432
58.386
59.3544
60.3033
61.5938
62.0326
62.1393
62.1674
62.1525
-16.2832
-16.3672
-16.628
-16.9351
-17.3957
-18.7398
-19.5078
-19.87
-19.8925
-19.8921
-19.4681
-18.4951
-16.6618
-13.844
-10.0604
-5.34586
0.2324
6.43024
13.047
19.6855
25.9089
31.7686
36.3289
39.8136
42.8173
45.5598
48.1681
50.2077
52.1247
53.8947
55.5031
56.5456
57.3351
58.226
59.4423
60.7324
61.2063
61.1047
61.0472
61.0387
-18.5097
-18.6491
-18.9701
-19.4111
-20.5461
-21.8909
-22.5566
-23.1657
-23.9274
-23.8652
-23.7033
-22.9474
-21.279
-18.6914
-15.031
-10.2225
-4.3634
2.27534
9.36972
16.4765
23.0323
29.2462
34.256
38.2249
41.4744
44.4953
46.9004
49.1549
51.2958
52.7808
53.9181
55.1216
56.1563
57.0313
57.7716
58.5224
60.0162
59.7213
59.8329
59.7783
-20.6517
-20.8337
-21.2817
-22.0312
-23.4225
-24.8254
-25.7788
-26.7539
-27.7807
-28.0368
-28.0398
-27.5397
-26.2442
-23.9907
-20.5126
-15.6679
-9.57044
-2.54487
4.9912
12.5177
19.3435
25.9602
31.6077
36.3529
40.1673
43.0956
45.6618
47.8016
49.4094
51.0056
52.3789
53.6084
54.6663
55.6066
56.3388
57.0185
57.5572
58.549
58.1033
58.2102
-22.8838
-23.1321
-23.7879
-24.8335
-26.1793
-27.6596
-29.1202
-30.5277
-31.547
-32.3796
-32.5234
-32.4159
-31.5135
-29.5681
-26.3013
-21.5266
-15.4009
-8.17679
-0.129206
8.22959
16.0227
23.0214
28.8391
34.1478
38.0668
40.9174
43.2028
45.3862
47.2502
48.8828
50.3313
51.6334
52.795
53.7985
54.6721
55.3602
56.0426
56.8792
56.847
56.5774
-24.7863
-25.1808
-25.9766
-27.1382
-28.562
-30.2423
-32.1043
-33.9986
-35.4964
-36.5577
-37.1169
-37.5357
-37.0315
-35.2287
-32.0717
-27.58
-21.69
-13.9933
-4.98502
4.6593
13.2707
20.525
25.9864
30.8095
35.1375
38.2895
40.525
42.5599
44.3969
46.1263
47.7092
49.1857
50.5006
51.6518
52.5898
53.4353
53.9538
54.2588
54.7656
54.456
-26.9664
-27.3636
-28.1677
-29.3085
-30.7725
-32.8517
-35.0493
-37.2585
-39.2102
-40.7926
-41.9257
-42.6957
-42.3885
-40.7948
-37.7981
-33.3297
-27.6365
-19.3454
-9.29797
1.00481
10.1749
17.7715
23.1841
26.8115
30.2899
33.837
36.5323
38.8741
40.8143
42.65
44.4295
46.1415
47.7018
49.0656
50.1938
51.1585
51.8367
52.2131
53.2333
52.4494
-28.3019
-28.767
-29.5638
-30.6883
-32.3449
-34.8238
-37.529
-40.1786
-42.5195
-44.8722
-46.1356
-47.2837
-47.3316
-46.098
-43.2897
-38.838
-33.1299
-24.3375
-13.9571
-3.18215
6.86886
15.0914
20.6956
23.9735
26.1304
28.3169
31.2142
34.0342
36.5372
38.5486
40.6001
42.6926
44.6136
46.2575
47.5981
48.6708
49.4205
49.712
49.3618
50.0633
-30.0875
-30.4128
-31.0991
-32.0341
-33.9286
-36.8495
-39.7627
-42.6226
-45.4048
-48.1271
-49.7601
-51.2097
-51.76
-51.0251
-48.4925
-44.0338
-38.1218
-29.248
-18.4959
-7.06128
3.38088
12.2644
18.0056
21.2463
23.007
24.2473
25.9242
28.4412
31.2924
33.8353
36.3419
38.8117
41.1252
43.149
44.7573
45.9861
46.8504
47.315
47.3743
48.1457
-29.7706
-29.9829
-30.6221
-31.7854
-34.1532
-37.9352
-41.0705
-44.2102
-47.527
-50.9362
-52.9408
-54.6291
-55.7218
-55.3885
-52.9814
-48.4236
-41.5809
-32.237
-21.7764
-11.3074
-0.646567
8.72285
14.8736
17.9649
19.4924
20.6543
21.7838
23.7643
26.3534
29.2196
32.141
34.7754
37.2348
39.3822
41.1329
42.5067
43.6292
44.4388
44.6962
45.0019
-28.8849
-29.2231
-29.7949
-31.1391
-34.6038
-39.0409
-42.3821
-45.7768
-49.3607
-53.0763
-55.3244
-57.2374
-58.6296
-58.5881
-56.2719
-51.7068
-43.8982
-34.1933
-25.2092
-16.1054
-5.75384
4.39386
10.7115
13.4055
14.4451
15.2637
16.6965
19.1841
21.9018
25.1834
28.6999
31.4389
33.7924
36.167
38.2857
39.6341
40.505
41.1219
41.466
41.7414
-29.8978
-29.837
-30.2209
-31.6011
-35.4508
-39.6263
-42.9904
-46.4886
-50.3379
-54.1139
-57.1217
-58.8455
-60.6893
-61.0747
-59.0018
-53.9351
-45.9027
-35.9799
-28.1728
-20.436
-10.4365
0.105674
6.47296
8.31135
8.99564
9.50549
10.7337
13.535
17.2822
21.4518
25.3122
28.8198
31.3886
33.5427
35.1562
37.018
38.2344
38.7979
38.9452
38.7484
-30.6575
-30.6199
-30.9725
-32.5133
-36.1445
-39.8502
-43.2238
-46.7651
-50.6384
-54.5089
-58.1144
-59.6399
-62.0908
-63.2664
-61.9218
-57.0762
-48.787
-37.8265
-29.7504
-22.7775
-13.5297
-2.99767
1.2753
2.00891
1.55414
2.46623
4.32543
7.79776
12.4967
17.9295
22.1589
25.9202
29.0712
31.5808
33.281
34.5844
35.8629
36.3835
36.5147
36.2633
-31.0374
-30.9029
-31.3103
-32.9068
-35.9032
-39.1551
-42.4555
-45.9583
-49.7735
-53.6453
-57.6006
-59.9999
-62.9259
-65.4284
-65.7743
-62.0049
-54.0956
-42.7239
-32.137
-22.4014
-14.8303
-7.17843
-3.76598
-3.40022
-3.96436
-3.39562
-0.910977
3.05287
8.38696
14.7069
19.9048
23.6342
26.6996
29.2263
31.0001
32.4898
33.7013
34.4646
34.7498
34.7085
-30.7164
-30.8248
-31.3621
-32.662
-34.9195
-37.7125
-40.7982
-44.1468
-47.7757
-51.5836
-55.5464
-59.6496
-62.6448
-66.847
-69.3961
-66.8133
-58.9234
-47.6408
-37.8514
-26.8756
-18.213
-11.3497
-9.00982
-7.76006
-8.40835
-7.72357
-4.29737
0.024333
5.7376
12.246
18.021
22.4687
25.0732
27.6099
29.22
30.4378
31.2582
31.8332
32.0527
31.8914
-30.0719
-30.2561
-30.6481
-31.5199
-33.1073
-35.3702
-38.1161
-41.1736
-44.4902
-47.9093
-51.4512
-55.8781
-59.5082
-64.0853
-67.7514
-67.4388
-65.7543
-60.0417
-50.5121
-38.9764
-29.419
-19.3132
-16.5565
-15.8197
-16.1679
-13.358
-6.95309
-1.14045
5.0866
11.2881
16.8723
21.1818
23.8996
25.8312
27.1387
28.1553
28.741
29.2079
29.3193
29.1676
-29.0632
-29.3631
-29.5035
-29.9185
-30.79
-32.5329
-35
-37.711
-40.439
-43.1524
-45.799
-49.5843
-52.8167
-56.283
-60.0254
-62.8344
-65.7161
-61.8251
-54.5078
-47.6683
-37.3825
-27.008
-23.9763
-23.1564
-20.2707
-13.5529
-4.75809
1.311
6.98673
12.3418
16.704
20.7158
22.9913
24.4341
25.3452
26.0147
26.3083
26.5513
26.4251
26.2057
-28.0146
-28.2218
-27.9772
-28.0125
-28.1595
-29.3129
-31.4638
-33.7038
-35.3073
-36.4975
-37.9647
-41.0519
-43.2362
-45.8532
-49.4649
-51.9719
-51.1781
-44.8761
-43.6901
-46.1385
-41.3631
-31.7947
-28.944
-27.1891
-19.2798
-8.01626
1.40652
5.9853
10.0393
14.0696
17.2548
19.943
21.6578
22.2056
22.4142
22.3341
22.2636
22.3474
22.3311
22.723
-26.7179
-26.286
-26.2347
-25.9344
-25.4654
-26.2032
-27.765
-28.6941
-28.7463
-28.6649
-30.022
-32.1977
-33.5136
-33.7536
-35.2045
-35.8414
-34.0354
-30.7672
-31.8796
-36.1563
-35.0192
-26.7147
-21.8076
-20.2223
-13.2965
-2.72666
5.5433
9.42403
11.9204
14.2134
16.0368
17.199
16.7151
16.0995
15.744
15.1314
14.8547
14.851
14.7341
15.1115
-24.7778
-24.1559
-24.0978
-23.5017
-22.5863
-22.6438
-23.0802
-22.7715
-22.0594
-22.1357
-22.3417
-22.1183
-21.5897
-19.5748
-18.6007
-17.5605
-15.9488
-14.158
-14.2786
-14.714
-13.9115
-7.87329
-3.40188
-2.76657
0.7415
6.13983
10.0814
11.976
12.7101
13.084
13.3573
13.2147
12.4571
11.794
11.0314
10.2014
9.41823
9.00592
8.58274
8.63864
-22.7272
-22.5051
-21.7635
-20.714
-19.6701
-19.2672
-18.7266
-17.6834
-16.6346
-15.9956
-13.8434
-11.7195
-9.32534
-5.86284
-3.36174
-0.927217
0.716567
1.49193
2.49144
3.91378
5.72685
11.2982
14.3296
14.4948
14.8057
15.0011
14.7507
14.357
13.5578
12.2171
10.5056
9.70668
8.9595
8.4155
7.22116
6.34468
4.94285
4.25166
3.66613
3.68075
-20.0327
-19.6367
-18.7773
-17.5944
-16.9108
-16.1468
-14.9043
-13.1847
-11.5108
-8.88698
-5.5767
-2.03117
2.08276
6.52932
10.2058
13.6646
15.9313
17.4298
17.9305
19.5567
21.1181
23.3433
24.9111
24.056
22.3623
20.3422
17.9908
15.9097
13.9994
11.1684
8.03053
6.76333
5.48204
4.71324
3.42867
2.48506
0.699811
0.122346
-0.506079
-0.279398
-16.8719
-16.6158
-16.2878
-15.3106
-14.263
-12.8795
-10.9878
-8.74521
-5.74599
-2.09558
1.66176
6.02861
11.3631
16.6232
20.7791
24.1955
26.6338
28.6753
29.5397
31.3666
31.2915
31.0619
30.8206
29.0144
26.0639
22.959
19.4513
16.0261
13.2385
9.33184
5.50026
3.79174
1.9648
0.860125
-0.594856
-1.29802
-3.1955
-3.80416
-4.29223
-3.90592
-13.9583
-13.7709
-13.3849
-12.6505
-11.0294
-9.16327
-6.88827
-3.52618
0.143177
3.82467
7.84443
12.4412
17.902
23.3922
28.2364
32.2292
35.2561
37.6774
38.8334
40.2891
39.6656
37.1105
34.2344
31.8667
28.0721
23.8736
19.4921
15.2835
12.0745
7.20316
3.12329
0.589376
-1.50358
-2.69581
-4.39688
-5.17917
-6.6955
-6.99273
-7.88834
-6.89717
-11.8841
-11.5587
-10.8695
-9.87967
-8.41484
-6.42656
-3.58018
-0.0263061
4.14085
8.13155
12.5543
17.6189
23.0478
28.5251
33.5914
38.0404
41.375
43.8085
44.8571
45.9785
44.046
41.0489
37.088
33.2337
28.4865
23.9094
18.7289
14.1138
10.2019
4.82539
0.772992
-2.2422
-4.56975
-5.95619
-7.67376
-8.56012
-10.2221
-10.1266
-11.4158
-9.50721
-10.117
-9.59384
-9.08714
-7.49047
-5.59081
-3.36573
-0.677205
2.85128
7.4887
12.3191
16.6032
21.6826
27.0514
32.3121
37.0948
41.3482
44.8218
47.1701
48.3611
47.9671
46.6579
43.4516
38.8669
34.1639
28.6924
23.4729
17.9099
12.9298
8.35131
2.39584
-1.85222
-4.06528
-7.03803
-8.44113
-10.6586
-11.0156
-12.9529
-12.6057
-13.9373
-11.0822
-8.54904
-8.73062
-7.40849
-5.93548
-3.68221
-1.38641
1.56378
5.10809
10.1782
15.4249
20.0121
25.0003
30.0551
34.9404
39.3561
43.2073
46.4406
48.7714
49.7084
48.9294
47.9529
44.783
39.7293
34.4724
28.4641
22.8263
16.9973
11.6696
6.8207
0.644906
-3.96951
-6.34906
-9.20837
-10.6843
-12.9864
-13.2635
-15.1177
-14.3754
-16.0203
-11.1244
-8.68168
-7.39562
-6.32293
-4.3263
-1.99569
0.861282
3.7515
7.85081
12.7079
18.0015
22.9943
27.8601
32.3664
36.7208
40.8722
44.6372
47.5439
49.9385
50.3086
49.5285
48.6318
45.5385
40.2323
34.6712
28.3157
22.6391
16.5831
11.0781
5.61732
-0.643172
-5.37687
-7.97525
-10.7474
-12.2095
-14.3628
-14.4977
-16.0768
-14.2312
-14.5649
-6.84808
-7.61501
-7.33111
-5.84963
-4.08218
-1.40401
1.44424
5.53838
9.72762
14.6644
19.6741
24.7915
29.5996
33.912
38.0178
41.9237
45.5408
48.2223
50.6467
50.6777
49.956
48.8672
45.7695
40.2428
34.5554
28.0512
22.4555
16.3149
10.9261
4.83315
-1.46991
-6.64614
-9.07872
-11.8081
-12.5931
-15.1997
-15.2907
-16.7724
-13.762
-11.6533
-0.381033
-10.1703
-6.59255
-5.28683
-2.96413
-0.559171
2.3886
6.33873
10.983
16.0411
21.08
25.8723
30.5603
34.8097
38.7994
42.5029
45.933
48.3561
50.3964
50.4725
50.0351
48.9995
46.0062
40.4432
34.5426
28.045
22.6191
16.4263
10.8807
4.47483
-1.82443
-7.28372
-9.85626
-12.4056
-12.924
-14.9342
-14.6101
-15.0961
-9.73251
-2.1693
15.6008
0.611647
0.794567
1.02198
1.30237
1.69251
2.26932
3.1354
4.22435
5.5091
6.95563
8.66991
10.7867
13.169
15.7023
18.4696
21.5552
24.8518
27.8951
31.5164
34.5403
38.6303
42.7252
45.275
47.6478
49.9127
51.8803
53.7575
55.4157
56.9591
58.3515
59.5046
60.2537
61.7885
62.6821
63.5409
64.1802
64.7473
65.1937
65.5737
65.7738
0.316415
0.471453
0.689167
0.977052
1.37046
1.77308
2.63936
3.71497
5.04352
6.57068
8.34834
10.3996
12.7372
15.331
18.1791
21.168
24.4046
27.6672
31.2534
34.4303
38.6694
42.5517
45.2315
47.5623
49.7918
51.7104
53.5607
55.1858
56.7464
58.0992
59.3151
60.4553
61.648
62.5781
63.5356
64.1897
64.7391
65.212
65.5464
65.7348
-0.377685
-0.26672
-0.051046
0.239627
0.642925
1.09738
1.80126
2.71342
3.97481
5.50453
7.34661
9.43689
11.8233
14.45
17.2647
20.1839
23.5129
26.9161
30.5763
33.8727
38.1545
41.9618
44.6644
46.9754
49.1848
51.0937
52.9219
54.5873
56.1662
57.6494
58.8879
60.1685
61.3919
62.5644
63.6413
64.1344
64.7495
65.1978
65.5211
65.6898
-1.46932
-1.37269
-1.17434
-0.853886
-0.479499
-0.0477895
0.506459
1.2825
2.47562
3.9819
5.80251
7.90654
10.2876
12.8727
15.6867
18.7625
22.2573
25.8102
29.606
33.0667
37.402
41.2878
44.0212
46.3617
48.614
50.5294
52.3958
54.0921
55.7939
57.2728
58.7314
59.9381
61.2533
62.4974
63.6093
64.3198
64.8956
65.2359
65.523
65.6522
-3.01206
-2.907
-2.69859
-2.4136
-2.06772
-1.68357
-1.21548
-0.641292
0.397126
1.82224
3.60638
5.64862
7.98463
10.68
13.6669
16.966
20.6727
24.453
28.4934
32.148
36.4035
40.3612
43.1796
45.6511
48.1229
50.0844
52.0208
53.7967
55.5057
57.0397
58.4655
59.826
61.0044
62.3454
63.678
64.4779
64.9829
65.276
65.4688
65.5376
-4.77432
-4.68222
-4.49751
-4.28411
-4.02001
-3.697
-3.38908
-2.98405
-2.03878
-0.701147
0.971664
2.97184
5.38388
8.17474
11.3103
14.8509
18.8374
22.6747
27.1851
31.1346
35.7711
40.0951
42.9724
45.4002
47.6851
49.7111
51.5564
53.4376
55.2604
56.772
58.382
59.6014
60.8882
62.4147
63.8736
64.6355
64.9493
65.1911
65.3126
65.3682
-6.3047
-6.32157
-6.31226
-6.25986
-6.10616
-5.91612
-5.78393
-5.51395
-4.61799
-3.40553
-1.80915
0.134109
2.5229
5.32842
8.60118
12.3377
16.5278
21.1545
25.8632
30.1474
34.9027
39.3522
42.3947
44.9327
47.305
49.4338
51.4951
53.3238
55.0409
56.4776
57.9477
59.2009
60.5453
61.879
63.8102
64.44
64.7372
64.944
65.0452
65.0811
-7.70057
-7.69469
-7.71855
-7.76266
-7.79031
-7.79443
-8.00226
-7.82799
-7.14287
-6.14925
-4.75506
-2.9381
-0.597798
2.14558
5.65893
9.66265
14.1594
18.9441
23.9853
28.6995
33.6301
38.5491