/*--------------------------------*- C++ -*----------------------------------*\
| =========                 |                                                 |
| \\      /  F ield         | OpenFOAM: The Open Source CFD Toolbox           |
|  \\    /   O peration     | Version:  v1806                                 |
|   \\  /    A nd           | Web:      www.OpenFOAM.com                      |
|    \\/     M anipulation  |                                                 |
\*---------------------------------------------------------------------------*/
FoamFile
{
    version     2.0;
    format      ascii;
    class       volScalarField;
    location    "0.046";
    object      p;
}
// * * * * * * * * * * * * * * * * * * * * * * * * * * * * * * * * * * * * * //

dimensions      [0 2 -2 0 0 0 0];


internalField   nonuniform List<scalar> 
64000
(
-1.28695e-05
-0.106717
-0.237622
-0.259526
-0.265383
-0.308567
-0.328794
-0.361306
-0.381964
-0.416623
-0.425859
-0.471336
-0.487751
-0.532147
-0.556206
-0.588206
-0.58765
-0.646053
-0.554808
-0.828983
-0.446014
-1.00005
-0.806796
-0.965568
-0.863288
-0.814822
-0.766748
-0.670072
-0.717329
-0.62228
-0.718263
-0.731752
-0.830662
-0.862416
-0.927832
-0.939638
-0.986955
-0.980987
-1.00565
-0.999899
-0.108775
-0.204259
-0.285266
-0.287276
-0.276166
-0.306089
-0.324758
-0.349771
-0.364444
-0.395199
-0.404158
-0.438373
-0.447941
-0.45975
-0.468544
-0.47116
-0.546111
-0.58048
-0.50946
-0.692054
-0.404836
-0.88804
-0.779637
-0.890994
-0.803209
-0.746326
-0.714776
-0.635279
-0.656628
-0.627153
-0.688128
-0.697632
-0.796392
-0.82221
-0.896184
-0.902091
-0.95702
-0.960565
-0.995792
-0.995493
-0.234133
-0.272677
-0.306277
-0.308844
-0.281915
-0.307806
-0.322081
-0.342568
-0.364806
-0.393448
-0.409258
-0.431794
-0.438915
-0.515669
-0.572627
-0.620708
-0.636997
-0.683909
-0.628832
-0.831013
-0.61863
-1.12534
-1.11151
-1.25843
-1.22747
-1.2004
-1.19959
-1.1236
-1.1246
-1.04135
-1.04642
-0.992194
-1.01465
-0.971937
-0.971957
-0.961795
-0.989488
-0.988151
-1.01475
-1.01433
-0.313218
-0.322409
-0.338246
-0.335555
-0.326557
-0.308343
-0.349853
-0.360425
-0.383631
-0.387209
-0.402828
-0.486837
-0.574358
-0.640032
-0.675193
-0.710527
-0.767824
-0.829887
-0.821758
-1.03275
-0.879052
-1.39918
-1.45353
-1.61581
-1.6233
-1.60952
-1.6138
-1.54172
-1.51672
-1.42091
-1.36135
-1.24145
-1.17089
-1.09892
-1.04954
-1.00115
-1.04376
-1.01329
-1.0418
-1.03996
-0.351442
-0.340587
-0.366392
-0.350717
-0.331322
-0.304468
-0.326981
-0.323734
-0.397808
-0.501354
-0.652856
-0.755406
-0.777526
-0.879002
-0.925581
-0.991626
-1.04122
-1.0927
-1.10045
-1.3074
-1.19088
-1.68749
-1.79564
-1.94754
-1.98747
-1.97383
-1.98401
-1.90348
-1.88485
-1.77809
-1.71427
-1.58107
-1.45739
-1.28021
-1.11229
-1.08178
-1.08911
-1.06967
-1.08568
-1.08036
-0.395486
-0.393448
-0.400861
-0.434273
-0.467748
-0.440136
-0.496507
-0.632247
-0.802416
-0.896503
-0.945561
-0.998375
-1.04072
-1.08509
-1.12531
-1.16447
-1.19015
-1.28656
-1.30495
-1.4908
-1.39648
-1.91156
-2.00667
-2.15418
-2.18009
-2.16935
-2.16633
-2.10688
-2.06467
-1.98449
-1.89375
-1.78924
-1.65819
-1.58899
-1.3147
-1.17247
-1.17418
-1.11983
-1.13556
-1.13041
-0.450443
-0.464197
-0.462795
-0.525328
-0.61419
-0.641198
-0.902416
-0.90934
-1.03577
-1.09645
-1.17938
-1.24226
-1.29185
-1.35006
-1.38071
-1.40627
-1.43455
-1.42717
-1.4542
-1.5818
-1.56771
-1.83623
-2.15083
-2.22453
-2.29927
-2.27923
-2.29096
-2.24553
-2.22297
-2.15003
-2.05853
-1.93446
-1.80107
-1.65952
-1.43237
-1.22482
-1.21032
-1.16186
-1.18425
-1.17732
-0.470945
-0.479177
-0.514561
-0.615697
-0.705276
-0.849146
-1.03364
-1.09929
-1.22827
-1.30686
-1.38113
-1.44581
-1.49418
-1.53104
-1.56967
-1.57868
-1.59389
-1.57637
-1.54704
-1.67502
-1.70989
-1.72793
-2.14638
-2.24917
-2.33417
-2.34084
-2.36012
-2.34192
-2.33251
-2.27093
-2.19574
-2.07063
-1.94263
-1.77702
-1.61985
-1.30956
-1.275
-1.22037
-1.23183
-1.23528
-0.560917
-0.522923
-0.575886
-0.691786
-0.811994
-1.03888
-1.16235
-1.25726
-1.36473
-1.4635
-1.54879
-1.61965
-1.67854
-1.72676
-1.7667
-1.77973
-1.78184
-1.74156
-1.64696
-1.73536
-1.76938
-1.65763
-1.90864
-2.2376
-2.32062
-2.38901
-2.41014
-2.422
-2.43229
-2.38695
-2.3056
-2.18407
-2.05107
-1.86103
-1.71708
-1.416
-1.31012
-1.27707
-1.27632
-1.2897
-0.563906
-0.558785
-0.640544
-0.769472
-0.985722
-1.14863
-1.29091
-1.38407
-1.49437
-1.57905
-1.69321
-1.75194
-1.80942
-1.85318
-1.89327
-1.91274
-1.93223
-1.85046
-1.82791
-1.80158
-1.7813
-1.60157
-1.5288
-2.10259
-2.29699
-2.39237
-2.46806
-2.48471
-2.51972
-2.46914
-2.43157
-2.30084
-2.16737
-1.99509
-1.83255
-1.57567
-1.38603
-1.35413
-1.33622
-1.35854
-0.638255
-0.625676
-0.713316
-0.902855
-1.10088
-1.26658
-1.40276
-1.50912
-1.61271
-1.70994
-1.77668
-1.84222
-1.92212
-1.95098
-1.98729
-2.00985
-2.01527
-1.90504
-1.96137
-1.78534
-1.59467
-1.33698
-1.16664
-1.77831
-2.28408
-2.44112
-2.51797
-2.56027
-2.57545
-2.57096
-2.4997
-2.40877
-2.25529
-2.07317
-1.89079
-1.6991
-1.45806
-1.41008
-1.39336
-1.41984
-0.677146
-0.67403
-0.803465
-0.994539
-1.19027
-1.35274
-1.49019
-1.60015
-1.70504
-1.78089
-1.85663
-1.91681
-1.95215
-2.0082
-2.02222
-2.07048
-2.07596
-1.99879
-2.08552
-1.75882
-1.26234
-0.952882
-0.917283
-1.48005
-2.14104
-2.42698
-2.55347
-2.61296
-2.6375
-2.63511
-2.60498
-2.48992
-2.37289
-2.20247
-2.00449
-1.81428
-1.5602
-1.48787
-1.46062
-1.48832
-0.772057
-0.780238
-0.903204
-1.08431
-1.27271
-1.43883
-1.57599
-1.68203
-1.77859
-1.84925
-1.90563
-1.94676
-1.98464
-2.0089
-2.03865
-2.11459
-2.08396
-2.09755
-2.07332
-1.53176
-1.1426
-0.89805
-0.838262
-1.30784
-1.94808
-2.55939
-2.61076
-2.70829
-2.70802
-2.71597
-2.65973
-2.6118
-2.46924
-2.326
-2.11729
-1.93038
-1.67236
-1.5687
-1.53347
-1.56554
-0.829187
-0.836451
-0.960061
-1.13017
-1.3151
-1.49464
-1.6219
-1.71635
-1.79353
-1.85086
-1.90149
-1.95244
-1.97415
-2.0152
-2.00731
-2.0727
-1.97896
-2.16349
-1.73194
-1.42633
-1.21473
-1.08611
-0.95276
-1.19013
-1.69343
-2.27676
-2.63682
-2.68668
-2.76516
-2.76491
-2.765
-2.68671
-2.57084
-2.40039
-2.21951
-2.01019
-1.79194
-1.63587
-1.59853
-1.63395
-0.913154
-0.92174
-1.0416
-1.19468
-1.37304
-1.52394
-1.65164
-1.74024
-1.82234
-1.86906
-1.90707
-1.92527
-1.93909
-1.91597
-1.95993
-1.96007
-2.02552
-1.82677
-1.57959
-1.40856
-1.30689
-1.21894
-1.16882
-1.20318
-1.5905
-1.95413
-2.58363
-2.66022
-2.7564
-2.84046
-2.81431
-2.78837
-2.68649
-2.5536
-2.34797
-2.15906
-1.93862
-1.77983
-1.68518
-1.72913
-0.990846
-0.989192
-1.09987
-1.24505
-1.41813
-1.55684
-1.67976
-1.74875
-1.76932
-1.7719
-1.78728
-1.84773
-1.89199
-1.92097
-1.93868
-1.64321
-1.57963
-1.28299
-1.25032
-1.2251
-1.24051
-1.25033
-1.28053
-1.27002
-1.54133
-1.85224
-2.17396
-2.69594
-2.76646
-2.83657
-2.83982
-2.78821
-2.71095
-2.57741
-2.39179
-2.19551
-1.9837
-1.88502
-1.77337
-1.81334
-0.818847
-0.873084
-0.995563
-1.12652
-1.28958
-1.41272
-1.56334
-1.63685
-1.72346
-1.76223
-1.80004
-1.78005
-1.57729
-1.301
-1.10284
-0.981123
-0.958874
-0.987408
-1.07686
-1.11409
-1.18567
-1.2173
-1.28926
-1.30482
-1.52408
-1.78397
-2.0422
-2.28735
-2.63545
-2.76207
-2.83801
-2.91822
-2.87552
-2.76013
-2.5979
-2.40045
-2.17844
-2.00576
-1.86321
-1.87468
-1.10272
-1.02625
-1.08042
-1.17002
-1.32152
-1.43128
-1.55005
-1.60731
-1.4613
-1.15855
-0.903305
-0.739617
-0.684348
-0.70849
-0.774759
-0.809455
-0.855711
-0.894591
-0.953981
-1.04948
-1.1054
-1.15939
-1.24649
-1.28333
-1.47817
-1.77674
-1.9386
-2.20955
-2.36207
-2.63765
-2.62322
-2.63689
-2.69784
-2.62999
-2.50918
-2.247
-2.08803
-2.1023
-2.02306
-2.06469
0.164941
0.0913201
-0.0305057
-0.12963
-0.299513
-0.392651
-0.548336
-0.488997
-0.518555
-0.577399
-0.634538
-0.660726
-0.671508
-0.666365
-0.678908
-0.700217
-0.753443
-0.795261
-0.875557
-0.957412
-1.07214
-1.11277
-1.21923
-1.26051
-1.44333
-1.70301
-1.89048
-1.99242
-2.17105
-2.22308
-2.61026
-2.95055
-2.85765
-2.759
-2.64394
-2.57719
-2.38442
-2.07365
-1.97009
-1.92842
-0.434473
-0.251179
-0.243999
-0.247062
-0.346134
-0.395801
-0.485239
-0.516194
-0.568766
-0.582405
-0.58561
-0.580802
-0.579486
-0.59018
-0.617817
-0.641955
-0.671649
-0.73037
-0.80557
-0.880178
-1.0268
-1.05822
-1.17563
-1.24769
-1.36457
-1.64536
-1.80142
-2.02462
-2.13332
-2.17427
-2.15676
-2.03542
-2.24435
-2.64593
-2.84946
-2.79951
-2.69107
-2.56058
-2.4198
-2.35858
-0.112682
-0.0981619
-0.107281
-0.129741
-0.224824
-0.282902
-0.376054
-0.420142
-0.497466
-0.538916
-0.563713
-0.565665
-0.564287
-0.567351
-0.576509
-0.596903
-0.633484
-0.667708
-0.749212
-0.839329
-0.938668
-1.04361
-1.09695
-1.17042
-1.34152
-1.54147
-1.78071
-1.94882
-2.09183
-2.12565
-2.1661
-2.17325
-2.10517
-1.91157
-1.77936
-1.78325
-1.7948
-1.79727
-1.78606
-1.84079
-0.220847
-0.161709
-0.172886
-0.181134
-0.256835
-0.307904
-0.374096
-0.44115
-0.516301
-0.555267
-0.579439
-0.575715
-0.571628
-0.576539
-0.585917
-0.610912
-0.621399
-0.664549
-0.736084
-0.804626
-0.926125
-1.00268
-1.12544
-1.2131
-1.33204
-1.54119
-1.72695
-1.89774
-2.03
-2.10309
-2.1621
-2.13145
-2.17027
-2.12098
-2.09519
-1.98068
-1.91375
-1.80181
-1.8186
-1.9311
-0.222565
-0.198326
-0.200326
-0.20634
-0.269914
-0.315862
-0.383822
-0.459376
-0.536917
-0.587278
-0.611858
-0.61129
-0.618652
-0.63397
-0.63913
-0.632329
-0.623075
-0.62224
-0.688793
-0.762506
-0.877049
-0.992748
-1.0979
-1.23027
-1.33923
-1.50178
-1.66024
-1.79832
-1.9199
-1.9862
-2.05915
-2.06617
-2.0954
-2.02702
-2.03015
-1.93988
-1.9082
-1.75955
-1.70236
-1.73299
-0.272772
-0.234574
-0.261706
-0.257512
-0.323909
-0.364206
-0.431729
-0.502123
-0.576289
-0.630839
-0.662049
-0.674523
-0.689567
-0.705669
-0.675185
-0.669131
-0.647503
-0.666095
-0.813896
-0.800974
-0.926183
-0.995341
-1.14048
-1.25931
-1.3892
-1.49706
-1.64618
-1.76576
-1.89284
-1.96594
-2.07047
-2.08549
-2.16864
-2.1249
-2.18738
-2.08847
-2.09961
-1.93497
-1.90686
-1.98006
-0.317113
-0.282856
-0.317461
-0.308167
-0.373192
-0.405491
-0.478692
-0.545791
-0.629483
-0.686437
-0.72622
-0.745996
-0.771492
-0.794792
-0.778658
-0.793257
-0.780536
-0.841049
-0.913445
-0.768874
-0.933398
-1.01797
-1.12615
-1.25788
-1.37341
-1.5354
-1.59852
-1.70894
-1.81098
-1.85935
-1.94553
-1.93745
-2.00584
-1.93508
-1.99462
-1.88091
-1.91192
-1.77087
-1.7744
-1.85443
-0.373045
-0.328881
-0.369925
-0.362406
-0.424157
-0.465785
-0.526264
-0.58807
-0.658153
-0.727466
-0.778449
-0.825627
-0.868424
-0.893662
-0.882136
-0.90954
-0.902069
-0.939371
-1.02336
-0.772586
-0.976998
-1.03639
-1.15791
-1.28079
-1.39786
-1.5178
-1.68195
-1.73827
-1.86612
-1.91489
-2.06871
-2.10028
-2.24372
-2.18328
-2.29895
-2.15388
-2.19853
-1.99206
-1.94088
-1.88263
-0.433549
-0.397932
-0.426072
-0.431392
-0.484845
-0.535416
-0.608519
-0.671228
-0.754901
-0.817565
-0.873918
-0.915574
-0.94152
-0.993249
-1.02619
-1.05672
-1.06736
-1.06771
-1.08214
-0.805195
-1.00915
-1.07206
-1.17282
-1.29419
-1.40296
-1.5191
-1.66089
-1.76579
-1.87533
-1.95897
-2.08447
-2.07061
-2.19076
-2.11499
-2.264
-2.14493
-2.27739
-2.11375
-2.18952
-2.17103
-0.474581
-0.448845
-0.440444
-0.476276
-0.517602
-0.575547
-0.617855
-0.715885
-0.798626
-0.874537
-0.943055
-1.00879
-1.04934
-1.09935
-1.10216
-1.15797
-1.18802
-1.11185
-1.21213
-0.815425
-1.03233
-1.06532
-1.16907
-1.29516
-1.39631
-1.49283
-1.67936
-1.75035
-1.91259
-1.96907
-2.07541
-2.01628
-2.1465
-1.99508
-2.169
-1.95888
-2.11851
-1.86596
-1.93401
-1.82437
-0.550906
-0.533997
-0.520945
-0.539433
-0.60166
-0.649319
-0.73026
-0.804523
-0.884172
-0.955266
-1.02282
-1.09216
-1.1383
-1.19743
-1.22874
-1.2503
-1.31545
-1.20398
-1.31411
-0.875477
-1.05432
-1.08774
-1.15818
-1.27943
-1.35689
-1.42882
-1.62294
-1.72625
-1.88081
-1.87745
-1.99505
-1.91077
-2.05234
-1.87321
-2.04906
-1.79517
-1.9456
-1.61912
-1.6387
-1.51872
-0.565747
-0.550818
-0.531967
-0.521073
-0.609757
-0.632717
-0.734148
-0.809815
-0.898535
-0.973433
-1.04797
-1.11744
-1.1762
-1.23298
-1.26543
-1.2885
-1.32092
-1.22656
-1.33847
-0.871325
-1.02095
-1.05653
-1.12528
-1.22637
-1.31042
-1.25341
-1.83823
-1.67004
-1.94068
-1.87775
-2.03816
-1.88062
-2.07404
-1.80688
-2.0698
-1.68573
-1.90373
-1.45964
-1.47663
-1.30101
-0.662359
-0.651166
-0.64377
-0.609399
-0.693123
-0.741704
-0.829743
-0.900651
-0.98664
-1.06257
-1.13295
-1.20985
-1.25888
-1.31639
-1.374
-1.33481
-1.4374
-1.2915
-1.49393
-0.975959
-1.06469
-1.06167
-1.10072
-1.18558
-1.25738
-1.1428
-1.98071
-1.62356
-1.96412
-1.8329
-2.0248
-1.85647
-2.03761
-1.7422
-1.97588
-1.57192
-1.78826
-1.27638
-1.24847
-0.946165
-0.634902
-0.611404
-0.626376
-0.552002
-0.606487
-0.682657
-0.766776
-0.838038
-0.931066
-1.01159
-1.10477
-1.17933
-1.25502
-1.31436
-1.35317
-1.3318
-1.46884
-1.27981
-1.51786
-0.981179
-1.02974
-1.00501
-1.03294
-1.11118
-1.20905
-1.01256
-2.06172
-1.60655
-1.99167
-1.80171
-2.05914
-1.7769
-2.09535
-1.64335
-2.00385
-1.38757
-1.73184
-1.04385
-1.02202
-0.530109
-0.756841
-0.758039
-0.737495
-0.723607
-0.687262
-0.799874
-0.868692
-0.929207
-1.01212
-1.09334
-1.17581
-1.27126
-1.33844
-1.37867
-1.46181
-1.41848
-1.58477
-1.36915
-1.6172
-1.04894
-1.01215
-0.976086
-0.989028
-1.04553
-1.185
-0.86443
-2.14595
-1.58131
-2.13255
-1.78243
-2.11487
-1.76227
-2.08225
-1.64792
-1.99552
-1.34666
-1.62997
-0.865986
-0.732546
-0.03855
-0.663653
-0.642961
-0.649038
-0.606701
-0.577184
-0.620233
-0.735031
-0.775461
-0.884242
-0.963949
-1.09287
-1.16667
-1.26929
-1.33494
-1.45282
-1.40805
-1.61704
-1.36834
-1.63607
-1.02985
-0.909553
-0.868934
-0.874629
-0.899833
-1.11157
-0.703722
-2.1296
-1.60487
-2.1289
-1.75615
-2.1468
-1.68084
-2.1177
-1.46562
-2.00883
-1.12116
-1.53699
-0.393907
-0.335834
0.777973
-0.826169
-0.844062
-0.811839
-0.794107
-0.774188
-0.714168
-0.856949
-0.859418
-0.96325
-1.03065
-1.11594
-1.23431
-1.33609
-1.41419
-1.54776
-1.4879
-1.72772
-1.46517
-1.73427
-1.09191
-0.874163
-0.799931
-0.801233
-0.778101
-1.03775
-0.598998
-2.11065
-1.64807
-2.26369
-1.78784
-2.22776
-1.69508
-2.20484
-1.45753
-2.0458
-1.15008
-1.52588
-0.18441
0.0901574
1.69103
-0.709035
-0.632353
-0.684625
-0.560675
-0.603834
-0.487083
-0.639766
-0.63174
-0.749496
-0.825542
-0.975253
-1.0905
-1.24589
-1.33527
-1.51727
-1.48467
-1.73365
-1.4827
-1.70854
-1.03964
-0.728239
-0.617241
-0.620624
-0.530999
-0.868988
-0.487762
-2.02991
-1.68201
-2.33448
-1.80539
-2.29148
-1.56768
-2.21504
-1.30482
-1.91252
-0.822837
-1.2852
0.55635
0.983344
3.55926
-0.87937
-0.957625
-0.851486
-0.853119
-0.755806
-0.700385
-0.706336
-0.6984
-0.800335
-0.87459
-1.00221
-1.13268
-1.27999
-1.39572
-1.5772
-1.58048
-1.83778
-1.59192
-1.79731
-1.0607
-0.686638
-0.478939
-0.466463
-0.338586
-0.67262
-0.412607
-1.9623
-1.73072
-2.42678
-1.90358
-2.45556
-1.63399
-2.33877
-1.25453
-2.16466
-0.796484
-1.44372
0.948647
1.67686
5.37438
-1.1708
-0.714178
-0.824044
-0.456606
-0.551183
-0.307396
-0.473952
-0.432481
-0.565299
-0.641295
-0.803733
-0.942396
-1.12845
-1.26777
-1.48907
-1.523
-1.80879
-1.61848
-1.73359
-0.935505
-0.496557
-0.145535
-0.173572
-0.00826616
-0.402825
-0.350968
-1.89432
-1.78447
-2.55317
-1.92383
-2.47439
-1.58563
-2.21706
-1.10786
-1.85515
-0.229943
-0.753305
2.13749
3.92116
10.1408
-1.00059
-1.26722
-1.06686
-1.0117
-0.605395
-0.525405
-0.494813
-0.46649
-0.564182
-0.637101
-0.771592
-0.912243
-1.09291
-1.2416
-1.47188
-1.53549
-1.87492
-1.75145
-1.79503
-0.983935
-0.479348
0.0412497
0.0806099
0.232668
-0.211432
-0.30913
-1.82331
-1.7784
-2.58666
-1.99915
-2.56907
-1.61367
-2.32275
-1.18996
-2.03213
-0.568981
-0.99168
2.84142
4.94602
13.6801
-3.50863
-0.754624
-1.08045
-0.571039
-0.492104
-0.249248
-0.335155
-0.318468
-0.441477
-0.526312
-0.68759
-0.831172
-1.02676
-1.18455
-1.4329
-1.54926
-1.94638
-1.89189
-1.75579
-0.847228
-0.334859
0.343553
0.424846
0.47943
-0.113921
-0.38827
-1.86239
-1.92255
-2.80545
-2.04362
-2.54303
-1.50324
-2.17339
-1.03453
-1.66699
0.0902492
0.624064
6.55934
11.8032
25.6074
-0.110761
-0.216004
-0.282977
-0.282102
-0.277804
-0.312388
-0.335155
-0.366141
-0.394388
-0.421783
-0.445213
-0.481437
-0.503132
-0.537563
-0.571179
-0.593492
-0.603551
-0.635719
-0.643072
-0.831838
-0.549686
-0.99823
-0.93352
-1.04269
-0.962976
-0.912805
-0.879431
-0.800665
-0.810481
-0.760008
-0.805897
-0.804111
-0.882362
-0.896565
-0.948483
-0.951895
-0.99421
-0.988693
-1.01409
-1.00307
-0.223609
-0.271949
-0.317277
-0.302751
-0.285495
-0.30829
-0.325009
-0.354098
-0.355827
-0.393838
-0.393245
-0.459538
-0.459004
-0.470928
-0.476565
-0.503608
-0.539593
-0.582958
-0.528809
-0.703541
-0.569311
-0.973551
-0.942222
-1.05107
-0.986935
-0.952718
-0.937836
-0.877065
-0.885921
-0.827569
-0.856603
-0.85054
-0.869407
-0.87429
-0.935557
-0.930517
-0.978282
-0.97327
-1.0025
-0.993361
-0.28741
-0.309868
-0.329112
-0.318551
-0.289753
-0.302592
-0.31936
-0.332205
-0.383727
-0.412786
-0.426332
-0.435091
-0.450448
-0.500078
-0.569572
-0.652645
-0.6655
-0.710264
-0.674086
-0.863195
-0.803239
-1.24472
-1.31573
-1.4638
-1.44628
-1.4288
-1.43255
-1.37116
-1.36614
-1.27052
-1.20769
-1.10892
-1.08424
-1.03775
-1.00241
-0.976025
-1.00783
-0.999472
-1.02236
-1.01518
-0.349972
-0.360942
-0.369412
-0.337799
-0.343591
-0.310179
-0.346302
-0.374444
-0.380118
-0.387763
-0.40211
-0.477612
-0.575042
-0.648505
-0.699554
-0.772088
-0.808729
-0.881552
-0.880107
-1.09168
-1.10792
-1.58371
-1.68944
-1.8462
-1.84308
-1.82513
-1.82055
-1.74163
-1.70942
-1.5873
-1.50853
-1.33413
-1.23121
-1.12118
-1.07529
-1.01571
-1.06021
-1.02607
-1.04986
-1.0434
-0.373271
-0.352627
-0.365694
-0.34677
-0.354633
-0.312891
-0.348996
-0.338007
-0.414841
-0.519319
-0.673655
-0.775122
-0.826814
-0.884588
-0.955649
-1.03343
-1.07187
-1.14715
-1.16569
-1.33642
-1.35403
-1.79645
-1.9703
-2.09492
-2.11627
-2.10405
-2.10359
-2.03914
-1.98593
-1.86066
-1.77037
-1.63334
-1.4835
-1.28596
-1.1125
-1.08799
-1.09562
-1.07535
-1.0868
-1.08394
-0.413755
-0.424745
-0.441202
-0.44784
-0.450963
-0.405332
-0.44402
-0.638401
-0.805355
-0.910434
-0.960919
-1.01527
-1.06643
-1.10325
-1.16497
-1.23768
-1.2602
-1.33509
-1.34505
-1.52229
-1.54499
-2.0107
-2.14456
-2.28997
-2.30219
-2.27319
-2.26747
-2.17662
-2.15864
-2.02298
-1.93902
-1.82311
-1.68825
-1.58308
-1.29878
-1.19576
-1.18816
-1.13839
-1.1446
-1.14103
-0.48194
-0.466173
-0.502848
-0.53643
-0.614754
-0.608927
-0.874541
-0.943463
-1.05191
-1.11904
-1.20163
-1.26313
-1.3193
-1.36284
-1.42575
-1.4481
-1.4701
-1.48045
-1.47724
-1.54974
-1.59076
-1.8838
-2.22035
-2.31687
-2.37586
-2.34898
-2.355
-2.29462
-2.24102
-2.14576
-2.05883
-1.92524
-1.79051
-1.64974
-1.42739
-1.24002
-1.2156
-1.17581
-1.18035
-1.18144
-0.498065
-0.51904
-0.56189
-0.645674
-0.730594
-0.819411
-1.05558
-1.13218
-1.2448
-1.32745
-1.39685
-1.46946
-1.51936
-1.57645
-1.6139
-1.6238
-1.62028
-1.59787
-1.58312
-1.61683
-1.64515
-1.73348
-2.14266
-2.30461
-2.39824
-2.40603
-2.43836
-2.38389
-2.37172
-2.25906
-2.17796
-2.06554
-1.92499
-1.77437
-1.59683
-1.34267
-1.30129
-1.24931
-1.24643
-1.24902
-0.571414
-0.572274
-0.621315
-0.734499
-0.820631
-1.03889
-1.17009
-1.27907
-1.39506
-1.48133
-1.57037
-1.63641
-1.70266
-1.76889
-1.80547
-1.81929
-1.81039
-1.76402
-1.69863
-1.6723
-1.65348
-1.57795
-1.85721
-2.25832
-2.38962
-2.46402
-2.50237
-2.47379
-2.42726
-2.36101
-2.27479
-2.16612
-2.04046
-1.8329
-1.69039
-1.40009
-1.32373
-1.28342
-1.28192
-1.29341
-0.598745
-0.618198
-0.703503
-0.805926
-1.02604
-1.12994
-1.30994
-1.40488
-1.50429
-1.62004
-1.68639
-1.77753
-1.82943
-1.90566
-1.94405
-1.97247
-1.97928
-1.93309
-1.87953
-1.7639
-1.63881
-1.43947
-1.49288
-2.05429
-2.369
-2.48124
-2.57847
-2.52755
-2.53814
-2.43791
-2.39871
-2.32601
-2.20721
-2.05593
-1.84168
-1.57556
-1.40861
-1.37951
-1.35424
-1.37095
-0.668859
-0.684423
-0.768623
-0.962472
-1.14399
-1.26399
-1.41333
-1.5066
-1.61233
-1.71542
-1.79786
-1.87872
-1.93595
-2.00517
-2.05529
-2.08431
-2.09538
-2.05525
-1.99148
-1.75656
-1.46113
-1.14485
-1.09646
-1.68886
-2.33253
-2.54516
-2.63154
-2.6533
-2.58122
-2.59035
-2.52532
-2.40423
-2.265
-2.07921
-1.9161
-1.66983
-1.43993
-1.42352
-1.39976
-1.42217
-0.722164
-0.742849
-0.875498
-1.07286
-1.24291
-1.37386
-1.48898
-1.61542
-1.6951
-1.78633
-1.86437
-1.95304
-1.98944
-2.06537
-2.10899
-2.1541
-2.16884
-2.15174
-2.08757
-1.67355
-1.16055
-0.812086
-0.822282
-1.37691
-2.11426
-2.52163
-2.63878
-2.64397
-2.71227
-2.7012
-2.60187
-2.53751
-2.41363
-2.27726
-2.09879
-1.86981
-1.54315
-1.48231
-1.47574
-1.49561
-0.824362
-0.857881
-0.992944
-1.17496
-1.34065
-1.47499
-1.60361
-1.67731
-1.80512
-1.8619
-1.93222
-1.96634
-2.05083
-2.08754
-2.16254
-2.19477
-2.19773
-2.22037
-2.00293
-1.47779
-1.02793
-0.743942
-0.743437
-1.20974
-1.85352
-2.55456
-2.64116
-2.79574
-2.81972
-2.7794
-2.78058
-2.66983
-2.51988
-2.33484
-2.11559
-1.97732
-1.71155
-1.53092
-1.5473
-1.56855
-0.895794
-0.924764
-1.05641
-1.22849
-1.39952
-1.54766
-1.66204
-1.74918
-1.81637
-1.87437
-1.95025
-2.02007
-2.06302
-2.13996
-2.1561
-2.1603
-2.16588
-2.15243
-1.72552
-1.35953
-1.06333
-0.885498
-0.823736
-1.14206
-1.612
-2.19364
-2.57019
-2.76044
-2.82414
-2.8983
-2.82403
-2.75021
-2.61038
-2.45179
-2.21716
-2.01686
-1.83332
-1.63319
-1.58332
-1.65018
-0.974476
-1.00518
-1.13265
-1.29011
-1.45707
-1.59948
-1.74022
-1.80923
-1.8914
-1.93685
-1.99573
-1.98374
-2.0462
-1.99338
-2.10591
-2.08973
-2.08111
-1.7958
-1.50274
-1.28391
-1.16868
-1.12881
-1.06255
-1.182
-1.52331
-1.82479
-2.54025
-2.69477
-2.86078
-2.91642
-2.89779
-2.83904
-2.72643
-2.57265
-2.34861
-2.1455
-1.93342
-1.83529
-1.637
-1.74795
-1.04611
-1.07203
-1.20111
-1.34761
-1.51544
-1.64889
-1.76404
-1.82681
-1.86914
-1.88023
-1.89751
-1.91437
-1.94849
-1.88868
-2.01127
-1.71485
-1.51832
-1.26569
-1.16337
-1.144
-1.18449
-1.21852
-1.21057
-1.24086
-1.53124
-1.91436
-2.29983
-2.86516
-2.91954
-2.94313
-2.92924
-2.87852
-2.78155
-2.63046
-2.42448
-2.20565
-2.00804
-1.89762
-1.75258
-1.80894
-0.933043
-0.998128
-1.11992
-1.27043
-1.43111
-1.55163
-1.67299
-1.73617
-1.79883
-1.80567
-1.81068
-1.73418
-1.54996
-1.2496
-1.1917
-0.982868
-0.990337
-0.965535
-1.01342
-1.05136
-1.13827
-1.19296
-1.2378
-1.2698
-1.53143
-1.74218
-2.06259
-2.30196
-2.76279
-2.9197
-2.96183
-2.97376
-2.92528
-2.80434
-2.61112
-2.40979
-2.15764
-2.04024
-1.89425
-1.85803
-1.08777
-1.03474
-1.09072
-1.20507
-1.33642
-1.44871
-1.55543
-1.58323
-1.48714
-1.22019
-0.987873
-0.80733
-0.736074
-0.694276
-0.770705
-0.758981
-0.791257
-0.831179
-0.890157
-0.965325
-1.05459
-1.12872
-1.19362
-1.25358
-1.47124
-1.73385
-1.9351
-2.10153
-2.27828
-2.6021
-2.79118
-2.85059
-2.84879
-2.75615
-2.61154
-2.43995
-2.20928
-2.07703
-2.08738
-2.06564
-0.00746612
-0.117648
-0.210801
-0.33937
-0.460276
-0.575695
-0.674912
-0.62449
-0.594264
-0.605272
-0.604922
-0.595502
-0.584299
-0.571625
-0.602834
-0.642166
-0.687038
-0.734623
-0.807115
-0.881393
-0.986634
-1.07256
-1.16092
-1.2375
-1.42098
-1.68629
-1.87233
-1.98408
-2.10533
-2.1863
-2.42184
-2.73134
-2.87235
-2.89254
-2.80566
-2.58994
-2.3348
-2.09752
-1.97724
-1.97004
-0.292321
-0.19769
-0.205335
-0.238109
-0.315858
-0.379357
-0.455007
-0.475464
-0.500659
-0.500337
-0.504165
-0.49003
-0.491448
-0.498923
-0.529489
-0.56116
-0.612951
-0.670116
-0.735161
-0.812559
-0.912633
-1.01462
-1.1163
-1.19268
-1.38786
-1.62878
-1.81988
-1.962
-2.0554
-2.10012
-2.139
-2.10351
-2.21349
-2.48823
-2.70226
-2.60977
-2.49885
-2.37649
-2.33149
-2.38525
-0.164697
-0.0869489
-0.0905112
-0.107445
-0.177075
-0.226902
-0.296351
-0.364126
-0.431461
-0.465706
-0.487908
-0.488991
-0.477767
-0.481587
-0.480473
-0.510764
-0.538548
-0.597612
-0.686053
-0.763675
-0.852299
-0.969859
-1.07068
-1.16524
-1.3313
-1.55278
-1.76599
-1.92851
-2.02611
-2.06184
-2.08557
-2.07895
-2.06291
-1.94779
-1.86158
-1.80407
-1.80537
-1.73858
-1.75117
-1.83352
-0.224971
-0.155559
-0.160999
-0.166966
-0.237351
-0.272064
-0.346794
-0.409285
-0.477182
-0.50547
-0.51927
-0.501191
-0.474798
-0.461478
-0.454325
-0.47401
-0.493689
-0.567563
-0.644015
-0.75664
-0.865309
-0.934707
-1.09653
-1.18082
-1.31691
-1.51447
-1.71237
-1.87861
-2.00621
-2.06909
-2.10768
-2.08707
-2.11709
-2.04545
-2.00313
-1.89448
-1.84895
-1.71467
-1.70824
-1.84981
-0.232098
-0.176031
-0.180408
-0.187465
-0.258238
-0.289538
-0.365143
-0.435134
-0.507665
-0.547603
-0.560024
-0.536352
-0.506441
-0.488237
-0.488443
-0.523555
-0.533391
-0.554122
-0.63187
-0.716194
-0.815646
-0.969575
-0.995132
-1.18122
-1.30587
-1.47584
-1.63489
-1.77721
-1.89508
-1.96141
-2.02914
-2.02605
-2.04775
-1.96501
-1.97481
-1.87926
-1.85605
-1.70138
-1.64344
-1.75532
-0.274691
-0.237457
-0.244089
-0.243547
-0.310117
-0.340248
-0.414595
-0.485355
-0.557658
-0.602037
-0.616899
-0.601138
-0.570047
-0.572527
-0.579206
-0.584734
-0.566587
-0.608007
-0.725357
-0.751077
-0.858658
-0.958516
-1.10028
-1.24189
-1.31775
-1.47344
-1.61822
-1.73546
-1.86584
-1.93686
-2.04097
-2.05008
-2.1328
-2.08393
-2.15865
-2.06446
-2.08402
-1.90132
-1.84705
-1.94554
-0.317772
-0.292186
-0.295925
-0.292604
-0.35258
-0.393899
-0.46379
-0.538829
-0.611539
-0.663981
-0.69105
-0.690962
-0.680306
-0.6991
-0.692981
-0.710086
-0.722279
-0.811802
-0.860713
-0.747873
-0.857
-0.974362
-1.06858
-1.23793
-1.34152
-1.49583
-1.57017
-1.68016
-1.77453
-1.82077
-1.90235
-1.8912
-1.96242
-1.88538
-1.95909
-1.83941
-1.88109
-1.71644
-1.70829
-1.78627
-0.367199
-0.340828
-0.361226
-0.360421
-0.414048
-0.453013
-0.52795
-0.594119
-0.668032
-0.729015
-0.773036
-0.802633
-0.820906
-0.851035
-0.859063
-0.907885
-0.941081
-0.971473
-0.982943
-0.757731
-0.888274
-0.955825
-1.12565
-1.25294
-1.38232
-1.4833
-1.67392
-1.67377
-1.81962
-1.86762
-2.02533
-2.03756
-2.18713
-2.11791
-2.25204
-2.10549
-2.16802
-1.96955
-1.92258
-1.85399
-0.440432
-0.410318
-0.419593
-0.432132
-0.483442
-0.534522
-0.603727
-0.677021
-0.757549
-0.826801
-0.885602
-0.934054
-0.968829
-1.01492
-1.03599
-1.08175
-1.08742
-1.07808
-1.08377
-0.802301
-0.935468
-1.01054
-1.11315
-1.27006
-1.37773
-1.51027
-1.6152
-1.74955
-1.81737
-1.92138
-2.05127
-2.04687
-2.17797
-2.09267
-2.2504
-2.10913
-2.24458
-2.06506
-2.08338
-2.0898
-0.482277
-0.457142
-0.451156
-0.471728
-0.521732
-0.569748
-0.643016
-0.728261
-0.815279
-0.896625
-0.971683
-1.03863
-1.08504
-1.13617
-1.15219
-1.19399
-1.20522
-1.15436
-1.17708
-0.824027
-0.967322
-0.997829
-1.10755
-1.25065
-1.36206
-1.47166
-1.62993
-1.75439
-1.85406
-1.93383
-2.07737
-2.02212
-2.17399
-2.01748
-2.21428
-1.99575
-2.1712
-1.89345
-1.94418
-1.81379
-0.558651
-0.540837
-0.531209
-0.53878
-0.605658
-0.653727
-0.733022
-0.807187
-0.901575
-0.990222
-1.06818
-1.14043
-1.18549
-1.23568
-1.25242
-1.2766
-1.306
-1.2378
-1.29028
-0.874969
-1.00878
-1.04639
-1.10511
-1.21931
-1.31212
-1.37211
-1.58182
-1.76029
-1.89045
-1.8859
-2.00173
-1.91403
-2.09137
-1.90293
-2.10525
-1.8456
-2.0248
-1.66898
-1.71257
-1.48448
-0.577127
-0.554067
-0.54688
-0.52159
-0.611827
-0.647683
-0.742294
-0.820547
-0.901992
-0.992303
-1.0845
-1.16226
-1.2163
-1.26468
-1.28474
-1.29927
-1.335
-1.25376
-1.3125
-0.907396
-0.999136
-1.01555
-1.0734
-1.15955
-1.25038
-1.25164
-1.76416
-1.73827
-1.95707
-1.84396
-2.05389
-1.8892
-2.09557
-1.84105
-2.14545
-1.75249
-2.03915
-1.55591
-1.55892
-1.26522
-0.673541
-0.658783
-0.653159
-0.621748
-0.69296
-0.752531
-0.838007
-0.914222
-0.995195
-1.07376
-1.15188
-1.23534
-1.29112
-1.34826
-1.37768
-1.37617
-1.43858
-1.33418
-1.47027
-0.984616
-1.0054
-1.0038
-1.06581
-1.11028
-1.20942
-1.1728
-1.88695
-1.73691
-1.98458
-1.82692
-2.02164
-1.85143
-2.09526
-1.76232
-2.05838
-1.67839
-1.96639
-1.44322
-1.41855
-1.01389
-0.645307
-0.622993
-0.627346
-0.567477
-0.613918
-0.688035
-0.77769
-0.84416
-0.943836
-1.02165
-1.11393
-1.19351
-1.26686
-1.32112
-1.38542
-1.37654
-1.49088
-1.29785
-1.50704
-0.989104
-1.01728
-0.936684
-1.00134
-1.0246
-1.15086
-1.0649
-1.95457
-1.75391
-2.01047
-1.81205
-2.03912
-1.79615
-2.09726
-1.72098
-2.09693
-1.4904
-1.99526
-1.28212
-1.3486
-0.734404
-0.769648
-0.771859
-0.742781
-0.732364
-0.700295
-0.803486
-0.87987
-0.941941
-1.03453
-1.11045
-1.20016
-1.28413
-1.3637
-1.43357
-1.50909
-1.49281
-1.60406
-1.44296
-1.61374
-1.07986
-0.996553
-0.900632
-0.957908
-0.949955
-1.11196
-0.955709
-2.00717
-1.74119
-2.12045
-1.79941
-2.11715
-1.73302
-2.15299
-1.64571
-2.12782
-1.5042
-1.91398
-1.23665
-1.2813
-0.41575
-0.676624
-0.654574
-0.67133
-0.59146
-0.601932
-0.606518
-0.749085
-0.78422
-0.895381
-0.981585
-1.09684
-1.19106
-1.3101
-1.35704
-1.49053
-1.48688
-1.66998
-1.43952
-1.66642
-1.06433
-0.910155
-0.782612
-0.840452
-0.800161
-1.00978
-0.812009
-1.97487
-1.74511
-2.19471
-1.831
-2.14449
-1.69177
-2.12927
-1.51114
-2.08591
-1.28996
-1.96561
-0.836027
-1.10465
0.195675
-0.837773
-0.857786
-0.828725
-0.823779
-0.750099
-0.728409
-0.87019
-0.882188
-0.986554
-1.06113
-1.17786
-1.28773
-1.37516
-1.45989
-1.58866
-1.50474
-1.78415
-1.5557
-1.77432
-1.14959
-0.893845
-0.719062
-0.764447
-0.6763
-0.913619
-0.700978
-1.95949
-1.75708
-2.31157
-1.86125
-2.26169
-1.70218
-2.23248
-1.49893
-2.1358
-1.28636
-1.94516
-0.899532
-0.782413
0.889827
-0.705705
-0.654592
-0.71719
-0.563635
-0.663223
-0.432075
-0.675909
-0.646846
-0.79085
-0.863537
-1.01912
-1.11894
-1.2833
-1.38222
-1.60216
-1.54871
-1.84039
-1.56704
-1.79072
-1.08521
-0.75082
-0.504708
-0.559885
-0.434406
-0.74552
-0.56171
-1.89042
-1.76404
-2.38063
-1.89228
-2.36506
-1.63193
-2.23747
-1.32486
-2.06276
-0.941203
-1.68246
-0.175721
-0.330491
2.62171
-0.874675
-0.977172
-0.881425
-0.885807
-0.799427
-0.683854
-0.772232
-0.759653
-0.866726
-0.94124
-1.06136
-1.19901
-1.3407
-1.46285
-1.61327
-1.66616
-1.91412
-1.75794
-1.88959
-1.17883
-0.780185
-0.387208
-0.415062
-0.231083
-0.584976
-0.466185
-1.8481
-1.78396
-2.48959
-1.96077
-2.51064
-1.70281
-2.37282
-1.378
-2.21828
-1.00098
-1.7496
0.10481
0.275322
4.48131
-1.10217
-0.68783
-0.836641
-0.495289
-0.591286
-0.352764
-0.51618
-0.478195
-0.632825
-0.707405
-0.883959
-1.01967
-1.21304
-1.36817
-1.59669
-1.6926
-1.98041
-1.81426
-1.91346
-1.09325
-0.598563
-0.11951
-0.131668
0.0487734
-0.345157
-0.360349
-1.78884
-1.81768
-2.62329
-1.98646
-2.57056
-1.62553
-2.30432
-1.20702
-2.03081
-0.567504
-1.08681
1.44637
2.85418
9.87521
-0.773608
-1.223
-1.1032
-1.07991
-0.804255
-0.558837
-0.599799
-0.55513
-0.650841
-0.720874
-0.859251
-1.01963
-1.21276
-1.37496
-1.62738
-1.71538
-2.09941
-2.00335
-2.01213
-1.19455
-0.631897
0.0221317
0.100384
0.293901
-0.153018
-0.272419
-1.74416
-1.79819
-2.66713
-2.07316
-2.64192