/*--------------------------------*- C++ -*----------------------------------*\
| =========                 |                                                 |
| \\      /  F ield         | OpenFOAM: The Open Source CFD Toolbox           |
|  \\    /   O peration     | Version:  v1806                                 |
|   \\  /    A nd           | Web:      www.OpenFOAM.com                      |
|    \\/     M anipulation  |                                                 |
\*---------------------------------------------------------------------------*/
FoamFile
{
    version     2.0;
    format      ascii;
    class       volVectorField;
    location    "0.046";
    object      U;
}
// * * * * * * * * * * * * * * * * * * * * * * * * * * * * * * * * * * * * * //

dimensions      [0 1 -1 0 0 0 0];


internalField   nonuniform List<vector> 
64000
(
(-0.00700788 -0.0080388 -0.00395534)
(0.0144297 -0.00870487 -0.00172137)
(0.0252693 -0.00452698 0.00187845)
(0.0265699 -0.00410869 0.00180947)
(0.0232534 -0.00314398 0.0028226)
(0.0224593 -0.00303742 0.00375329)
(0.0210996 -0.00363603 0.00371871)
(0.0174564 -0.00404434 0.00379256)
(0.0153518 -0.00518142 0.00497057)
(0.00883639 -0.00422911 0.00446113)
(0.00185723 -0.00626131 0.00608051)
(-0.0136535 -0.00895124 0.00679998)
(-0.0346421 -0.0134094 0.00681403)
(-0.0600087 -0.017769 0.00443974)
(-0.0940069 -0.0173133 0.00536965)
(-0.128369 -0.0116307 0.00353958)
(-0.16623 0.00257898 0.00284449)
(-0.204768 -0.00306018 0.000872201)
(-0.222574 -0.0103018 0.00568907)
(-0.266841 -0.0283592 -0.0147539)
(-0.242943 -0.0288697 -0.0314228)
(-0.119376 -0.0265855 -0.0395127)
(-0.0928526 -0.015214 -0.0305341)
(-0.0941046 -0.00587056 -0.0370812)
(-0.0944428 0.00068635 -0.0486467)
(-0.0963545 0.0101337 -0.0566667)
(-0.0782208 0.0195159 -0.0621047)
(-0.0504468 0.0316174 -0.0564513)
(-0.0173284 0.0383305 -0.0505128)
(0.0252155 0.0541063 -0.0310647)
(0.0747075 0.0428866 -0.0311193)
(0.106308 0.0356861 -0.0216778)
(0.120939 0.0249101 -0.0100293)
(0.116351 0.0106451 -0.00310682)
(0.100875 0.00301207 0.00282116)
(0.0794966 -0.00534657 0.00518161)
(0.0566058 -0.0079613 0.00756851)
(0.0341492 -0.00665743 0.00837424)
(0.0176571 -0.00491281 0.00847112)
(0.00304925 -0.00340505 0.00658075)
(-0.00504414 -0.00396386 -0.00144027)
(0.0120171 -0.0172801 -0.00116799)
(0.0325125 -0.0145914 0.000372893)
(0.0400222 -0.0102735 -0.000699992)
(0.0403784 -0.00488079 0.000503317)
(0.0392314 -0.00167462 -0.000626035)
(0.0365913 0.00281199 -0.00239012)
(0.0288675 0.00504401 -0.00210288)
(0.0217517 0.0104595 -0.00709482)
(0.00413785 0.017025 -0.00412461)
(-0.0211669 0.0241861 -0.00796707)
(-0.0594472 0.0324905 0.000167097)
(-0.108084 0.0447427 -0.00405494)
(-0.159945 0.0674626 -0.00662656)
(-0.220043 0.0785398 -0.0101838)
(-0.280471 0.0868878 -0.0188808)
(-0.372574 0.0928252 -0.0422602)
(-0.471854 0.0962252 -0.0569958)
(-0.537575 0.101166 -0.0749107)
(-0.606255 0.099006 -0.0990472)
(-0.57646 0.1201 -0.109614)
(-0.431832 0.138032 -0.128014)
(-0.386344 0.178145 -0.14312)
(-0.374828 0.209326 -0.149296)
(-0.348056 0.233801 -0.160236)
(-0.316794 0.257389 -0.165761)
(-0.258718 0.276587 -0.16726)
(-0.193177 0.293472 -0.155841)
(-0.113493 0.299813 -0.134978)
(-0.0471716 0.308323 -0.110278)
(0.0204341 0.288611 -0.0743393)
(0.0871735 0.258718 -0.0477965)
(0.120224 0.205632 -0.0385642)
(0.132819 0.15833 -0.0272788)
(0.126274 0.107647 -0.0131755)
(0.105247 0.0672675 -0.00542172)
(0.0838068 0.0393544 -0.000947366)
(0.0572507 0.0246334 0.000365859)
(0.0336603 0.0148908 0.00209528)
(0.00906853 0.00611796 0.0036657)
(-0.000182355 -0.0122948 0.00186876)
(0.0167802 -0.0247193 -0.00050137)
(0.0397262 -0.0204633 -0.00072272)
(0.0495935 -0.00936943 -0.000759532)
(0.0469005 0.00410025 -0.0031028)
(0.0431262 0.0157242 -0.00488521)
(0.0346262 0.0314091 -0.00661536)
(0.0199639 0.0453221 -0.00874969)
(0.00393691 0.0691613 -0.00165279)
(-0.0264945 0.0912071 -0.00462796)
(-0.0654241 0.120299 -0.00833802)
(-0.118016 0.154294 -0.0129573)
(-0.173787 0.185484 -0.0168063)
(-0.256244 0.208948 -0.0312539)
(-0.361721 0.226685 -0.0334194)
(-0.456903 0.239331 -0.0426669)
(-0.550278 0.245842 -0.0577531)
(-0.632141 0.268683 -0.0740188)
(-0.690774 0.296304 -0.0918577)
(-0.74414 0.328597 -0.113644)
(-0.700852 0.366182 -0.116596)
(-0.531831 0.39367 -0.12272)
(-0.461462 0.447008 -0.12995)
(-0.43974 0.484389 -0.123878)
(-0.404405 0.514566 -0.125394)
(-0.369232 0.538252 -0.122732)
(-0.311068 0.550663 -0.11849)
(-0.2499 0.554498 -0.105064)
(-0.179126 0.544524 -0.0839708)
(-0.116437 0.524908 -0.0606756)
(-0.0598547 0.499477 -0.0396164)
(-0.0202067 0.451138 -0.0276604)
(0.0152135 0.379732 -0.0130219)
(0.0408238 0.306316 -0.00763586)
(0.0472739 0.229064 -0.0106759)
(0.0516317 0.162911 -0.0103634)
(0.0500102 0.113048 -0.0068226)
(0.0399674 0.0752037 -0.00439377)
(0.0278192 0.048969 -0.000566101)
(0.00884668 0.021357 0.00272338)
(0.000448878 -0.0185147 0.00191578)
(0.019202 -0.0289224 -0.00241343)
(0.0447894 -0.0168044 -0.00175552)
(0.0547375 0.00119282 -0.00573616)
(0.0490404 0.0269822 -0.00603964)
(0.0407221 0.055201 -0.00731946)
(0.0261489 0.0903876 -0.00750687)
(0.00651252 0.125423 -0.00434581)
(-0.0186943 0.17123 -0.00952076)
(-0.0623005 0.211407 -0.0117919)
(-0.110085 0.249394 -0.0159877)
(-0.181379 0.276461 -0.0227103)
(-0.273479 0.303353 -0.0256356)
(-0.364044 0.31799 -0.0279522)
(-0.450262 0.342713 -0.0294736)
(-0.529142 0.370793 -0.0378231)
(-0.60797 0.401144 -0.0498478)
(-0.676683 0.432968 -0.0575828)
(-0.719633 0.46938 -0.0661164)
(-0.756993 0.510723 -0.0743606)
(-0.701371 0.54438 -0.0601061)
(-0.512714 0.563788 -0.0474822)
(-0.427908 0.602464 -0.0463154)
(-0.407454 0.618751 -0.0305031)
(-0.37513 0.628547 -0.025963)
(-0.349491 0.631693 -0.0196189)
(-0.304241 0.622142 -0.0163245)
(-0.259952 0.604032 -0.00969295)
(-0.207438 0.578809 0.00141564)
(-0.162459 0.546085 0.00878602)
(-0.128367 0.508319 0.0143719)
(-0.104926 0.464806 0.013718)
(-0.0861904 0.416997 0.00876457)
(-0.0625177 0.352115 0.0010291)
(-0.0415393 0.276847 -0.00342602)
(-0.0184244 0.203068 -0.00909681)
(0.00106285 0.145591 -0.00987432)
(0.0105161 0.108395 -0.00698603)
(0.0178081 0.0741053 -0.00282797)
(0.00737612 0.0319517 0.00227479)
(0.00161732 -0.0203588 0.000890626)
(0.0250547 -0.0219003 -0.00477756)
(0.0534288 -0.00282564 -0.00374432)
(0.0643065 0.029548 -0.00545679)
(0.0597798 0.072304 -0.00555117)
(0.0507367 0.121707 -0.0141846)
(0.0300581 0.183603 -0.0112588)
(0.0029819 0.235217 -0.00431794)
(-0.0327324 0.28144 -0.00688966)
(-0.094501 0.314902 -0.00903609)
(-0.165879 0.343793 -0.0122529)
(-0.24015 0.363661 -0.0144242)
(-0.309186 0.391965 -0.0171364)
(-0.384096 0.424251 -0.0202926)
(-0.459433 0.459239 -0.0177845)
(-0.526253 0.491798 -0.0202132)
(-0.588883 0.525879 -0.0208431)
(-0.637124 0.560503 -0.0169278)
(-0.661276 0.598667 -0.0150347)
(-0.687623 0.639751 -0.0228871)
(-0.632409 0.667918 -0.00702223)
(-0.43879 0.677997 0.0131713)
(-0.35082 0.688267 0.019958)
(-0.338396 0.675236 0.0363761)
(-0.318461 0.654153 0.0384271)
(-0.311275 0.631195 0.0455122)
(-0.287927 0.597607 0.0463077)
(-0.261541 0.561988 0.0497762)
(-0.230129 0.521629 0.0436679)
(-0.20617 0.482046 0.036584)
(-0.184283 0.438684 0.027189)
(-0.171002 0.402081 0.0196488)
(-0.162987 0.368779 0.0122934)
(-0.159198 0.336108 0.00103352)
(-0.147274 0.279049 -0.010881)
(-0.106815 0.204883 -0.0118998)
(-0.0526279 0.157893 -0.0121696)
(-0.016798 0.126631 -0.0105318)
(0.00301012 0.0917725 -0.0048274)
(0.00450909 0.0397115 0.00232912)
(0.00526475 -0.0197917 0.00082637)
(0.0319903 -0.0111454 -0.00409492)
(0.0661918 0.0155245 -0.00438781)
(0.0842069 0.0625305 -0.00777756)
(0.0806592 0.114491 -0.0102111)
(0.074762 0.181166 -0.0187404)
(0.0444968 0.244735 -0.0122546)
(-0.0083623 0.289565 0.000319199)
(-0.0650922 0.328505 -0.00423198)
(-0.131759 0.363738 -0.00585283)
(-0.189702 0.400109 -0.00810532)
(-0.249476 0.438976 -0.00830848)
(-0.309025 0.476221 -0.00652371)
(-0.366226 0.507458 -0.00296382)
(-0.421912 0.540586 0.00380507)
(-0.468786 0.571929 0.00888716)
(-0.512802 0.605251 0.00639879)
(-0.548126 0.639509 0.0108074)
(-0.563019 0.681735 0.0110995)
(-0.581332 0.713262 0.00873409)
(-0.5243 0.73829 0.0255374)
(-0.344432 0.695076 0.0465493)
(-0.273546 0.669359 0.0523921)
(-0.280947 0.627699 0.0700402)
(-0.2785 0.58147 0.0745135)
(-0.288517 0.542213 0.0764373)
(-0.282752 0.497837 0.0734415)
(-0.276553 0.457124 0.0691017)
(-0.260858 0.410492 0.0661794)
(-0.250697 0.372208 0.0479215)
(-0.242236 0.331069 0.0372561)
(-0.230656 0.298985 0.0242201)
(-0.219542 0.273889 0.0113248)
(-0.219344 0.255118 0.00303162)
(-0.228124 0.23323 -0.0119041)
(-0.175518 0.190158 -0.0123558)
(-0.0907781 0.158259 -0.0140087)
(-0.0393478 0.132084 -0.0113552)
(-0.00377982 0.0995006 -0.00617931)
(0.00363172 0.0422356 0.00253083)
(0.00808824 -0.0171966 5.56487e-05)
(0.0401295 0.00118655 -0.00844266)
(0.0832236 0.0382394 -0.00919546)
(0.104265 0.090985 -0.00839226)
(0.105096 0.144491 -0.00968513)
(0.0935118 0.218425 -0.0118234)
(0.0398986 0.254794 -0.000294191)
(-0.0178155 0.30137 0.00372705)
(-0.0616536 0.349383 -0.000223379)
(-0.116089 0.401084 -0.00173144)
(-0.166106 0.450265 -0.00229205)
(-0.214954 0.494216 -0.000457079)
(-0.261881 0.532393 0.00176234)
(-0.308193 0.568388 0.00864204)
(-0.3497 0.600994 0.0132463)
(-0.383926 0.630412 0.0200989)
(-0.413626 0.654257 0.0256109)
(-0.427189 0.677796 0.0294749)
(-0.436287 0.705507 0.0239835)
(-0.455083 0.721095 0.0185241)
(-0.453572 0.736102 0.0253613)
(-0.316151 0.653233 0.0480032)
(-0.230079 0.577386 0.0504537)
(-0.248921 0.529478 0.0649049)
(-0.257748 0.479471 0.0676224)
(-0.281231 0.443958 0.0684009)
(-0.292478 0.406123 0.0645787)
(-0.301834 0.371495 0.0595047)
(-0.299572 0.334483 0.0484027)
(-0.300112 0.300382 0.0357907)
(-0.297926 0.268083 0.0226064)
(-0.288004 0.241063 0.0121656)
(-0.278463 0.221769 0.00122091)
(-0.273133 0.208135 -0.00423665)
(-0.275345 0.209829 -0.0141538)
(-0.224425 0.193591 -0.0194711)
(-0.127242 0.164024 -0.0206065)
(-0.0561221 0.143575 -0.0163836)
(-0.00992571 0.10828 -0.00923181)
(0.00386374 0.0463467 0.00111085)
(0.00891667 -0.00831261 2.90747e-05)
(0.0469567 0.0222636 -0.0129899)
(0.0992795 0.0703356 -0.0139111)
(0.12332 0.123284 -0.00977234)
(0.130516 0.182639 -0.0118542)
(0.100263 0.242121 -0.00829465)
(0.0405009 0.27546 0.00183437)
(0.00406169 0.333351 0.00593593)
(-0.0348152 0.380846 0.00270065)
(-0.0810326 0.434862 0.00394567)
(-0.121889 0.478475 0.00566255)
(-0.163293 0.515698 0.0109261)
(-0.198003 0.547998 0.0176069)
(-0.227783 0.576639 0.0226934)
(-0.258588 0.600562 0.0274865)
(-0.285103 0.618177 0.0318658)
(-0.309871 0.630194 0.0341901)
(-0.323387 0.638362 0.0353222)
(-0.337875 0.636079 0.0279417)
(-0.360443 0.626659 0.019125)
(-0.396537 0.619064 0.0144696)
(-0.323546 0.573149 0.031451)
(-0.23342 0.462001 0.0321775)
(-0.237741 0.426664 0.0420769)
(-0.256829 0.385251 0.0470743)
(-0.286877 0.359993 0.0492959)
(-0.309792 0.332409 0.0495961)
(-0.329206 0.304368 0.0453731)
(-0.336938 0.27463 0.037816)
(-0.344503 0.243466 0.0179319)
(-0.347255 0.211937 0.0120698)
(-0.337968 0.187108 0.00264384)
(-0.324945 0.172179 -0.00412359)
(-0.308588 0.167397 -0.008468)
(-0.313203 0.182986 -0.0170528)
(-0.271529 0.195164 -0.0203917)
(-0.160969 0.170353 -0.0220049)
(-0.0735965 0.152176 -0.017867)
(-0.01468 0.116275 -0.00984598)
(0.00503051 0.0493811 0.00147943)
(0.00761933 0.00301883 -0.00443317)
(0.0545467 0.0526941 -0.0196375)
(0.117381 0.107739 -0.0186521)
(0.147349 0.161757 -0.0131951)
(0.150658 0.219332 -0.0143978)
(0.113263 0.259291 -0.00680282)
(0.0639738 0.30974 -0.000157222)
(0.0318546 0.364887 0.00644674)
(0.00394301 0.404721 0.012839)
(-0.0298024 0.446068 0.0123645)
(-0.0695053 0.482889 0.0165789)
(-0.0991046 0.510479 0.0220551)
(-0.12391 0.532493 0.0284355)
(-0.148841 0.544344 0.0324615)
(-0.173809 0.548693 0.03406)
(-0.197469 0.547041 0.035053)
(-0.221688 0.539561 0.0342866)
(-0.244461 0.533863 0.0317705)
(-0.275296 0.522227 0.0237726)
(-0.307256 0.506029 0.0135101)
(-0.352168 0.487915 0.00388194)
(-0.34146 0.478079 0.00929677)
(-0.266143 0.386454 0.0174122)
(-0.24006 0.348631 0.0190088)
(-0.264536 0.322803 0.0259953)
(-0.296739 0.303215 0.0309714)
(-0.329105 0.284152 0.0345923)
(-0.356166 0.257415 0.0349885)
(-0.372569 0.231632 0.0227468)
(-0.388531 0.196718 0.0107638)
(-0.392624 0.171547 0.000863812)
(-0.380652 0.148769 -0.00418414)
(-0.365163 0.134294 -0.0106821)
(-0.339564 0.137337 -0.0165375)
(-0.324042 0.146097 -0.0197568)
(-0.296552 0.186512 -0.0260825)
(-0.197285 0.172502 -0.0259311)
(-0.0900243 0.161066 -0.0239897)
(-0.0200196 0.125889 -0.012879)
(0.00548693 0.0548806 -0.000317242)
(0.00819427 0.0199686 -0.00846997)
(0.0609896 0.0931308 -0.027587)
(0.134036 0.152845 -0.0272161)
(0.168726 0.204483 -0.0165045)
(0.165573 0.248653 -0.014362)
(0.134275 0.285084 -0.0093414)
(0.100776 0.337991 -0.00246862)
(0.0706901 0.384039 0.0130328)
(0.0391902 0.421384 0.0181813)
(0.0155328 0.448032 0.027137)
(-0.0101224 0.468671 0.025881)
(-0.0384167 0.482499 0.0339164)
(-0.0614375 0.48816 0.0387467)
(-0.0834772 0.480887 0.0413803)
(-0.108324 0.46611 0.0389016)
(-0.134624 0.445622 0.0351864)
(-0.16083 0.420536 0.0305001)
(-0.185727 0.405393 0.0244695)
(-0.224602 0.388712 0.0150929)
(-0.271691 0.382549 0.00696426)
(-0.320296 0.379223 -0.00140683)
(-0.343007 0.38892 -0.00235118)
(-0.299601 0.354159 0.00616361)
(-0.254622 0.307032 0.00523699)
(-0.268614 0.28221 0.0118223)
(-0.30244 0.266833 0.0199239)
(-0.339971 0.244547 0.0265807)
(-0.373562 0.223472 0.0281254)
(-0.397237 0.190977 0.0218411)
(-0.412822 0.162266 0.00889903)
(-0.417247 0.133025 0.0114714)
(-0.414399 0.111772 0.0177524)
(-0.394858 0.0922286 0.0160379)
(-0.372635 0.0933627 0.00896848)
(-0.347628 0.107518 -0.0111709)
(-0.317215 0.151311 -0.0231806)
(-0.225151 0.1712 -0.0237761)
(-0.106206 0.160299 -0.0217387)
(-0.0251854 0.134037 -0.0123633)
(0.00667436 0.0583513 0.000562177)
(0.008672 0.0383803 -0.0111607)
(0.068496 0.133898 -0.0335955)
(0.149197 0.19802 -0.0318827)
(0.183813 0.239865 -0.017369)
(0.182565 0.2758 -0.013438)
(0.164698 0.313217 -0.0109547)
(0.139236 0.356829 -0.00125489)
(0.110127 0.392038 0.00694632)
(0.0854351 0.421344 0.0146272)
(0.0585451 0.441246 0.0296273)
(0.031347 0.447849 0.0378959)
(0.0140414 0.447599 0.0463925)
(-0.00748207 0.434518 0.0474693)
(-0.0348317 0.412027 0.0474824)
(-0.0627874 0.386394 0.0405506)
(-0.0948974 0.356288 0.0316795)
(-0.121908 0.324829 0.0238679)
(-0.152119 0.307464 0.0128997)
(-0.193053 0.285471 0.00686928)
(-0.231804 0.285984 0.00364352)
(-0.278835 0.305537 -0.0010591)
(-0.314707 0.331626 -0.00284297)
(-0.306534 0.337235 0.000914471)
(-0.274907 0.298214 0.000815528)
(-0.27044 0.258041 0.00368305)
(-0.301339 0.237473 0.0123952)
(-0.340686 0.214106 0.018874)
(-0.37936 0.189291 0.0224274)
(-0.407544 0.160209 0.0142606)
(-0.428737 0.12761 0.0291552)
(-0.441642 0.0925877 0.0306466)
(-0.443225 0.0631412 0.0196217)
(-0.431259 0.0504811 0.0139627)
(-0.398057 0.0459499 0.0087731)
(-0.357871 0.0625413 0.00110194)
(-0.323015 0.100936 -0.0189843)
(-0.246361 0.150014 -0.0279344)
(-0.12549 0.157143 -0.0230212)
(-0.0279822 0.137722 -0.0149946)
(0.00479793 0.0623981 -0.000567146)
(0.00902786 0.0608181 -0.0121092)
(0.0728308 0.177944 -0.037677)
(0.156383 0.242348 -0.0353169)
(0.195954 0.275772 -0.0188921)
(0.20503 0.30717 -0.0109191)
(0.194779 0.338396 -0.00556005)
(0.174915 0.369805 -0.00490537)
(0.149108 0.393476 0.0097201)
(0.123536 0.411864 0.0132648)
(0.10055 0.420554 0.0260884)
(0.0784894 0.422741 0.0354985)
(0.0519774 0.411883 0.0520544)
(0.0253102 0.386682 0.0538241)
(0.00315329 0.353099 0.0533469)
(-0.0271029 0.320986 0.0392018)
(-0.0658896 0.289401 0.0262303)
(-0.0944174 0.260979 0.0157449)
(-0.128113 0.243594 0.00219166)
(-0.167249 0.225131 -0.00113411)
(-0.188977 0.232832 0.000117315)
(-0.222672 0.257847 0.00138517)
(-0.26497 0.296954 0.000596519)
(-0.287328 0.313178 0.00150786)
(-0.284436 0.290769 0.000102554)
(-0.276333 0.242298 -0.000299008)
(-0.289761 0.204896 0.00542226)
(-0.328684 0.179297 0.0120791)
(-0.367039 0.152794 0.0117591)
(-0.401243 0.124296 0.0317899)
(-0.432272 0.0881214 0.0416335)
(-0.45179 0.0535239 0.0415628)
(-0.452517 0.026996 0.0525743)
(-0.444033 0.00260778 0.0417901)
(-0.430026 -0.00221244 0.0328985)
(-0.393577 0.00882305 0.0246878)
(-0.342003 0.0521943 0.00265505)
(-0.25565 0.105766 -0.024285)
(-0.138066 0.146088 -0.0243947)
(-0.0337482 0.135116 -0.0140788)
(0.00626504 0.0659137 -0.000827937)
(0.00797045 0.0742805 -0.0128981)
(0.0726748 0.211677 -0.0413635)
(0.159311 0.279383 -0.0400576)
(0.206814 0.309204 -0.0214184)
(0.225709 0.332027 -0.00784019)
(0.222441 0.352528 2.70898e-05)
(0.204744 0.375309 0.00427115)
(0.180533 0.387838 0.00629927)
(0.16088 0.398385 0.0143876)
(0.13929 0.400524 0.0259389)
(0.113891 0.392475 0.0339492)
(0.0880945 0.374887 0.0411877)
(0.0568543 0.347145 0.0516864)
(0.0267198 0.312818 0.0514094)
(-0.00271546 0.270958 0.0373671)
(-0.0420081 0.244061 0.0195322)
(-0.072169 0.221475 0.00865394)
(-0.108523 0.203633 -0.0057318)
(-0.137848 0.19593 -0.0043813)
(-0.141492 0.209823 -0.000931466)
(-0.159012 0.223953 0.00389231)
(-0.201712 0.24727 0.00392079)
(-0.249696 0.27069 0.00508164)
(-0.275087 0.263262 0.00302859)
(-0.278829 0.224101 0.00157502)
(-0.280345 0.168953 0.00315706)
(-0.303302 0.137276 0.00776506)
(-0.342447 0.11192 0.0188654)
(-0.382104 0.0787624 0.0331294)
(-0.418654 0.0476705 0.0408914)
(-0.43947 0.0145468 0.0628472)
(-0.462916 -0.0243963 0.0464828)
(-0.47084 -0.0670625 0.0359179)
(-0.451039 -0.0889179 0.0176581)
(-0.410766 -0.0763934 0.00329056)
(-0.363252 -0.0268416 0.0122387)
(-0.277275 0.0561527 -0.00324241)
(-0.150042 0.11413 -0.0311253)
(-0.0388032 0.127775 -0.0143885)
(0.00695817 0.0654912 -0.00253929)
(0.00700155 0.0892043 -0.0118254)
(0.0722863 0.244679 -0.0439593)
(0.161415 0.316707 -0.0450413)
(0.214838 0.342868 -0.0251068)
(0.241962 0.356383 -0.00617433)
(0.246792 0.364356 0.00597491)
(0.232748 0.374483 0.0108163)
(0.210919 0.382384 0.0150897)
(0.193511 0.38711 0.0168563)
(0.171815 0.381196 0.0209221)
(0.149187 0.366539 0.022791)
(0.11815 0.34262 0.034633)
(0.0832861 0.311004 0.0347051)
(0.0465115 0.278839 0.038901)
(0.0156473 0.244708 0.0305674)
(-0.0166418 0.212822 0.0118412)
(-0.0511662 0.199819 0.00106104)
(-0.0819067 0.17988 -0.00942425)
(-0.0961372 0.190521 -0.00484965)
(-0.0965173 0.196274 -0.00179177)
(-0.11696 0.194805 0.00621707)
(-0.144211 0.195027 0.0138187)
(-0.189784 0.208499 0.0127575)
(-0.240846 0.219822 0.00700484)
(-0.272134 0.198251 0.00330538)
(-0.269783 0.152063 0.00192842)
(-0.271615 0.102778 0.00464547)
(-0.306071 0.07515 0.0196744)
(-0.345462 0.0401945 0.0305374)
(-0.381128 0.00939246 0.0528107)
(-0.42612 -0.0346057 0.0411834)
(-0.466744 -0.0905135 0.0358321)
(-0.483897 -0.135228 0.0241108)
(-0.472995 -0.168386 0.0134731)
(-0.431846 -0.171943 -0.00249558)
(-0.366199 -0.129711 -0.00722385)
(-0.283594 -0.0275942 0.00104058)
(-0.169197 0.0734934 -0.0168489)
(-0.0432782 0.116485 -0.0186934)
(0.00662645 0.0680799 -0.00190794)
(0.00390734 0.0841955 -0.0128088)
(0.0669813 0.257559 -0.0452671)
(0.15846 0.33499 -0.0471283)
(0.218844 0.359747 -0.0266935)
(0.25268 0.365888 -0.0062094)
(0.261545 0.364373 0.00777088)
(0.255845 0.366602 0.0151593)
(0.239817 0.369444 0.0181328)
(0.222265 0.368335 0.0203034)
(0.199559 0.359227 0.0213617)
(0.173471 0.343742 0.0209705)
(0.142977 0.317216 0.018309)
(0.108203 0.285888 0.0159316)
(0.0725617 0.25146 0.0169448)
(0.0336362 0.223423 0.0174027)
(0.00287457 0.196669 0.00430753)
(-0.0263446 0.187845 -0.00691576)
(-0.0459611 0.185132 -0.00718361)
(-0.0508219 0.194034 -0.00453493)
(-0.0623971 0.19021 0.000909792)
(-0.0794432 0.178091 0.0109383)
(-0.101179 0.169213 0.017062)
(-0.130773 0.160262 0.0217874)
(-0.183976 0.167254 0.0126321)
(-0.236353 0.164215 0.00662931)
(-0.256779 0.138593 0.00861789)
(-0.251853 0.0802421 0.0117991)
(-0.268187 0.041526 0.0226392)
(-0.304117 0.00814716 0.0393447)
(-0.34909 -0.0344895 0.0343146)
(-0.403103 -0.0898266 0.0342223)
(-0.447257 -0.144626 0.0262784)
(-0.475235 -0.20027 0.016648)
(-0.477919 -0.242709 0.0030612)
(-0.444506 -0.262563 -0.0114588)
(-0.378735 -0.22962 -0.0183163)
(-0.284433 -0.142226 -0.0200411)
(-0.17003 0.00529628 -3.32621e-05)
(-0.0510285 0.0872615 -0.0274314)
(0.00629394 0.0645002 -0.00418244)
(0.00498259 0.093534 -0.00521868)
(0.0665737 0.277039 -0.0409889)
(0.156833 0.358254 -0.0437894)
(0.221801 0.379424 -0.0242279)
(0.261824 0.377318 -0.0012533)
(0.28075 0.369534 0.0102522)
(0.281512 0.366504 0.0154876)
(0.266569 0.362021 0.0172596)
(0.250437 0.35617 0.0166453)
(0.229923 0.341216 0.0149247)
(0.204408 0.319586 0.0112275)
(0.167648 0.289804 0.00813186)
(0.127877 0.258654 0.00466955)
(0.0898907 0.234455 0.00135221)
(0.0575039 0.221446 0.00365194)
(0.033873 0.219119 -0.00419749)
(0.0154366 0.215646 -0.00615839)
(-0.000500603 0.222299 -0.00392818)
(-0.0137816 0.217603 0.00180947)
(-0.0301752 0.199737 0.00620101)
(-0.0502635 0.181106 0.0133858)
(-0.0695187 0.160341 0.0166524)
(-0.0936791 0.141198 0.020006)
(-0.13352 0.126144 0.0184641)
(-0.190148 0.128386 0.0079812)
(-0.23431 0.110477 0.0068946)
(-0.239203 0.0776385 0.00762598)
(-0.23705 0.0172353 0.0126777)
(-0.268207 -0.0220405 0.0184254)
(-0.31629 -0.0746057 0.0239334)
(-0.368097 -0.127027 0.0228977)
(-0.418468 -0.186845 0.0202605)
(-0.453799 -0.247086 0.0129382)
(-0.468049 -0.302029 0.000975944)
(-0.444066 -0.335029 -0.0141357)
(-0.385287 -0.323306 -0.0301552)
(-0.284981 -0.241005 -0.0338053)
(-0.172185 -0.0869011 -0.0219068)
(-0.0537497 0.0492137 -0.018402)
(0.00848378 0.0602951 -0.00969299)
(-0.00357663 0.088238 -0.0161151)
(0.0512057 0.278911 -0.047229)
(0.14438 0.36765 -0.0509895)
(0.216224 0.39004 -0.0309257)
(0.267168 0.38679 -0.00579965)
(0.295659 0.372965 0.00447777)
(0.302973 0.359244 0.0105767)
(0.291477 0.345007 0.0103055)
(0.272415 0.331586 0.00799273)
(0.246105 0.320799 0.00527936)
(0.217758 0.31302 0.0038002)
(0.18643 0.304717 0.00267514)
(0.158996 0.295781 0.00146607)
(0.136185 0.285179 0.00211217)
(0.110337 0.279098 0.00175033)
(0.0810719 0.271948 -0.0104352)
(0.0557453 0.256302 -0.00779874)
(0.0346075 0.243275 -0.00629128)
(0.00809449 0.224476 -0.00239166)
(-0.0136524 0.197792 0.00525351)
(-0.0299051 0.171713 0.0105421)
(-0.0492033 0.146334 0.0137111)
(-0.0702492 0.122648 0.0161632)
(-0.0983118 0.100527 0.0194386)
(-0.148648 0.0915034 0.00983965)
(-0.196226 0.0787602 0.00344418)
(-0.223548 0.0606118 0.000661312)
(-0.233048 0.0181932 0.00308941)
(-0.246157 -0.036435 0.00380364)
(-0.286419 -0.0860186 0.00916263)
(-0.333563 -0.144456 0.0132135)
(-0.378989 -0.213546 0.0124141)
(-0.415208 -0.287077 0.00644899)
(-0.437373 -0.360591 -0.0043906)
(-0.427353 -0.414264 -0.019844)
(-0.377214 -0.423575 -0.0366133)
(-0.285189 -0.357108 -0.0564574)
(-0.173983 -0.201564 -0.0408217)
(-0.0522668 -0.00348746 -0.0102516)
(0.00828001 0.0532149 -0.0108977)
(-0.00619927 0.123042 -0.0126776)
(0.0445694 0.324943 -0.036542)
(0.136732 0.419755 -0.0439983)
(0.214099 0.440789 -0.0260649)
(0.271347 0.432338 -0.00955325)
(0.304785 0.409094 0.0017957)
(0.31567 0.387315 0.00727497)
(0.306065 0.380604 0.00955554)
(0.300849 0.396468 0.00967693)
(0.295812 0.406516 0.005627)
(0.281953 0.409569 0.00127154)
(0.249923 0.399057 -0.00371306)
(0.20861 0.381632 -0.00493357)
(0.16902 0.351293 -0.00529649)
(0.133587 0.319281 -0.000887969)
(0.0947503 0.288028 -0.00875574)
(0.0672 0.263319 -0.00874814)
(0.0484526 0.229555 -0.0068335)
(0.0234965 0.203153 -0.00310136)
(0.00182625 0.17852 0.00309217)
(-0.0156589 0.149475 0.0093042)
(-0.0314568 0.123836 0.0120757)
(-0.0514275 0.100529 0.0132003)
(-0.0745294 0.0776083 0.0169037)
(-0.118364 0.0620831 0.00588453)
(-0.165062 0.0481343 -0.000880605)
(-0.189619 0.0337457 0.00290197)
(-0.210774 0.013755 0.000990588)
(-0.232128 -0.0277399 -0.00222667)
(-0.263705 -0.0848192 -0.00664081)
(-0.312543 -0.146666 -0.00481976)
(-0.361611 -0.210468 0.000198148)
(-0.397942 -0.282295 0.0016382)
(-0.418861 -0.359213 -0.00431155)
(-0.406573 -0.426297 -0.0163629)
(-0.361403 -0.462331 -0.0382225)
(-0.272965 -0.434012 -0.0611964)
(-0.157786 -0.293791 -0.0622592)
(-0.0387764 -0.0887716 -0.028454)
(0.0104695 0.0336267 -0.00875736)
(-0.0148773 0.248309 -0.0223501)
(0.0264794 0.472765 -0.0395371)
(0.115066 0.57525 -0.0469947)
(0.193735 0.604822 -0.0289436)
(0.259653 0.595348 -0.0152419)
(0.304139 0.569478 -0.00124047)
(0.340622 0.536319 0.00643733)
(0.372424 0.524599 0.00519784)
(0.374135 0.528874 -0.000883653)
(0.340716 0.516259 -0.00646857)
(0.299258 0.488501 -0.00922495)
(0.253781 0.445601 -0.0105174)
(0.208579 0.40029 -0.0097565)
(0.168042 0.352545 -0.00625898)
(0.135324 0.310687 -0.00342682)
(0.108819 0.27025 0.00122851)
(0.0787337 0.243636 -0.00502863)
(0.0553161 0.212849 -0.00562721)
(0.0387342 0.182595 -0.00293134)
(0.0144355 0.156269 -0.000137933)
(-0.00330762 0.131686 0.00768895)
(-0.0172638 0.103982 0.0103872)
(-0.0356633 0.0807364 0.0113215)
(-0.0549609 0.0596111 0.0154263)
(-0.0936394 0.0375693 0.00449905)
(-0.134693 0.0264492 0.00481064)
(-0.159384 0.0141827 0.00512407)
(-0.183495 -0.00222191 0.0061753)
(-0.21614 -0.0228022 0.00332662)
(-0.254858 -0.0631349 0.00323299)
(-0.280995 -0.119133 -0.00173497)
(-0.309204 -0.196738 -0.0137891)
(-0.344309 -0.299585 -0.0239191)
(-0.373816 -0.4107 -0.0361589)
(-0.381926 -0.497645 -0.0539471)
(-0.363057 -0.562102 -0.0792061)
(-0.288842 -0.549818 -0.0937977)
(-0.193867 -0.421391 -0.0929316)
(-0.0623498 -0.156343 -0.0510864)
(0.0162828 0.0335915 -0.0121562)
(-0.0106324 0.275052 -0.0100588)
(0.0278826 0.519497 -0.0401169)
(0.112986 0.635408 -0.0502588)
(0.194851 0.683072 -0.0411024)
(0.261741 0.681704 -0.0308131)
(0.305829 0.659099 -0.0192485)
(0.342225 0.622678 -0.0100393)
(0.372129 0.587257 -0.00609552)
(0.370411 0.549572 -0.00690077)
(0.338341 0.510898 -0.006478)
(0.298904 0.471131 -0.00572373)
(0.253271 0.428018 -0.00570708)
(0.208714 0.381993 -0.004216)
(0.171043 0.336805 -0.00365066)
(0.139111 0.293344 -0.00162129)
(0.111329 0.253954 0.000205409)
(0.0912885 0.21873 0.00448796)
(0.0678859 0.191463 -0.00046675)
(0.0462216 0.163872 -0.00282089)
(0.029046 0.136173 0.000463266)
(0.00862741 0.113083 0.00362584)
(-0.00717202 0.0874912 0.00944168)
(-0.0210947 0.0632373 0.00978827)
(-0.0424712 0.0409877 0.0129979)
(-0.0739646 0.0182337 0.00591683)
(-0.10642 0.00738423 0.00795723)
(-0.128903 -0.00505911 0.0103988)
(-0.147025 -0.0155754 0.0107832)
(-0.175907 -0.0309325 0.00757053)
(-0.220462 -0.0489647 0.00527757)
(-0.279276 -0.0838707 0.00423858)
(-0.339991 -0.15082 0.00546122)
(-0.376589 -0.242386 0.00412827)
(-0.370353 -0.372961 -0.00797318)
(-0.349975 -0.514097 -0.0254246)
(-0.321738 -0.635148 -0.0465127)
(-0.251371 -0.684707 -0.0765472)
(-0.139797 -0.596861 -0.0835212)
(-0.0283062 -0.318275 -0.0761462)
(0.0137181 -0.0190991 -0.00532751)
(0.000510034 0.262247 -0.000275729)
(0.0373614 0.494409 -0.0339038)
(0.108778 0.615818 -0.0429772)
(0.187591 0.666986 -0.0378055)
(0.253716 0.666929 -0.0235308)
(0.302198 0.643094 -0.0156283)
(0.342834 0.607176 -0.00551598)
(0.37518 0.568705 -0.0020306)
(0.374733 0.528671 -0.00215614)
(0.341624 0.491906 -0.00151473)
(0.299417 0.452489 -0.000975884)
(0.251846 0.409895 -0.000433069)
(0.206938 0.363664 -0.000209077)
(0.168825 0.318998 0.00108853)
(0.139828 0.274977 0.000736575)
(0.118701 0.235593 0.0027198)
(0.0979049 0.198348 0.00307014)
(0.0800815 0.166451 0.00483308)
(0.0610231 0.14101 0.00500517)
(0.0388227 0.116602 -0.000365877)
(0.0209546 0.0941462 0.00395416)
(0.0041634 0.0730348 0.00670855)
(-0.0117367 0.0483229 0.00938754)
(-0.0291493 0.0265114 0.0106322)
(-0.0543676 0.00723477 0.00801611)
(-0.0814468 -0.00453521 0.0105603)
(-0.0993076 -0.014445 0.0120739)
(-0.116571 -0.0272532 0.0129435)
(-0.142161 -0.0438036 0.0122401)
(-0.178909 -0.0614455 0.0111019)
(-0.224944 -0.0828251 0.00983884)
(-0.277053 -0.111702 0.007311)
(-0.340074 -0.155958 0.00331801)
(-0.388353 -0.239784 -0.000103006)
(-0.392629 -0.35741 -0.00537102)
(-0.369349 -0.494077 -0.0154005)
(-0.295326 -0.591328 -0.0288032)
(-0.17985 -0.581226 -0.055085)
(-0.0235211 -0.353408 -0.0536309)
(0.0431869 0.00463064 -0.0267461)
(0.00306721 0.258355 0.00411159)
(0.0409092 0.471073 -0.0250406)
(0.108128 0.594522 -0.0342697)
(0.182411 0.650709 -0.0320831)
(0.247059 0.657357 -0.0163556)
(0.296267 0.634516 -0.0108847)
(0.337721 0.597613 -0.00142836)
(0.367805 0.555489 0.00185973)
(0.369126 0.506971 0.00169537)
(0.339687 0.466669 0.00231122)
(0.297333 0.425185 0.00279861)
(0.248693 0.382415 0.00324343)
(0.204897 0.338789 0.00375509)
(0.170232 0.297455 0.00379472)
(0.142534 0.256679 0.00416012)
(0.11955 0.217858 0.00587114)
(0.104446 0.179114 0.00853799)
(0.0899478 0.148016 0.00990892)
(0.0727685 0.119476 0.00994002)
(0.0556386 0.0988415 0.0114697)
(0.0359466 0.0774204 0.00534587)
(0.0160304 0.0586582 0.00668678)
(0.000482712 0.0367479 0.0113336)
(-0.0151927 0.0179732 0.00905247)
(-0.0350473 -0.00221559 0.0089621)
(-0.0549472 -0.0131995 0.00992837)
(-0.0730087 -0.0259626 0.0108153)
(-0.0894589 -0.0406569 0.0122171)
(-0.110325 -0.0591662 0.0133239)
(-0.140313 -0.0796904 0.0141918)
(-0.181935 -0.102183 0.0146656)
(-0.226781 -0.135684 0.0151412)
(-0.275992 -0.177282 0.0165206)
(-0.308018 -0.234384 0.0153452)
(-0.330806 -0.311856 0.00939918)
(-0.345798 -0.433548 0.0010248)
(-0.320235 -0.529475 -0.0148857)
(-0.225616 -0.556954 -0.0387425)
(-0.0611605 -0.348848 -0.0517984)
(0.0249074 0.0263731 -0.0167035)
(0.00779268 0.236521 0.000745846)
(0.0457979 0.42729 -0.0213141)
(0.10621 0.556505 -0.0295054)
(0.178548 0.615559 -0.0282703)
(0.241863 0.629668 -0.0159476)
(0.290892 0.609404 -0.00825848)
(0.334526 0.572996 0.000164515)
(0.361272 0.529899 0.00385758)
(0.362801 0.479204 0.0044997)
(0.337136 0.435719 0.0050338)
(0.294028 0.392615 0.00601206)
(0.247173 0.351573 0.00706275)
(0.206619 0.312265 0.00747868)
(0.172973 0.273865 0.00817188)
(0.146576 0.235454 0.00860747)
(0.126244 0.200045 0.00956387)
(0.11104 0.165155 0.0100296)
(0.100511 0.133579 0.0105736)
(0.0884895 0.100457 0.0104429)
(0.0699633 0.0777419 0.0086801)
(0.0510836 0.0626995 0.0096747)
(0.031858 0.0458036 0.00876563)
(0.0149637 0.0287516 0.00675139)
(-0.000642649 0.0111195 0.00841739)
(-0.016894 -0.0068152 0.00892384)