/*--------------------------------*- C++ -*----------------------------------*\
| =========                 |                                                 |
| \\      /  F ield         | OpenFOAM: The Open Source CFD Toolbox           |
|  \\    /   O peration     | Version:  v1806                                 |
|   \\  /    A nd           | Web:      www.OpenFOAM.com                      |
|    \\/     M anipulation  |                                                 |
\*---------------------------------------------------------------------------*/
FoamFile
{
    version     2.0;
    format      ascii;
    class       volScalarField;
    location    "0.025";
    object      p;
}
// * * * * * * * * * * * * * * * * * * * * * * * * * * * * * * * * * * * * * //

dimensions      [0 2 -2 0 0 0 0];


internalField   nonuniform List<scalar> 
64000
(
-2.50881e-05
-0.0879729
-0.243428
-0.300337
-0.376115
-0.395425
-0.455161
-0.483339
-0.508054
-0.552414
-0.550906
-0.634074
-0.656309
-0.711908
-0.747981
-0.72579
-0.742188
-0.710174
-0.751598
-0.81756
-0.66541
-1.10041
-1.5872
-1.33835
-1.56822
-1.35063
-1.35856
-1.24144
-1.27175
-1.196
-1.27814
-1.30107
-1.37695
-1.39617
-1.45435
-1.46717
-1.51569
-1.49514
-1.4871
-1.45315
-0.118117
-0.202318
-0.29469
-0.331685
-0.38258
-0.406407
-0.45962
-0.505149
-0.566455
-0.626651
-0.590391
-0.574636
-0.508318
-0.493216
-0.476734
-0.520023
-0.66443
-0.639591
-0.665335
-0.614399
-0.606982
-0.952387
-1.54166
-1.2984
-1.49163
-1.31789
-1.31794
-1.24642
-1.22892
-1.2011
-1.24171
-1.24036
-1.3409
-1.33787
-1.39832
-1.39269
-1.44654
-1.45603
-1.45917
-1.43748
-0.258219
-0.292637
-0.33564
-0.365297
-0.384362
-0.40301
-0.498007
-0.492395
-0.471157
-0.423652
-0.42445
-0.505151
-0.588903
-0.779948
-0.815176
-0.840728
-0.827313
-0.785363
-0.797945
-0.75721
-0.844277
-1.18658
-1.93359
-1.74301
-1.98675
-1.86776
-1.90098
-1.85379
-1.83253
-1.77669
-1.71266
-1.67327
-1.57081
-1.55031
-1.51235
-1.44434
-1.43699
-1.42396
-1.41681
-1.39531
-0.365171
-0.379393
-0.392605
-0.434389
-0.385629
-0.337053
-0.356379
-0.356006
-0.445344
-0.620613
-0.817548
-0.970206
-0.990655
-0.969307
-0.945215
-0.962724
-0.972302
-0.933029
-0.927796
-0.895077
-0.994567
-1.36712
-2.23547
-2.11288
-2.37546
-2.30203
-2.34586
-2.32882
-2.30662
-2.26992
-2.21211
-2.07708
-1.89252
-1.65357
-1.54091
-1.36602
-1.35589
-1.31756
-1.33745
-1.32494
-0.422353
-0.431057
-0.442733
-0.479015
-0.506711
-0.491023
-0.780934
-0.841985
-1.12692
-1.24275
-1.30334
-1.2742
-1.34628
-1.35349
-1.3309
-1.33873
-1.29637
-1.25191
-1.23236
-1.22687
-1.3059
-1.68139
-2.60402
-2.499
-2.78655
-2.72585
-2.77113
-2.75098
-2.76404
-2.73368
-2.68916
-2.61388
-2.50214
-2.28922
-1.97492
-1.40979
-1.18368
-1.3421
-1.3021
-1.3033
-0.528987
-0.547084
-0.578635
-0.639282
-0.664376
-0.805032
-1.27405
-1.38195
-1.50663
-1.58915
-1.63148
-1.65451
-1.66068
-1.61837
-1.57628
-1.63042
-1.56472
-1.4748
-1.3808
-1.32942
-1.38756
-1.74059
-2.70668
-2.6744
-2.89499
-2.87814
-2.92222
-2.94819
-2.96009
-2.95859
-2.90032
-2.81057
-2.72058
-2.50208
-2.23308
-1.42786
-1.19188
-1.34504
-1.30226
-1.30073
-0.567698
-0.593635
-0.616618
-0.74966
-0.795182
-1.29435
-1.49579
-1.66547
-1.77668
-1.87692
-1.93561
-1.98247
-2.04665
-2.06591
-2.05776
-2.05949
-1.90239
-1.93284
-1.88606
-1.94173
-2.07357
-1.7576
-2.37021
-2.66202
-2.89007
-2.93355
-3.02435
-3.05973
-3.10432
-3.12002
-3.04548
-2.96033
-2.85547
-2.66329
-2.36294
-1.67781
-1.2306
-1.33856
-1.33228
-1.31641
-0.664316
-0.655581
-0.718392
-0.833381
-1.07346
-1.55691
-1.6932
-1.82823
-1.97105
-2.08234
-2.16492
-2.25983
-2.30175
-2.39508
-2.45266
-2.5255
-2.52918
-2.50993
-2.53622
-2.52972
-2.43972
-1.69241
-1.87936
-2.24577
-2.78247
-2.92995
-3.07132
-3.14151
-3.21313
-3.26143
-3.19352
-3.11345
-2.97427
-2.80237
-2.51336
-1.91432
-1.2933
-1.32141
-1.35246
-1.3406
-0.687786
-0.677212
-0.745686
-0.988798
-1.37462
-1.68843
-1.80806
-1.998
-2.0897
-2.26075
-2.37033
-2.46302
-2.5515
-2.68592
-2.80211
-2.94581
-3.05241
-3.08216
-3.18801
-3.06669
-2.57018
-1.66596
-1.49009
-1.83541
-2.6512
-2.97519
-3.16262
-3.22478
-3.31086
-3.34395
-3.26232
-3.17044
-3.03569
-2.82301
-2.57526
-2.1545
-1.42991
-1.31641
-1.37421
-1.37314
-0.780823
-0.732065
-0.878375
-1.21337
-1.49985
-1.77013
-1.92388
-2.10656
-2.21724
-2.35696
-2.46665
-2.59131
-2.66657
-2.82452
-2.97169
-3.17728
-3.25667
-3.35371
-3.461
-3.0727
-2.34284
-1.60197
-1.29587
-1.45546
-2.22626
-3.00951
-3.22593
-3.31552
-3.3924
-3.41397
-3.4007
-3.28084
-3.12991
-2.9746
-2.6761
-2.31349
-1.62778
-1.35079
-1.3804
-1.43122
-0.793385
-0.8148
-1.01262
-1.31175
-1.58457
-1.81865
-2.0038
-2.17147
-2.29749
-2.45494
-2.53344
-2.64071
-2.69119
-2.83735
-2.99424
-3.16647
-3.10469
-3.48316
-3.0321
-2.50922
-2.18142
-1.71344
-1.36068
-1.36825
-1.73308
-2.85112
-3.31399
-3.40963
-3.45053
-3.43621
-3.40482
-3.3442
-3.14902
-2.92357
-2.71013
-2.41027
-1.87363
-1.40524
-1.40109
-1.46901
-0.913225
-0.935121
-1.11851
-1.37803
-1.62042
-1.8551
-2.03828
-2.20427
-2.33303
-2.44933
-2.52997
-2.62186
-2.66256
-2.74068
-2.917
-2.99397
-3.05663
-2.79482
-2.27554
-2.12644
-2.0443
-1.75519
-1.50967
-1.43797
-1.67893
-2.16955
-3.42923
-3.50013
-3.58355
-3.53439
-3.49746
-3.37088
-3.30198
-3.07458
-2.79619
-2.43314
-2.04556
-1.54501
-1.41823
-1.5268
-1.01427
-1.03672
-1.19797
-1.42751
-1.6475
-1.86386
-2.04708
-2.20287
-2.30233
-2.40114
-2.44639
-2.49141
-2.53147
-2.59163
-2.72889
-2.75342
-2.59295
-1.93983
-1.73139
-1.67488
-1.72459
-1.59067
-1.57535
-1.55365
-1.65706
-1.8766
-2.74616
-3.5647
-3.5374
-3.59014
-3.50829
-3.46243
-3.24443
-3.10817
-2.82068
-2.58337
-2.07828
-1.72548
-1.46147
-1.5783
-1.09148
-1.10818
-1.25366
-1.44077
-1.64704
-1.84253
-2.0305
-2.15528
-2.24674
-2.30183
-2.33434
-2.41968
-2.43149
-2.50832
-2.41292
-2.14224
-1.69776
-1.38817
-1.23707
-1.15565
-1.22008
-1.1916
-1.40653
-1.65984
-1.74677
-1.85967
-2.11535
-3.31387
-3.52432
-3.58625
-3.626
-3.4819
-3.31747
-3.08846
-2.83988
-2.53446
-2.25724
-1.82198
-1.54312
-1.64564
-1.22659
-1.21916
-1.33431
-1.48769
-1.67404
-1.84291
-2.00614
-2.11453
-2.15508
-2.20425
-2.26944
-2.3604
-2.33048
-2.19111
-1.51417
-1.42597
-1.00643
-0.860668
-0.849914
-0.795519
-0.886653
-0.872367
-1.01663
-1.69952
-1.79262
-1.9233
-2.06458
-2.42192
-3.54533
-3.61553
-3.58384
-3.48487
-3.27003
-3.04249
-2.77963
-2.49145
-2.18288
-1.94269
-1.66773
-1.73444
-1.15229
-1.17292
-1.28105
-1.42074
-1.58634
-1.74624
-1.91374
-2.01826
-2.1107
-2.13703
-2.16762
-1.98553
-1.5713
-1.25863
-1.03838
-1.02673
-0.978388
-0.990102
-0.976319
-0.951606
-0.9884
-0.992026
-0.963256
-1.63349
-1.8701
-1.98307
-2.12049
-2.38241
-2.77571
-3.4775
-3.50993
-3.45218
-3.24811
-3.01348
-2.73884
-2.49395
-2.18952
-1.96961
-1.74552
-1.78358
-1.39309
-1.33594
-1.39948
-1.49644
-1.64216
-1.79077
-1.95015
-2.04408
-1.95919
-1.678
-1.45314
-1.26959
-1.16664
-1.18083
-1.18886
-1.22173
-1.23243
-1.22446
-1.28196
-1.28524
-1.35164
-1.39522
-1.28842
-1.65387
-1.96059
-2.04846
-2.14347
-2.28654
-2.64132
-2.9599
-3.16374
-3.24373
-3.04053
-2.84459
-2.61069
-2.38893
-2.19739
-2.05312
-1.87638
-1.91302
-0.975154
-0.990828
-1.08325
-1.18289
-1.3312
-1.45186
-1.62946
-1.49031
-1.43579
-1.43811
-1.50186
-1.49373
-1.42621
-1.36935
-1.3214
-1.34918
-1.32001
-1.35332
-1.39832
-1.45498
-1.52779
-1.64137
-1.60294
-1.77051
-2.01487
-2.05636
-2.16677
-2.30411
-2.45874
-2.72519
-3.1361
-3.15239
-2.95682
-2.60794
-2.33104
-2.14657
-2.01553
-1.83701
-1.90949
-1.87412
-1.76766
-1.64299
-1.66636
-1.70751
-1.81847
-1.93896
-1.97903
-1.86595
-1.87005
-1.80809
-1.73869
-1.63687
-1.54973
-1.43185
-1.38269
-1.3272
-1.37453
-1.33717
-1.41172
-1.4717
-1.5196
-1.64196
-1.6642
-1.80451
-2.02362
-2.09198
-2.18517
-2.30185
-2.45203
-2.63382
-2.75743
-2.84912
-2.76703
-2.78852
-2.73073
-2.64416
-2.41149
-2.33861
-1.99928
-2.12671
-1.35542
-1.46027
-1.54425
-1.66893
-1.79476
-1.9153
-1.9654
-1.83448
-1.81908
-1.80948
-1.80948
-1.73734
-1.6328
-1.49128
-1.39664
-1.33318
-1.33
-1.37947
-1.40259
-1.46872
-1.52751
-1.62065
-1.6463
-1.78794
-1.95833
-2.06928
-2.17867
-2.27646
-2.45326
-2.66737
-2.75948
-2.81786
-2.89496
-2.41593
-2.17172
-2.09807
-2.09674
-2.04607
-2.15954
-2.06518
-1.55506
-1.52631
-1.55024
-1.61084
-1.69893
-1.79763
-1.85147
-1.83146
-1.89128
-1.92386
-1.95472
-1.88724
-1.76025
-1.57136
-1.42337
-1.3326
-1.35867
-1.36616
-1.45813
-1.47814
-1.5785
-1.61692
-1.66678
-1.78095
-1.93294
-2.04348
-2.11836
-2.26976
-2.43488
-2.61312
-2.76358
-2.78858
-2.84912
-2.78737
-2.5838
-2.49661
-2.3523
-2.27165
-2.18389
-2.27212
-1.62584
-1.63425
-1.68308
-1.74102
-1.83465
-1.92463
-1.96907
-1.96878
-2.04971
-2.08869
-2.12318
-2.06249
-1.89551
-1.64584
-1.42377
-1.26064
-1.20719
-1.24231
-1.32556
-1.43301
-1.5502
-1.65021
-1.696
-1.77612
-1.93017
-2.00938
-2.12769
-2.24868
-2.4099
-2.59223
-2.72052
-2.82973
-2.88016
-2.70148
-2.68394
-2.67918
-2.69623
-2.58077
-2.55506
-2.55407
-1.64722
-1.65413
-1.69397
-1.73911
-1.83663
-1.91104
-1.97222
-2.00522
-2.10575
-2.2016
-2.26048
-2.1886
-2.00947
-1.77182
-1.55064
-1.37589
-1.45161
-1.55052
-1.52031
-1.53011
-1.56833
-1.66178
-1.70733
-1.81585
-1.90131
-2.01559
-2.10035
-2.21596
-2.33556
-2.46838
-2.60435
-2.69766
-2.78909
-2.75262
-2.77913
-2.74683
-2.76153
-2.65469
-2.54621
-2.47526
-1.72722
-1.6624
-1.77884
-1.79212
-1.89877
-1.9599
-2.02341
-2.08259
-2.18018
-2.29697
-2.36352
-2.32276
-2.1751
-2.00066
-1.87026
-1.85488
-2.05142
-1.87093
-1.53626
-1.59722
-1.66583
-1.69534
-1.77459
-1.85485
-1.93413
-2.03843
-2.13214
-2.25203
-2.37418
-2.5193
-2.66373
-2.77333
-2.87912
-2.87087
-2.97112
-2.94805
-3.03986
-2.91363
-2.91534
-2.75112
-1.78373
-1.69236
-1.84124
-1.83799
-1.96039
-2.01526
-2.09471
-2.1606
-2.26129
-2.38354
-2.46525
-2.46897
-2.3959
-2.28528
-2.2529
-2.28306
-2.35323
-2.06737
-1.55163
-1.62736
-1.66616
-1.76331
-1.76981
-1.87872
-1.94225
-2.02902
-2.09346
-2.19159
-2.25133
-2.30864
-2.38452
-2.44182
-2.55331
-2.55349
-2.68554
-2.64381
-2.7793
-2.66078
-2.74872
-2.53844
-1.84912
-1.71638
-1.8791
-1.88925
-2.00778
-2.07729
-2.16133
-2.22883
-2.34
-2.46015
-2.54077
-2.58272
-2.59325
-2.61071
-2.67503
-2.58803
-2.59267
-2.29446
-1.54797
-1.64244
-1.68068
-1.74932
-1.79179
-1.89562
-1.95592
-2.10732
-2.13002
-2.25879
-2.33114
-2.50595
-2.67474
-2.76304
-2.89941
-2.87294
-3.02425
-2.90233
-3.05323
-2.8162
-2.94132
-2.65968
-1.88094
-1.79315
-1.89294
-1.96038
-2.06705
-2.13271
-2.22776
-2.26789
-2.35667
-2.47574
-2.57589
-2.63765
-2.69889
-2.75957
-2.84585
-2.75431
-2.71235
-2.36588
-1.59975
-1.68654
-1.72239
-1.76501
-1.81843
-1.89973
-1.94738
-2.10249
-2.17168
-2.28301
-2.39252
-2.42813
-2.45627
-2.41697
-2.48589
-2.39354
-2.54249
-2.35752
-2.55222
-2.268
-2.48433
-2.42893
-1.91476
-1.86825
-1.84823
-2.01858
-2.10414
-2.19733
-2.3005
-2.35109
-2.46153
-2.56148
-2.64405
-2.71018
-2.75723
-2.78845
-2.86284
-2.86411
-2.78355
-2.59046
-1.63337
-1.69732
-1.71476
-1.76761
-1.84124
-1.91262
-1.92613
-2.12061
-2.17652
-2.35157
-2.39089
-2.43038
-2.49048
-2.45653
-2.55092
-2.3786
-2.54069
-2.21655
-2.39846
-1.94522
-2.07304
-1.86912
-1.94905
-1.95239
-1.87565
-2.05135
-2.14786
-2.24808
-2.3119
-2.42256
-2.52646
-2.62874
-2.71959
-2.78886
-2.84892
-2.8819
-2.91048
-2.88977
-2.77795
-2.76358
-1.70641
-1.68728
-1.70281
-1.73784
-1.81045
-1.90108
-1.83651
-2.06648
-2.24131
-2.32517
-2.32873
-2.35057
-2.38966
-2.32117
-2.41391
-2.22143
-2.39734
-1.99838
-2.22829
-1.68926
-1.82959
-1.67389
-1.97822
-1.99812
-1.90219
-2.01867
-2.17924
-2.27618
-2.36309
-2.46849
-2.55215
-2.64978
-2.73794
-2.81201
-2.88395
-2.91515
-2.97649
-2.95699
-2.85456
-2.85695
-1.86592
-1.66178
-1.65396
-1.67859
-1.749
-1.85231
-1.66886
-2.21364
-2.08373
-2.34804
-2.29308
-2.34935
-2.39727
-2.27343
-2.42138
-2.10573
-2.39059
-1.84195
-2.163
-1.46644
-1.61623
-1.3163
-2.02767
-2.05668
-1.99158
-2.02394
-2.24424
-2.29212
-2.43096
-2.52153
-2.62636
-2.70712
-2.79211
-2.86748
-2.92059
-2.98611
-2.95536
-2.99155
-2.86715
-2.9746
-1.9674
-1.58995
-1.60143
-1.6143
-1.67527
-1.79247
-1.54951
-2.25042
-1.99983
-2.31348
-2.26533
-2.30654
-2.35454
-2.25066
-2.36142
-2.06179
-2.32512
-1.71963
-2.12069
-1.32039
-1.50687
-1.05602
-2.02736
-2.01933
-2.02852
-1.90489
-2.18965
-2.26409
-2.38437
-2.47456
-2.5781
-2.67898
-2.76931
-2.8434
-2.94189
-2.93445
-2.96281
-3.01002
-2.86173
-3.07145
-2.1389
-1.47788
-1.51155
-1.51047
-1.57002
-1.71412
-1.41517
-2.24567
-1.9501
-2.31945
-2.23106
-2.28515
-2.35074
-2.16709
-2.4026
-1.91769
-2.36302
-1.52097
-2.089
-1.08642
-1.33419
-0.665811
-2.12583
-2.12045
-2.13889
-2.05831
-2.22165
-2.3679
-2.4643
-2.55214
-2.64547
-2.73739
-2.83046
-2.94142
-2.95838
-3.03582
-3.00713
-3.09969
-2.91221
-3.15037
-2.32206
-1.35236
-1.43396
-1.41269
-1.46886
-1.62909
-1.303
-2.1961
-2.01329
-2.2689
-2.23966
-2.26077
-2.35956
-2.13135
-2.35682
-1.90706
-2.34709
-1.45011
-2.04865
-0.906321
-1.18272
-0.264938
-2.02992
-2.0029
-2.0313
-1.99918
-1.96432
-2.21612
-2.2766
-2.38052
-2.48813
-2.59681
-2.71831
-2.79506
-2.90694
-2.98912
-2.99005
-3.08301
-2.89377
-3.13048
-2.38872
-1.16612
-1.26654
-1.23413
-1.29632
-1.4752
-1.15373
-2.07869
-2.02857
-2.26016
-2.29622
-2.23788
-2.37636
-2.0594
-2.41407
-1.71133
-2.41126
-1.17169
-2.00889
-0.380761
-0.853999
0.46412
-2.19472
-2.24641
-2.18857
-2.24553
-2.16692
-2.34606
-2.4058
-2.48898
-2.59001
-2.66983
-2.77932
-2.90032
-2.99249
-3.1092
-3.13242
-3.26526
-3.02401
-3.23772
-2.52518
-1.03879
-1.14193
-1.0916
-1.14178
-1.31494
-1.04804
-1.98565
-2.10743
-2.3379
-2.33452
-2.2556
-2.46315
-2.00187
-2.50299
-1.63001
-2.48422
-1.15912
-2.03475
-0.135577
-0.427569
1.32013
-2.05674
-1.94932
-2.03979
-1.96303
-1.94961
-2.05909
-2.08113
-2.18987
-2.29131
-2.42302
-2.57881
-2.71573
-2.86549
-3.00139
-3.03313
-3.25644
-3.02372
-3.18339
-2.46416
-0.824428
-0.905069
-0.795476
-0.857329
-1.05237
-0.883478
-1.82737
-2.1257
-2.35002
-2.42292
-2.26263
-2.43942
-1.91613
-2.49533
-1.44934
-2.36428
-0.725254
-1.81148
0.817169
0.625845
3.36527
-2.18946
-2.31075
-2.1635
-2.33442
-2.16668
-2.2696
-2.28988
-2.31588
-2.42934
-2.52768
-2.67087
-2.81587
-2.96624
-3.11763
-3.18158
-3.38047
-3.16875
-3.31275
-2.51772
-0.76494
-0.696009
-0.581732
-0.604206
-0.81631
-0.786823
-1.75569
-2.19156
-2.40462
-2.55022
-2.27781
-2.61113
-1.86149
-2.70712
-1.32548
-2.7467
-0.670748
-1.92104
1.29347
1.68487
5.35877
-2.60527
-2.09877
-2.21989
-1.82503
-1.95658
-1.84348
-1.90554
-1.97471
-2.10395
-2.22713
-2.41156
-2.5865
-2.799
-3.00925
-3.15085
-3.35685
-3.22136
-3.27186
-2.29155
-0.578769
-0.29862
-0.157
-0.204436
-0.450144
-0.66302
-1.6684
-2.21891
-2.44594
-2.62542
-2.26529
-2.59754
-1.76475
-2.56672
-1.06389
-2.45193
-0.00356398
-1.25961
3.04602
4.30281
10.5596
-2.35953
-2.71928
-2.43407
-2.49294
-2.00075
-2.0884
-2.03148
-2.07703
-2.18248
-2.28765
-2.43877
-2.61628
-2.84469
-3.10658
-3.30911
-3.54949
-3.45374
-3.37465
-2.24489
-0.610219
-0.0605479
0.168942
0.086023
-0.219718
-0.614269
-1.633
-2.2211
-2.50115
-2.73734
-2.25118
-2.65952
-1.74062
-2.76674
-1.29664
-2.71814
-0.30022
-1.15005
4.13044
6.17691
14.7072
-4.94233
-2.17308
-2.55171
-1.99764
-1.92287
-1.75035
-1.84788
-1.89238
-2.02731
-2.14198
-2.32291
-2.51008
-2.75607
-3.07078
-3.39319
-3.66706
-3.59391
-3.35097
-2.04541
-0.481046
0.2749
0.562902
0.384853
-0.0298052
-0.616637
-1.67591
-2.35203
-2.58272
-2.83177
-2.22139
-2.61906
-1.58214
-2.62191
-1.10513
-2.6427
0.0288229
0.280033
7.61921
13.6819
28.3046
-0.104369
-0.2012
-0.28656
-0.311301
-0.372558
-0.404396
-0.458539
-0.483643
-0.524838
-0.562113
-0.574515
-0.665143
-0.697663
-0.730011
-0.747561
-0.734836
-0.753427
-0.710322
-0.810312
-0.791128
-0.728602
-1.08338
-1.71232
-1.46137
-1.66784
-1.51639
-1.53712
-1.47607
-1.44116
-1.3865
-1.40594
-1.39602
-1.45756
-1.43377
-1.48784
-1.49059
-1.54707
-1.53625
-1.52682
-1.48396
-0.224875
-0.269328
-0.333252
-0.339324
-0.387555
-0.408662
-0.452706
-0.50807
-0.525562
-0.601087
-0.557637
-0.574514
-0.47991
-0.480942
-0.493006
-0.604541
-0.675577
-0.641236
-0.650844
-0.595367
-0.708051
-1.05462
-1.68916
-1.53488
-1.71183
-1.60394
-1.63426
-1.59773
-1.57336
-1.50353
-1.45312
-1.41614
-1.43691
-1.39071
-1.44316
-1.42358
-1.47381
-1.47156
-1.4755
-1.456
-0.295493
-0.329997
-0.34695
-0.381814
-0.385193
-0.388548
-0.468742
-0.477894
-0.513609
-0.442123
-0.457904
-0.529817
-0.617545
-0.752807
-0.88317
-0.909089
-0.876562
-0.809945
-0.801639
-0.753445
-0.942725
-1.33579
-2.09904
-2.026
-2.22634
-2.15191
-2.20261
-2.17712
-2.16649
-2.09416
-1.99148
-1.7835
-1.66206
-1.61103
-1.53199
-1.4403
-1.45693
-1.43864
-1.42961
-1.40525
-0.389057
-0.376554
-0.416077
-0.391531
-0.380773
-0.350283
-0.40245
-0.366662
-0.450554
-0.614343
-0.811054
-0.977224
-1.00257
-1.02987
-1.09611
-1.07693
-1.03053
-0.956729
-0.923529
-0.886483
-1.11517
-1.58919
-2.43386
-2.43116
-2.62687
-2.57612
-2.61384
-2.59603
-2.57229
-2.50514
-2.43172
-2.27
-1.99655
-1.69055
-1.5653
-1.35296
-1.31187
-1.33367
-1.33467
-1.32167
-0.439767
-0.442608
-0.474736
-0.484898
-0.521322
-0.405114
-0.565004
-0.835106
-1.11998
-1.28555
-1.34998
-1.37125
-1.37216
-1.42542
-1.47314
-1.43932
-1.36485
-1.2828
-1.22092
-1.12867
-1.30178
-1.80315
-2.71859
-2.74502
-2.93283
-2.90636
-2.93323
-2.9475
-2.92152
-2.86384
-2.79648
-2.69497
-2.57993
-2.30586
-1.90132
-1.36386
-1.20626
-1.31227
-1.29686
-1.30052
-0.557148
-0.566057
-0.602268
-0.609055
-0.715766
-0.6611
-1.22968
-1.43782
-1.56791
-1.64953
-1.68677
-1.71098
-1.68235
-1.73608
-1.73473
-1.76935
-1.63042
-1.49328
-1.37158
-1.2587
-1.3586
-1.77892
-2.77261
-2.89524
-3.07292
-3.05602
-3.07794
-3.09885
-3.12434
-3.02457
-2.99218
-2.91345
-2.78307
-2.56844
-2.19307
-1.40456
-1.22388
-1.31845
-1.2998
-1.29728
-0.590883
-0.602198
-0.644277
-0.794136
-0.823304
-1.18147
-1.55038
-1.73034
-1.8415
-1.9292
-1.97997
-2.02886
-2.0411
-2.1571
-2.13133
-2.13487
-2.03759
-1.94638
-1.87782
-1.86297
-1.93103
-1.73155
-2.32796
-2.78468
-3.03813
-3.08019
-3.15121
-3.16476
-3.16693
-3.18101
-3.07858
-2.9911
-2.88388
-2.69106
-2.35662
-1.59585
-1.24966
-1.31884
-1.31621
-1.31402
-0.716648
-0.720083
-0.786231
-0.905517
-1.0179
-1.56143
-1.71984
-1.89627
-2.01511
-2.12751
-2.22207
-2.3185
-2.40052
-2.48359
-2.53039
-2.58185
-2.59453
-2.60723
-2.61665
-2.51111
-2.19616
-1.5279
-1.74562
-2.22508
-2.8926
-3.0742
-3.2069
-3.24552
-3.27032
-3.20714
-3.19654
-3.09312
-2.99735
-2.81261
-2.50801
-1.84702
-1.32786
-1.34637
-1.34499
-1.35096
-0.710687
-0.748135
-0.820178
-1.08085
-1.44221
-1.69328
-1.78726
-2.01831
-2.16293
-2.30701
-2.42588
-2.50265
-2.64398
-2.77037
-2.88076
-3.02361
-3.15095
-3.26979
-3.32221
-2.96
-2.25188
-1.43394
-1.33015
-1.74777
-2.65626
-3.08523
-3.26856
-3.35428
-3.29485
-3.29942
-3.23834
-3.15151
-3.00788
-2.80898
-2.54674
-2.06775
-1.41668
-1.32612
-1.3682
-1.37321
-0.790212
-0.787386
-0.941413
-1.36209
-1.52158
-1.79068
-1.92219
-2.19801
-2.24604
-2.45142
-2.4933
-2.63946
-2.80015
-2.96457
-3.11245
-3.30064
-3.44732
-3.59857
-3.46692
-2.8385
-2.06711
-1.39788
-1.15143
-1.34939
-2.11886
-3.0395
-3.34862
-3.44432
-3.46546
-3.367
-3.36121
-3.31496
-3.20787
-3.04313
-2.71141
-2.26717
-1.5997
-1.37973
-1.40715
-1.43415
-0.825493
-0.874018
-1.12038
-1.44047
-1.65644
-1.8284
-2.02339
-2.19018
-2.33111
-2.50197
-2.54147
-2.67026
-2.85912
-3.04815
-3.19938
-3.36764
-3.47072
-3.47498
-2.89295
-2.35618
-1.92302
-1.49491
-1.22308
-1.2326
-1.6475
-2.74966
-3.33074
-3.48862
-3.45666
-3.49606
-3.39701
-3.23127
-3.10834
-2.94428
-2.73561
-2.42337
-1.7717
-1.41975
-1.42404
-1.46602
-0.951718
-1.01523
-1.23747
-1.49897
-1.6923
-1.90771
-2.01716
-2.23475
-2.32042
-2.46499
-2.54656
-2.72502
-2.85481
-3.04994
-3.16823
-3.30895
-3.25607
-2.68413
-2.1444
-1.89198
-1.76286
-1.56083
-1.38853
-1.29903
-1.55022
-2.12126
-3.37839
-3.49785
-3.73656
-3.69944
-3.58413
-3.41771
-3.23984
-3.07423
-2.8718
-2.44069
-2.00092
-1.51847
-1.46408
-1.52804
-1.08132
-1.13724
-1.32084
-1.53778
-1.72465
-1.91574
-2.07974
-2.20688
-2.32293
-2.44261
-2.52213
-2.65486
-2.79208
-2.93971
-3.07063
-3.04888
-2.49632
-1.81671
-1.48698
-1.42379
-1.49616
-1.48508
-1.50506
-1.4357
-1.53093
-1.8211
-2.66957
-3.54498
-3.65294
-3.64082
-3.7049
-3.56751
-3.36988
-3.0983
-2.79029
-2.728
-2.08941
-1.63396
-1.49445
-1.57856
-1.18241
-1.21889
-1.36745
-1.54537
-1.73422
-1.90817
-2.06996
-2.17647
-2.25947
-2.33741
-2.37145
-2.58561
-2.55377
-2.7769
-2.74113
-2.20773
-1.51538
-1.11257
-0.956797
-0.962311
-1.07043
-1.15236
-1.46584
-1.5595
-1.66035
-1.78231
-2.11354
-3.31947
-3.64504
-3.85855
-3.78653
-3.63926
-3.43279
-3.19654
-2.89746
-2.59874
-2.38219
-1.81677
-1.53319
-1.66687
-1.28068
-1.30483
-1.43248
-1.58632
-1.75686
-1.90439
-2.03918
-2.13731
-2.20124
-2.2402
-2.27415
-2.3418
-2.21614
-2.37154
-1.69143
-1.28266
-0.896625
-0.737292
-0.688931
-0.678992
-0.689231
-0.711825
-1.17727
-1.62293
-1.74598
-1.90856
-2.09354
-2.62922
-3.76873
-3.8742
-3.78398
-3.63041
-3.39111
-3.14525
-2.82389
-2.61607
-2.23318
-2.00262
-1.58292
-1.73647
-1.25094
-1.26471
-1.38254
-1.52495
-1.69879
-1.79388
-1.97596
-2.05834
-2.12208
-2.10991
-2.05505
-1.90169
-1.39345
-1.32316
-1.00455
-0.985307
-0.890554
-0.853337
-0.823315
-0.782795
-0.727943
-0.675974
-0.949862
-1.63377
-1.83571
-1.91646
-2.08666
-2.37678
-2.85882
-3.6748
-3.72166
-3.58791
-3.35026
-3.08895
-2.78355
-2.5162
-2.24986
-2.04818
-1.74525
-1.73969
-1.37201
-1.34928
-1.42445
-1.52582
-1.68722
-1.79064
-1.96908
-2.03374
-1.94465
-1.66325
-1.37949
-1.18601
-1.04814
-1.14175
-1.09608
-1.14062
-1.13633
-1.12979
-1.13196
-1.11879
-1.10614
-1.0601
-1.12382
-1.6691
-1.90043
-1.99879
-2.0815
-2.25576
-2.50974
-2.90154
-3.34623
-3.36604
-3.13508
-2.88969
-2.60615
-2.37699
-2.07843
-2.01079
-1.86182
-1.88393
-1.09429
-1.14276
-1.21824
-1.32931
-1.41494
-1.53704
-1.6819
-1.56913
-1.45137
-1.3951
-1.36388
-1.33622
-1.27406
-1.27402
-1.29821
-1.30053
-1.29927
-1.32088
-1.33346
-1.36635
-1.39926
-1.43237
-1.4423
-1.73897
-1.89097
-1.98673
-2.10759
-2.25086
-2.4025
-2.64848
-2.92979
-3.06844
-2.94474
-2.66952
-2.38695
-2.15235
-1.97645
-1.8637
-1.9097
-1.88194
-1.67149
-1.61285
-1.64257
-1.71916
-1.76282
-1.9099
-1.96617
-1.8293
-1.80925
-1.71886
-1.63687
-1.52991
-1.45245
-1.38761
-1.34654
-1.36047
-1.36298
-1.34233
-1.40867
-1.42946
-1.49379
-1.54895
-1.5889
-1.7968
-1.92749
-2.02044
-2.11864
-2.24625
-2.40556
-2.56639
-2.72666
-2.83876
-2.67847
-2.57213
-2.32605
-2.15918
-2.06142
-2.00204
-1.97923
-2.05816
-1.5512
-1.55108
-1.6344
-1.73821
-1.81487
-1.94992
-1.97603
-1.83571
-1.79445
-1.77454
-1.7551
-1.67263
-1.57424
-1.44887
-1.37579
-1.31909
-1.35256
-1.36806
-1.38303
-1.44888
-1.49732
-1.56117
-1.6002
-1.80687
-1.87569
-2.01889
-2.12915
-2.26341
-2.41899
-2.60607
-2.7115
-2.79574
-2.86464
-2.44623
-2.10744
-1.99571
-1.88521
-1.91145
-1.97135
-2.06296
-1.54412
-1.51677
-1.56906
-1.63373
-1.73858
-1.81868
-1.86955
-1.82752
-1.86436
-1.88262
-1.89966
-1.81833
-1.69076
-1.51919
-1.37083
-1.28458
-1.30415
-1.32614
-1.43902
-1.41856
-1.526
-1.55529
-1.63127
-1.74947
-1.88168
-2.00068
-2.10632
-2.24924
-2.42423
-2.60389
-2.75359
-2.81007
-2.86974
-2.77808
-2.52883
-2.42933
-2.28404
-2.14886
-2.09543
-2.1822
-1.68213
-1.63682
-1.69082
-1.7352
-1.8423
-1.89938
-1.94742
-1.94657
-2.02347
-2.06337
-2.0865
-2.0143
-1.84122
-1.59786
-1.36222
-1.20562
-1.19421
-1.25904
-1.34264
-1.45077
-1.49699
-1.58052
-1.66506
-1.758
-1.88018
-1.97856
-2.08465
-2.21553
-2.37986
-2.55902
-2.70314
-2.80701
-2.88256
-2.75925
-2.72412
-2.71822
-2.71298
-2.55982
-2.50751
-2.54494
-1.62855
-1.6358
-1.69241
-1.73748
-1.83109
-1.88941
-1.95052
-1.98379
-2.09414
-2.20614
-2.27342
-2.22144
-2.04188
-1.71456
-1.3686
-1.22134
-1.33143
-1.41812
-1.42921
-1.44095
-1.5442
-1.58892
-1.68905
-1.77254
-1.87537
-1.97692
-2.07085
-2.18319
-2.31124
-2.45338
-2.60032
-2.69955
-2.79761
-2.79529
-2.86757
-2.86612
-2.8992
-2.72044
-2.60742
-2.51165
-1.72244
-1.69291
-1.77115
-1.79761
-1.89056
-1.94006
-2.00734
-2.06257
-2.17389
-2.31377
-2.41369
-2.4142
-2.30211
-2.02443
-1.78922
-1.82036
-1.94311
-1.76874
-1.505
-1.5198
-1.58486
-1.63129
-1.73081
-1.78865
-1.90224
-1.99358
-2.09025
-2.20283
-2.32116
-2.4516
-2.59428
-2.69859
-2.81743
-2.83494
-2.97388
-2.97575
-3.11118
-2.96371
-2.94016
-2.78699
-1.76828
-1.70897
-1.8321
-1.85511
-1.94943
-2.0174
-2.07516
-2.14968
-2.25991
-2.40078
-2.51443
-2.56666
-2.55591
-2.48086
-2.39226
-2.35457
-2.31182
-1.94048
-1.53397
-1.53135
-1.59654
-1.69138
-1.73551
-1.85048
-1.90656
-1.98536
-2.0578
-2.13595
-2.20309
-2.27131
-2.36511
-2.42481
-2.54436
-2.5511
-2.71302
-2.66857
-2.84068
-2.69261
-2.77874
-2.53524
-1.83834
-1.72992
-1.85703
-1.89422
-2.00655
-2.07237
-2.15111
-2.23563
-2.34116
-2.4719
-2.57907
-2.65583
-2.70683
-2.74428
-2.75793
-2.66253
-2.55849
-2.07318
-1.5572
-1.54302
-1.59535
-1.67347
-1.74591
-1.85602
-1.9311
-2.02561
-2.11354
-2.18856
-2.28862
-2.4432
-2.60295
-2.67594
-2.81759
-2.78663
-2.9601
-2.82679
-3.00184
-2.76644
-2.8926
-2.6691
-1.88863
-1.80437
-1.8739
-1.95221
-2.0511
-2.13945
-2.23142
-2.3212
-2.41794
-2.53234
-2.63132
-2.70771
-2.77453
-2.83376
-2.8901
-2.80487
-2.72442
-2.26571
-1.58977
-1.55154
-1.58202
-1.67577
-1.76783
-1.87869
-1.92628
-2.09161
-2.09368
-2.22269
-2.3327
-2.41327
-2.45686
-2.43129
-2.50657
-2.40245
-2.56575
-2.35332
-2.56828
-2.26193
-2.41114
-2.35981
-1.92736
-1.87187
-1.86829
-2.01164
-2.10475
-2.18572
-2.31587
-2.40071
-2.5002
-2.59559
-2.67939
-2.74916
-2.80883
-2.85447
-2.90939
-2.88868
-2.81042
-2.49681
-1.68412
-1.58776
-1.59905
-1.65868
-1.75988
-1.86149
-1.89669
-2.04556
-2.15631
-2.36913
-2.36754
-2.41924
-2.48872
-2.45407
-2.55713
-2.36905
-2.55906
-2.20625
-2.42893
-1.94605
-2.12298
-1.85712
-1.96245
-1.95256
-1.89411
-2.04943
-2.17049
-2.26075
-2.33556
-2.48204
-2.57367
-2.66754
-2.74873
-2.81625
-2.8765
-2.91771
-2.95682
-2.94607
-2.86851
-2.68722
-1.76425
-1.62266
-1.60101
-1.65266
-1.72843
-1.83339
-1.8026
-2.04894
-2.22648
-2.33271
-2.33472
-2.38523
-2.41061
-2.31751
-2.43576
-2.21408
-2.42092
-2.00772
-2.29226
-1.70765
-1.84196
-1.55294
-1.98942
-1.99715
-1.91746
-2.01662
-2.19402
-2.28739
-2.38297
-2.50249
-2.59349
-2.68694
-2.77477
-2.84676
-2.91721
-2.96187
-3.01815
-3.02453
-2.96108
-2.87501
-1.83538
-1.61771
-1.54953
-1.60426
-1.65533
-1.76969
-1.68797
-2.14125
-2.15459
-2.33202
-2.32309
-2.31902
-2.40873
-2.30961
-2.4379
-2.13062
-2.4615
-1.89108
-2.32082
-1.57742
-1.72901
-1.29127
-2.0366
-2.061
-1.99765
-2.02848
-2.25866
-2.34761
-2.45498
-2.56822
-2.63285
-2.73854
-2.83088
-2.90874
-2.97379
-3.02686
-3.06531
-3.07504
-3.00164
-2.9746
-1.99313
-1.58183
-1.52236
-1.53068
-1.56616
-1.69824
-1.57072
-2.17133
-2.11281
-2.28836
-2.30531
-2.26607
-2.38604
-2.22241
-2.45297
-2.06986
-2.41211
-1.83093
-2.34035
-1.52104
-1.7248
-1.14456
-2.03412
-2.03138
-2.01548
-1.93707
-2.18275
-2.28971
-2.40606
-2.49133
-2.6092
-2.67644
-2.79194
-2.86744
-2.95648
-2.99703
-3.0769
-3.10438
-2.98427
-3.08822
-2.14188
-1.50771
-1.40845
-1.42322
-1.44688
-1.61034
-1.44614
-2.16559
-2.08392
-2.2988
-2.2718
-2.26181
-2.32799
-2.20744
-2.40405
-2.00514
-2.49222
-1.62795
-2.42407
-1.37733
-1.72468
-0.911282
-2.12933
-2.12778
-2.12691
-2.07925
-2.20986
-2.39426
-2.49297
-2.58019
-2.68989
-2.77509
-2.89501
-2.94642
-3.00788
-3.06498
-3.08254
-3.17372
-3.04747
-3.22612
-2.33686
-1.41367
-1.30362
-1.32148
-1.34228
-1.51783
-1.33886
-2.11906
-2.11906
-2.3351
-2.30639
-2.24175
-2.37889
-2.09971
-2.45872
-1.90668
-2.50116
-1.66751
-2.40286
-1.34885
-1.78358
-0.672709
-2.03805
-1.9983
-2.06161
-1.94132
-1.98778
-2.20397
-2.30842
-2.40165
-2.51089
-2.632
-2.75648
-2.85245
-2.96499
-3.00574
-3.07046
-3.12223
-3.02953
-3.18848
-2.37743
-1.24472
-1.12948
-1.13471
-1.16435
-1.35038
-1.18213
-2.01921
-2.09671
-2.34724
-2.33668
-2.24084
-2.39311
-2.04996
-2.44491
-1.75452
-2.53911
-1.36201
-2.52322
-0.876223
-1.61692
-0.119688
-2.19852
-2.23907
-2.19196
-2.30153
-2.1044
-2.35004
-2.43824
-2.5234
-2.62332
-2.72431
-2.85064
-2.9596
-3.04816
-3.18145
-3.23953
-3.40807
-3.17671
-3.33386
-2.49666
-1.16418
-1.0047
-0.97504
-1.00376
-1.18787
-1.07633
-1.91504
-2.15202
-2.37881
-2.42819
-2.27621
-2.47809
-2.00734
-2.54979
-1.66824
-2.61033
-1.32956
-2.52242
-0.898676
-1.23003
0.616867
-2.04374
-1.98839
-2.05207
-1.97431
-2.01152
-1.9508
-2.14255
-2.21067
-2.34266
-2.46167
-2.62769
-2.74874
-2.91186
-3.059
-3.07872
-3.36875
-3.15757
-3.26642
-2.49526
-0.990452
-0.742777
-0.673695
-0.698827
-0.913831
-0.91311
-1.77424
-2.15226
-2.39098
-2.49492
-2.28448
-2.51156
-1.92709
-2.54383
-1.46033
-2.56606
-0.878349
-2.20004
0.0417791
-0.527587
2.55286
-2.17871
-2.33465
-2.19375
-2.37162
-2.21939
-2.26467
-2.3417
-2.39062
-2.5044
-2.6093
-2.73828
-2.89603
-3.05313
-3.22507
-3.32457
-3.59206
-3.35122
-3.45787
-2.54401
-0.916134
-0.544308
-0.447699
-0.461632
-0.709277
-0.8221
-1.72078
-2.21501
-2.461
-2.61606
-2.31672
-2.66625
-1.93269
-2.75204
-1.463
-2.86022
-0.915339
-2.2951
0.490979
0.492966
4.67399
-2.54163
-2.07284
-2.23433
-1.8689
-1.9943
-1.85107
-1.96778
-2.01137
-2.17505
-2.28705
-2.49471
-2.66677
-2.89904
-3.13226
-3.37808
-3.52423
-3.46912
-3.46585
-2.45948
-0.756028
-0.282806
-0.0867538
-0.0997961
-0.370844
-0.644204
-1.59707
-2.23015
-2.48236
-2.71036
-2.28308
-2.6541
-1.78095
-2.67413
-1.19886
-2.71132
-0.429617
-1.6032
2.36518
3.72759
10.7147
-2.13487
-2.69276
-2.48566
-2.57051
-2.22808
-2.10132
-2.15473
-2.16757
-2.2798
-2.37478
-2.5317
-2.72482
-2.9736
-3.23887
-3.45596
-3.77741
-3.74002
-3.60086
-2.40833
-0.758834
-0.0547753
0.22062
0.154416
-0.156609
-0.615272
-1.58886
-2.22759
-2.56002
-2.83642
-2.2819
-2.71082
-1.72719
-2.80758
-1.30997
-2.92445
-0.691288
-1.55072
3.28452
7.14303
18.9668
-4.80511
-2.07837
-2.44669
-1.92792
-1.9007
-1.75415
-1.87407
-1.91815
-2.0774
-2.19522
-2.37249
-2.56857
-2.8384
-3.18391
-3.56421
-3.86222
-3.87528
-3.58811
-2.24005
-0.613853
0.278182
0.629105
0.474954
0.0857468
-0.535327
-1.59979
-2.37806
-2.63099
-2.94379
-2.25833
-2.67353
-1.53973
-2.65729
-1.07697
-2.63544
-0.130286
0.280132
7.50195
17.6033
37.5783
-0.218698
-0.252698
-0.300995
-0.315767
-0.365144
-0.394171
-0.450339
-0.483295
-0.512374
-0.558977
-0.583295
-0.661676
-0.714317
-0.762745
-0.718884
-0.752447
-0.773536
-0.746302
-0.756284
-0.660978
-0.69345
-1.19586
-1.76031
-1.58528
-1.76453
-1.61341
-1.61326
-1.5123
-1.46014
-1.34521
-1.34965
-1.2989
-1.36753
-1.35899
-1.44167
-1.47868
-1.54856
-1.53357
-1.53056