/*--------------------------------*- C++ -*----------------------------------*\
| =========                 |                                                 |
| \\      /  F ield         | OpenFOAM: The Open Source CFD Toolbox           |
|  \\    /   O peration     | Version:  v1806                                 |
|   \\  /    A nd           | Web:      www.OpenFOAM.com                      |
|    \\/     M anipulation  |                                                 |
\*---------------------------------------------------------------------------*/
FoamFile
{
    version     2.0;
    format      ascii;
    class       volVectorField;
    location    "0.101";
    object      U;
}
// * * * * * * * * * * * * * * * * * * * * * * * * * * * * * * * * * * * * * //

dimensions      [0 1 -1 0 0 0 0];


internalField   nonuniform List<vector> 
64000
(
(-0.0106245 -0.0129296 -0.0091364)
(0.0170697 -0.012484 -0.00667714)
(0.0242981 -0.00426102 -1.273e-06)
(0.0295583 -0.00339539 0.000939403)
(0.0311604 -0.0023406 0.00129848)
(0.0319066 -0.00286001 0.0017299)
(0.0318346 -0.0038641 0.00179812)
(0.0293046 -0.00443845 0.00226482)
(0.0284406 -0.00536317 0.00348832)
(0.0225276 -0.00538478 0.0038822)
(0.0163186 -0.00595374 0.00376011)
(0.0065226 -0.00671253 0.0080315)
(-0.00778005 -0.0124108 0.005475)
(-0.0331425 -0.0171971 0.00372697)
(-0.0592886 -0.0179046 0.0041868)
(-0.0954724 -0.0177404 0.00232625)
(-0.120531 -8.14204e-05 0.000846039)
(-0.165784 -0.00462109 -0.00338628)
(-0.160928 -0.00947884 0.0039987)
(-0.223645 -0.0274694 -0.0150571)
(-0.190642 -0.018946 -0.0190567)
(-0.0909114 -0.0218458 -0.0378142)
(-0.106047 -0.00540013 -0.0238066)
(-0.105386 -0.00151883 -0.0369643)
(-0.126129 0.00455617 -0.0479058)
(-0.120691 0.0126159 -0.0577611)
(-0.109776 0.0228437 -0.0622502)
(-0.0732182 0.0332248 -0.0590564)
(-0.0390684 0.0405953 -0.0544109)
(0.00472952 0.0513117 -0.0410997)
(0.0488793 0.0496886 -0.0323055)
(0.0862385 0.0393042 -0.0256753)
(0.102208 0.0292019 -0.012973)
(0.0995576 0.0153418 -0.0057126)
(0.0857921 0.00662795 0.000597159)
(0.0678058 -0.00130827 0.00316346)
(0.0494169 -0.00546571 0.00392245)
(0.0297934 -0.00512118 0.00469768)
(0.0159902 -0.00376223 0.00500806)
(0.00227126 -0.00241692 0.00316586)
(-0.007581 0.00272769 -0.00556822)
(0.00974622 -0.0168893 -0.00521376)
(0.0261883 -0.0107963 -0.00242257)
(0.0375672 -0.00697308 -0.00123019)
(0.0436531 -0.00245841 -0.00174634)
(0.0442479 -0.000750567 -0.00197848)
(0.0433791 0.00295283 -0.00366117)
(0.0370319 0.00451573 -0.00305581)
(0.0301513 0.00894706 -0.00807298)
(0.0136002 0.0157593 -0.00374118)
(-0.00826118 0.0239828 -0.00842927)
(-0.0442384 0.0333986 0.000843897)
(-0.0893971 0.0418644 -0.00423765)
(-0.141726 0.0618747 -0.0068899)
(-0.198937 0.0751328 -0.0117334)
(-0.255858 0.0841849 -0.0180039)
(-0.330242 0.092697 -0.044873)
(-0.436161 0.0944664 -0.059641)
(-0.479273 0.100924 -0.0773697)
(-0.566025 0.100665 -0.097197)
(-0.513144 0.130694 -0.0917995)
(-0.385048 0.145838 -0.125364)
(-0.381805 0.192975 -0.133495)
(-0.368247 0.215503 -0.144628)
(-0.362244 0.239778 -0.156642)
(-0.323708 0.260968 -0.163083)
(-0.277004 0.281917 -0.164549)
(-0.204572 0.296897 -0.152956)
(-0.130603 0.303156 -0.133409)
(-0.0569859 0.306272 -0.109884)
(0.00600502 0.291705 -0.0770773)
(0.0693336 0.260615 -0.0465249)
(0.107182 0.213182 -0.0391582)
(0.119669 0.160998 -0.0261674)
(0.114802 0.110853 -0.0130443)
(0.0964356 0.0711674 -0.00554031)
(0.0773429 0.0427774 -0.0012442)
(0.0533248 0.0277676 -0.000256062)
(0.0319631 0.0178664 0.00106322)
(0.00776509 0.00949085 0.00099855)
(-0.000133148 -0.00430163 0.0013852)
(0.0165394 -0.0224823 -0.00233586)
(0.0342985 -0.0174785 -0.00339067)
(0.0456718 -0.00546448 -0.00476484)
(0.0481995 0.00374584 -0.00631151)
(0.0465431 0.0146305 -0.00760519)
(0.0399865 0.029449 -0.00857384)
(0.0256451 0.0432487 -0.0103679)
(0.0112483 0.0674906 -0.00164915)
(-0.0175672 0.0892699 -0.00500318)
(-0.0549447 0.116065 -0.0083009)
(-0.106871 0.148171 -0.0131613)
(-0.159593 0.18201 -0.0176883)
(-0.237155 0.211175 -0.0328789)
(-0.331181 0.231666 -0.0364715)
(-0.42715 0.24596 -0.0430159)
(-0.508586 0.250611 -0.0602057)
(-0.596639 0.269969 -0.0794223)
(-0.634931 0.301561 -0.0973814)
(-0.70683 0.337485 -0.115969)
(-0.639036 0.375429 -0.10253)
(-0.483998 0.40835 -0.124476)
(-0.45806 0.465359 -0.123942)
(-0.433388 0.495087 -0.123131)
(-0.418421 0.527083 -0.126624)
(-0.375472 0.548139 -0.125346)
(-0.328311 0.56263 -0.120652)
(-0.261987 0.565183 -0.105134)
(-0.197387 0.555035 -0.0827481)
(-0.131004 0.534197 -0.0595157)
(-0.076325 0.501637 -0.0399736)
(-0.0310585 0.453596 -0.0280746)
(0.00187666 0.381056 -0.0176609)
(0.0245118 0.308097 -0.00892731)
(0.0384446 0.229124 -0.010737)
(0.0449287 0.164742 -0.0110451)
(0.0458673 0.117956 -0.00748784)
(0.0372791 0.0812647 -0.00533106)
(0.0266682 0.0550414 -0.00179242)
(0.00774043 0.0290701 0.000848733)
(0.00132435 -0.00851714 0.00184636)
(0.0187809 -0.0239077 -0.00155612)
(0.0401959 -0.0114348 -0.00417382)
(0.0483482 0.0050824 -0.00745082)
(0.0466028 0.028935 -0.00817121)
(0.0432185 0.0529555 -0.00950519)
(0.0307467 0.0881309 -0.00956107)
(0.0132699 0.120836 -0.00593585)
(-0.0123217 0.16621 -0.010806)
(-0.0574034 0.205799 -0.0130802)
(-0.102562 0.249942 -0.0176177)
(-0.165947 0.287921 -0.0250445)
(-0.247089 0.317378 -0.0282264)
(-0.337359 0.333943 -0.0297052)
(-0.421629 0.356026 -0.0327418)
(-0.500433 0.379353 -0.037283)
(-0.566486 0.410591 -0.0530942)
(-0.641429 0.439827 -0.0635461)
(-0.666064 0.483793 -0.0736063)
(-0.725471 0.530561 -0.078415)
(-0.645708 0.562582 -0.0436884)
(-0.469296 0.587532 -0.0460659)
(-0.430293 0.628633 -0.0386783)
(-0.405454 0.634082 -0.0293952)
(-0.391398 0.647282 -0.0278489)
(-0.357376 0.647117 -0.0231025)
(-0.321948 0.639794 -0.0196555)
(-0.272223 0.620385 -0.0117941)
(-0.225267 0.594349 0.000148598)
(-0.179566 0.560783 0.00739793)
(-0.149251 0.519039 0.0121693)
(-0.123071 0.473159 0.0108646)
(-0.0989017 0.412568 0.00489315)
(-0.0757705 0.350516 -0.00294056)
(-0.0517457 0.271835 -0.00635273)
(-0.0213505 0.204897 -0.0109518)
(-0.000464121 0.150731 -0.011237)
(0.00801959 0.114562 -0.00848822)
(0.0161544 0.0815674 -0.00395854)
(0.00607935 0.0421816 0.000609453)
(0.00123169 -0.0092077 0.000311396)
(0.0243107 -0.0132405 -0.00407256)
(0.047388 0.00350208 -0.00820003)
(0.0567019 0.0369315 -0.00912539)
(0.0544407 0.0739402 -0.00895958)
(0.0489725 0.119266 -0.0160306)
(0.0317498 0.173889 -0.0142998)
(0.00451849 0.233299 -0.00684144)
(-0.0273318 0.289407 -0.00838261)
(-0.0795424 0.336965 -0.0106728)
(-0.137873 0.375171 -0.0137217)
(-0.214872 0.396429 -0.016342)
(-0.288096 0.419139 -0.0168298)
(-0.361498 0.444069 -0.0218247)
(-0.431693 0.474874 -0.0220479)
(-0.499786 0.508054 -0.0228211)
(-0.553255 0.53772 -0.0274961)
(-0.609898 0.571895 -0.025927)
(-0.614842 0.623495 -0.019701)
(-0.659551 0.67159 -0.0266947)
(-0.580356 0.697848 0.00844371)
(-0.397552 0.706701 0.0169218)
(-0.355291 0.718088 0.0299702)
(-0.33985 0.689326 0.0367478)
(-0.338037 0.673009 0.03633)
(-0.323224 0.646215 0.0420892)
(-0.30757 0.614619 0.043034)
(-0.27651 0.577266 0.0467102)
(-0.250255 0.535839 0.039808)
(-0.224419 0.49535 0.0312162)
(-0.20565 0.449806 0.0209285)
(-0.195395 0.416018 0.0140299)
(-0.185815 0.377215 0.00675141)
(-0.17645 0.345799 -0.00517721)
(-0.152706 0.282628 -0.0145663)
(-0.103634 0.213236 -0.0153526)
(-0.0524516 0.165146 -0.0144387)
(-0.0172872 0.134796 -0.0121828)
(0.00257531 0.100867 -0.0067382)
(0.00313694 0.0527092 0.000627222)
(0.00592558 -0.00348679 -0.000233642)
(0.0291056 0.00209915 -0.0069553)
(0.0607245 0.0287521 -0.00694472)
(0.0728613 0.0794626 -0.0103204)
(0.0678918 0.136853 -0.0153615)
(0.0650978 0.199977 -0.0195041)
(0.0491835 0.274359 -0.0149447)
(0.0165031 0.329153 -0.00661557)
(-0.0342084 0.374421 -0.00666037)
(-0.102643 0.409391 -0.00896445)
(-0.170607 0.439902 -0.0110478)
(-0.23496 0.467882 -0.0111124)
(-0.292488 0.50213 -0.00945724)
(-0.350396 0.531249 -0.00625758)
(-0.398663 0.561645 -0.000831745)
(-0.451053 0.59067 0.00490388)
(-0.482909 0.621465 0.00858835)
(-0.515351 0.652764 0.00830278)
(-0.513416 0.7031 0.00851833)
(-0.546719 0.740499 0.0095387)
(-0.470101 0.761344 0.0429446)
(-0.305366 0.717278 0.054056)
(-0.281077 0.699064 0.0662542)
(-0.287313 0.639007 0.0763417)
(-0.299905 0.599844 0.077348)
(-0.304248 0.556668 0.0762568)
(-0.304493 0.514587 0.0733397)
(-0.293591 0.471837 0.066367)
(-0.280512 0.424702 0.0641524)
(-0.268721 0.385329 0.042425)
(-0.259574 0.341223 0.030592)
(-0.248423 0.310347 0.0147361)
(-0.234089 0.283516 0.00465668)
(-0.238519 0.271693 -0.00693967)
(-0.240362 0.246972 -0.0183718)
(-0.17569 0.197777 -0.0155494)
(-0.093386 0.166169 -0.0160904)
(-0.0408738 0.140564 -0.0126071)
(-0.00516215 0.108938 -0.007544)
(0.00218441 0.0567001 0.00114438)
(0.00599404 0.00240781 -0.00162367)
(0.0380644 0.016031 -0.0102239)
(0.0811824 0.0563987 -0.0108844)
(0.105644 0.111102 -0.0130597)
(0.101768 0.177264 -0.018481)
(0.0989863 0.249212 -0.0215938)
(0.0624633 0.317629 -0.0157791)
(0.000345221 0.345079 -0.000155097)
(-0.0497169 0.3894 -0.00523578)
(-0.105386 0.427377 -0.00584292)
(-0.152383 0.47224 -0.00577305)
(-0.201906 0.515779 -0.0037296)
(-0.247073 0.556895 1.6346e-05)
(-0.293472 0.591008 0.00458)
(-0.332293 0.624938 0.0130178)
(-0.367498 0.650301 0.018122)
(-0.387936 0.679164 0.024911)
(-0.407198 0.692157 0.0280143)
(-0.391637 0.717135 0.0272309)
(-0.413825 0.730895 0.0173432)
(-0.397171 0.74906 0.03928)
(-0.263135 0.639504 0.0571912)
(-0.228187 0.597794 0.0636804)
(-0.252394 0.533558 0.0742506)
(-0.275951 0.49332 0.0733398)
(-0.297666 0.454659 0.071899)
(-0.314139 0.420136 0.0675306)
(-0.320179 0.38496 0.0595109)
(-0.320162 0.347659 0.0457347)
(-0.320774 0.312682 0.0291613)
(-0.317874 0.279059 0.0155257)
(-0.309836 0.250411 0.00210195)
(-0.294321 0.229152 -0.0053673)
(-0.286675 0.213592 -0.0129614)
(-0.289162 0.223312 -0.0210051)
(-0.227851 0.198272 -0.0220258)
(-0.12821 0.172553 -0.0227113)
(-0.0562016 0.151965 -0.0176251)
(-0.0103942 0.118742 -0.0114373)
(0.00214742 0.0623412 -0.000592474)
(0.00701451 0.00885523 -0.00418467)
(0.0456518 0.0351112 -0.0140496)
(0.099596 0.0837816 -0.0142133)
(0.126092 0.139886 -0.012276)
(0.129037 0.199252 -0.0133239)
(0.119132 0.271495 -0.0154662)
(0.0594133 0.305464 -0.00558441)
(0.00985527 0.351512 0.00302059)
(-0.0185671 0.397413 -0.00152538)
(-0.0675039 0.452747 0.000203156)
(-0.107589 0.49802 0.000796808)
(-0.149118 0.537267 0.0071538)
(-0.185021 0.571477 0.0127809)
(-0.216766 0.599343 0.021219)
(-0.242374 0.6264 0.0255709)
(-0.271115 0.641969 0.0303387)
(-0.287616 0.655287 0.033618)
(-0.305596 0.652712 0.0329711)
(-0.300422 0.651181 0.0302177)
(-0.314119 0.623591 0.0143968)
(-0.34901 0.632279 0.0194387)
(-0.263314 0.537947 0.0387566)
(-0.208754 0.471012 0.0414839)
(-0.239053 0.428524 0.0527357)
(-0.270602 0.395204 0.0553001)
(-0.303583 0.369587 0.0559433)
(-0.330393 0.344531 0.0562539)
(-0.348394 0.317746 0.0481415)
(-0.359962 0.290141 0.0376863)
(-0.366913 0.259286 0.0149852)
(-0.368404 0.227294 0.00513066)
(-0.358673 0.201768 -0.00436647)
(-0.343005 0.188545 -0.0117233)
(-0.322472 0.177823 -0.0151905)
(-0.32808 0.198127 -0.0246881)
(-0.277717 0.202136 -0.0219244)
(-0.162622 0.178434 -0.0233703)
(-0.074894 0.161624 -0.0180702)
(-0.0155642 0.126288 -0.0110394)
(0.00303565 0.0665756 0.000203496)
(0.00554513 0.0234123 -0.00713845)
(0.0540684 0.0674285 -0.0181322)
(0.119973 0.123338 -0.0197812)
(0.152657 0.179547 -0.0143967)
(0.161409 0.240182 -0.014987)
(0.132828 0.29395 -0.015681)
(0.0798781 0.327199 -0.0060066)
(0.0397772 0.387664 0.00167561)
(0.0151478 0.425386 0.00827321)
(-0.016707 0.467712 0.00729214)
(-0.0553134 0.502705 0.0118919)
(-0.0862282 0.532715 0.0168473)
(-0.11167 0.555486 0.0252217)
(-0.135557 0.569906 0.0312374)
(-0.158399 0.575961 0.0337755)
(-0.183532 0.572429 0.034401)
(-0.204006 0.56713 0.0333104)
(-0.229704 0.549561 0.0286871)
(-0.249084 0.536173 0.0224424)
(-0.263601 0.500006 0.00842525)
(-0.313725 0.493324 -0.000746098)
(-0.285533 0.452516 0.0139627)
(-0.220759 0.366369 0.02114)
(-0.236776 0.350328 0.029136)
(-0.274008 0.326652 0.0363032)
(-0.311941 0.311218 0.0401241)
(-0.348335 0.293833 0.0447997)
(-0.374176 0.27162 0.0397483)
(-0.395759 0.248253 0.0231805)
(-0.412891 0.214368 0.00632922)
(-0.414794 0.188621 -0.00320814)
(-0.4015 0.165171 -0.010882)
(-0.385369 0.151361 -0.0148875)
(-0.355049 0.150817 -0.0246908)
(-0.343235 0.162943 -0.0273289)
(-0.308144 0.198164 -0.0311)
(-0.198612 0.182223 -0.0269553)
(-0.0904697 0.172048 -0.0253246)
(-0.0207969 0.137281 -0.0141863)
(0.00396192 0.0738647 -0.00201944)
(0.00785206 0.0397747 -0.00976006)
(0.0632905 0.105344 -0.0259491)
(0.138797 0.165524 -0.0249843)
(0.178171 0.219642 -0.0155909)
(0.18149 0.274165 -0.0166663)
(0.152438 0.308093 -0.0168793)
(0.112149 0.354476 -0.00702475)
(0.0806239 0.402484 0.00411685)
(0.0519606 0.443246 0.0112315)
(0.0260255 0.469684 0.0218838)
(0.00286972 0.494145 0.0212379)
(-0.0242633 0.508088 0.0301918)
(-0.0486287 0.513817 0.0359463)
(-0.0706266 0.508126 0.041494)
(-0.0929196 0.493605 0.0416466)
(-0.119786 0.471014 0.0384589)
(-0.146226 0.448485 0.0329738)
(-0.176352 0.42125 0.0253391)
(-0.206274 0.403222 0.0167856)
(-0.234313 0.383358 0.00296492)
(-0.288279 0.368684 -0.0099755)
(-0.30948 0.364908 -0.00419684)
(-0.245963 0.30197 0.0102701)
(-0.232271 0.298089 0.0137144)
(-0.274733 0.280512 0.025203)
(-0.313702 0.272239 0.0314586)
(-0.355848 0.253573 0.0407223)
(-0.389753 0.237195 0.0333222)
(-0.420209 0.207104 0.0238851)
(-0.435296 0.179841 0.00639419)
(-0.440403 0.151168 0.00689865)
(-0.434005 0.127817 0.0148732)
(-0.41404 0.108586 0.0107406)
(-0.386165 0.108876 0.0076637)
(-0.364373 0.121362 -0.0164262)
(-0.331677 0.168589 -0.0266696)
(-0.229225 0.179529 -0.0264012)
(-0.108878 0.172268 -0.0220344)
(-0.0267817 0.145037 -0.0134838)
(0.00480058 0.078406 -0.000886823)
(0.00885523 0.0642844 -0.0124204)
(0.072495 0.149859 -0.032219)
(0.156939 0.213523 -0.031452)
(0.20254 0.263081 -0.0198429)
(0.201807 0.302293 -0.0127448)
(0.177547 0.336247 -0.0168077)
(0.152871 0.37681 -0.00624258)
(0.12317 0.415603 0.000715512)
(0.0994267 0.445701 0.00841139)
(0.0723787 0.468205 0.0239011)
(0.0457792 0.477289 0.0338326)
(0.0253992 0.477181 0.0440221)
(0.00554956 0.466543 0.0480008)
(-0.0193073 0.441637 0.0481884)
(-0.0479273 0.415933 0.0472969)
(-0.0786937 0.383368 0.040529)
(-0.111424 0.354939 0.0316739)
(-0.147305 0.327211 0.0220827)
(-0.180285 0.30831 0.0134479)
(-0.216553 0.29655 0.000302637)
(-0.267881 0.284988 -0.00959254)
(-0.303053 0.289392 -0.00912238)
(-0.24733 0.271666 0.00397959)
(-0.223513 0.263674 0.00589845)
(-0.263522 0.250658 0.0189217)
(-0.305321 0.238647 0.0266407)
(-0.352984 0.223767 0.0352914)
(-0.391147 0.20117 0.0316661)
(-0.425371 0.17534 0.018451)
(-0.448672 0.144469 0.0276759)
(-0.462878 0.10876 0.029484)
(-0.462717 0.0795492 0.0153223)
(-0.447212 0.0611234 0.0109392)
(-0.412069 0.0580781 0.00171316)
(-0.3728 0.0715402 -0.00295885)
(-0.340955 0.121391 -0.0256787)
(-0.254091 0.159521 -0.0294682)
(-0.126579 0.170092 -0.0243441)
(-0.030278 0.150304 -0.0154472)
(0.00413342 0.0846137 -0.00259243)
(0.010225 0.0835923 -0.0131847)
(0.078538 0.189811 -0.0362667)
(0.170986 0.256216 -0.034855)
(0.216313 0.295443 -0.0190539)
(0.221245 0.323938 -0.0116987)
(0.207515 0.357456 -0.00913124)
(0.187946 0.390469 -0.00817196)
(0.163721 0.4155 0.0037072)
(0.138265 0.436992 0.0093855)
(0.11456 0.446501 0.0202782)
(0.0932308 0.45139 0.0299741)
(0.0663957 0.441393 0.0493199)
(0.0376716 0.420744 0.0532269)
(0.016145 0.38548 0.0557666)
(-0.0116518 0.350482 0.04802)
(-0.0482361 0.319482 0.0396073)
(-0.0844102 0.294023 0.0275475)
(-0.123372 0.271586 0.0171653)
(-0.157953 0.260081 0.00908414)
(-0.199329 0.251955 -0.00320756)
(-0.248984 0.24623 -0.00949353)
(-0.279312 0.247696 -0.00967302)
(-0.229877 0.252832 0.000690827)
(-0.204958 0.238345 0.001283)
(-0.243976 0.222708 0.0141292)
(-0.283166 0.206633 0.0226273)
(-0.333604 0.190475 0.0300906)
(-0.375186 0.166732 0.0233592)
(-0.414234 0.139103 0.0366336)
(-0.447269 0.102885 0.0431104)
(-0.468267 0.0667921 0.0355602)
(-0.471661 0.0381812 0.0451461)
(-0.463141 0.0172877 0.0375727)
(-0.439796 0.0128897 0.0357677)
(-0.398131 0.0210548 0.0246593)
(-0.354669 0.0658538 0.00161773)
(-0.267739 0.122474 -0.0266418)
(-0.140755 0.156934 -0.0260366)
(-0.0367133 0.148523 -0.0150431)
(0.00520873 0.0872352 -0.00250206)
(0.0107542 0.105667 -0.0122062)
(0.0837341 0.231298 -0.0385444)
(0.177536 0.298803 -0.0377497)
(0.228664 0.328615 -0.0200444)
(0.244423 0.352048 -0.00722454)
(0.239121 0.376456 -0.00167018)
(0.221181 0.400597 0.00210418)
(0.197965 0.415968 0.00294669)
(0.178559 0.426667 0.0109324)
(0.156352 0.429633 0.0227421)
(0.131283 0.421826 0.0316197)
(0.104929 0.403721 0.0390092)
(0.0739595 0.377212 0.050118)
(0.0398227 0.344681 0.053466)
(0.0124102 0.30452 0.050227)
(-0.0198495 0.273809 0.0362305)
(-0.0613388 0.253158 0.02285)
(-0.100375 0.23623 0.012831)
(-0.13522 0.230304 0.00501119)
(-0.177649 0.222451 -0.00420275)
(-0.222709 0.221348 -0.00845685)
(-0.2412 0.2212 -0.0071216)
(-0.196898 0.239236 -0.000531929)
(-0.182233 0.215747 -0.00109975)
(-0.214661 0.195435 0.0108217)
(-0.252553 0.174975 0.0184482)
(-0.301698 0.152348 0.0227627)
(-0.346362 0.129582 0.0311175)
(-0.392541 0.0969204 0.0444161)
(-0.432534 0.0611441 0.0444602)
(-0.457405 0.0285202 0.065203)
(-0.477227 -0.00851231 0.0491408)
(-0.481243 -0.04568 0.0332416)
(-0.465682 -0.0666785 0.0106625)
(-0.423744 -0.055976 0.00371307)
(-0.374807 -0.0116131 0.00702759)
(-0.288074 0.0711621 -0.00418653)
(-0.157036 0.129179 -0.0320005)
(-0.0418822 0.143081 -0.0149686)
(0.00490518 0.0913894 -0.00412791)
(0.0104652 0.112991 -0.0115274)
(0.0824958 0.254965 -0.0410793)
(0.178343 0.325568 -0.041864)
(0.235424 0.35302 -0.0231675)
(0.261904 0.368157 -0.00508212)
(0.264183 0.381196 0.00468415)
(0.24889 0.39415 0.0105748)
(0.227562 0.40324 0.0135047)
(0.208708 0.409231 0.0165209)
(0.187209 0.404685 0.0209206)
(0.16506 0.391114 0.0245987)
(0.135107 0.367897 0.0370691)
(0.101358 0.337589 0.0380418)
(0.0657362 0.305432 0.0445382)
(0.0308544 0.275398 0.0454886)
(0.00123734 0.242354 0.0335769)
(-0.036297 0.226427 0.0184538)
(-0.0740921 0.212588 0.00954355)
(-0.108733 0.208621 0.00218077)
(-0.148574 0.201268 -0.00406402)
(-0.186906 0.200233 -0.00633903)
(-0.188084 0.207002 -0.00274964)
(-0.155502 0.225869 -0.00142371)
(-0.156561 0.193824 -0.000103571)
(-0.183569 0.169454 0.00690854)
(-0.217627 0.140881 0.0144216)
(-0.262342 0.118431 0.0156101)
(-0.306646 0.0894706 0.0338948)
(-0.356925 0.0578293 0.0403829)
(-0.395636 0.0267589 0.0630112)
(-0.440075 -0.0131098 0.0486363)
(-0.480394 -0.0645875 0.0386094)
(-0.497283 -0.111628 0.0234008)
(-0.483609 -0.144594 0.0116657)
(-0.441395 -0.147273 -0.00878391)
(-0.380941 -0.107946 -0.00751582)
(-0.295798 -0.00932535 -0.000625966)
(-0.17364 0.0848097 -0.0179582)
(-0.0472827 0.127093 -0.0205666)
(0.00643188 0.0904295 -0.00250007)
(0.00937461 0.122767 -0.00905748)
(0.0820161 0.278962 -0.040059)
(0.179363 0.354458 -0.042958)
(0.242958 0.379242 -0.0238452)
(0.276452 0.386726 -0.00336464)
(0.28416 0.387055 0.0109088)
(0.274374 0.389986 0.0203128)
(0.25808 0.392702 0.0228802)
(0.241683 0.393008 0.0252991)
(0.219583 0.384024 0.0276121)
(0.194579 0.368048 0.0288869)
(0.164941 0.340545 0.0279236)
(0.130015 0.311841 0.0265103)
(0.0930832 0.277794 0.0292858)
(0.0531044 0.251229 0.0337721)
(0.0217098 0.225616 0.0280076)
(-0.0108101 0.204197 0.0137773)
(-0.0468771 0.19548 0.00687699)
(-0.0783011 0.190916 9.5987e-05)
(-0.115108 0.181743 -0.00339283)
(-0.138342 0.18359 -0.00267459)
(-0.128261 0.204 0.00163197)
(-0.116435 0.200203 0.000411704)
(-0.13464 0.168921 0.00238681)
(-0.155254 0.140543 0.00657324)
(-0.182536 0.108991 0.0106504)
(-0.221861 0.0835437 0.02252)
(-0.266287 0.0526524 0.0300381)
(-0.3078 0.0245566 0.0483464)
(-0.358442 -0.0107666 0.0443873)
(-0.415512 -0.062471 0.0402206)
(-0.463998 -0.1156 0.0296563)
(-0.493943 -0.167926 0.0179786)
(-0.495612 -0.209998 0.00197062)
(-0.46023 -0.229414 -0.0144122)
(-0.392414 -0.200845 -0.0212381)
(-0.303187 -0.111725 -0.0191143)
(-0.18577 0.0297606 0.00166687)
(-0.0554027 0.106483 -0.0276262)
(0.00509965 0.0929104 -0.00377294)
(0.00711062 0.104995 -0.00981143)
(0.0759366 0.27454 -0.040558)
(0.173818 0.356198 -0.0425497)
(0.242247 0.381997 -0.0233219)
(0.282937 0.384363 0.000148742)
(0.298412 0.380944 0.0148899)
(0.296116 0.378652 0.0210287)
(0.282317 0.373859 0.0247195)
(0.265725 0.36615 0.0267619)
(0.245391 0.354601 0.0274704)
(0.220935 0.336197 0.0265989)
(0.189594 0.31318 0.0243935)
(0.152463 0.284462 0.0198813)
(0.113803 0.255789 0.0132795)
(0.0770298 0.229469 0.0143111)
(0.0406844 0.213398 0.016717)
(0.0120469 0.193947 0.0104924)
(-0.0128082 0.184506 0.00309954)
(-0.0472061 0.175812 -0.00247023)
(-0.075274 0.174022 -0.00120744)
(-0.076964 0.184371 0.00198257)
(-0.0787318 0.189711 0.00316002)
(-0.0918792 0.169552 0.00447449)
(-0.111024 0.141632 0.00602046)
(-0.131613 0.11626 0.00609538)
(-0.153847 0.0834681 0.00947598)
(-0.187039 0.0561871 0.0162824)
(-0.221858 0.0240443 0.0313133)
(-0.265736 -0.00569215 0.035305)
(-0.320051 -0.0530331 0.0362661)
(-0.377648 -0.102982 0.0318079)
(-0.431385 -0.161045 0.0267816)
(-0.469795 -0.220421 0.0160467)
(-0.485464 -0.276105 0.00218203)
(-0.462803 -0.309964 -0.0157159)
(-0.40256 -0.300114 -0.02805)
(-0.297006 -0.222353 -0.0316392)
(-0.187465 -0.0683909 -0.0191752)
(-0.06556 0.0619571 -0.0195051)
(0.006443 0.0834396 -0.00736354)
(0.00848845 0.109436 -0.00309892)
(0.0764147 0.285633 -0.033693)
(0.173107 0.37111 -0.0386471)
(0.24764 0.394253 -0.0184712)
(0.297878 0.390514 0.00675763)
(0.321951 0.377986 0.0152454)
(0.321359 0.368668 0.0234319)
(0.308034 0.358124 0.0250764)
(0.294178 0.350051 0.0242021)
(0.274524 0.336051 0.0214484)
(0.251327 0.317235 0.0182582)
(0.220629 0.291722 0.0136561)
(0.182154 0.264993 0.00954674)
(0.142037 0.236925 0.00651256)
(0.105022 0.215582 0.00351569)
(0.0712986 0.200367 0.00483594)
(0.0394959 0.193047 0.00251273)
(0.013069 0.190405 0.000121095)
(-0.00790696 0.184477 -0.000613214)
(-0.0214024 0.188305 0.00086009)
(-0.0337517 0.185218 0.00393565)
(-0.0511108 0.166117 0.00657671)
(-0.0690982 0.145058 0.00840188)
(-0.0892042 0.118603 0.00905405)
(-0.109903 0.0955416 0.00998982)
(-0.130964 0.065205 0.00926074)
(-0.159046 0.0351647 0.0190757)
(-0.193121 0.00373583 0.0232206)
(-0.235117 -0.0357584 0.0250622)
(-0.287846 -0.0796634 0.0255346)
(-0.342939 -0.129058 0.0263851)
(-0.395891 -0.18717 0.0236304)
(-0.438631 -0.25048 0.017178)
(-0.463571 -0.316982 0.00467615)
(-0.453474 -0.367115 -0.0121788)
(-0.40319 -0.381877 -0.0289927)
(-0.307563 -0.319052 -0.0413874)
(-0.192341 -0.174456 -0.0315127)
(-0.0627072 0.0155613 -0.00969923)
(0.00616055 0.0766175 -0.0130106)
(-0.00155682 0.0839778 -0.0153169)
(0.0556505 0.268252 -0.0405435)
(0.154163 0.364556 -0.0464905)
(0.236606 0.390454 -0.0259031)
(0.296602 0.389557 -0.00341548)
(0.332787 0.370197 0.0104276)
(0.344278 0.353633 0.0162194)
(0.336282 0.334926 0.0169277)
(0.321925 0.321867 0.0147981)
(0.300053 0.313536 0.0112015)
(0.273682 0.30546 0.0080107)
(0.240988 0.293826 0.00547044)
(0.201996 0.276598 0.00268542)
(0.163564 0.257539 0.00172816)
(0.131768 0.238812 0.00096173)
(0.102518 0.228333 0.00419956)
(0.0828187 0.227179 -0.000151116)
(0.0593661 0.226713 -0.00290379)
(0.0332007 0.218678 -0.00122538)
(0.0100354 0.2053 0.00133313)
(-0.0130125 0.18038 0.00686008)
(-0.0316337 0.154292 0.00941318)
(-0.0517 0.129085 0.0108325)
(-0.0711798 0.103591 0.0123636)
(-0.092067 0.0790023 0.0134883)
(-0.114873 0.0523878 0.0106634)
(-0.139335 0.020122 0.00953142)
(-0.170886 -0.0130898 0.0106521)
(-0.209505 -0.055477 0.0123295)
(-0.25336 -0.103249 0.0151328)
(-0.301979 -0.155442 0.0166896)
(-0.35188 -0.21949 0.0165963)
(-0.396394 -0.289549 0.0122998)
(-0.42817 -0.367532 0.00291278)
(-0.431248 -0.433272 -0.0127417)
(-0.391543 -0.468504 -0.0291295)
(-0.30222 -0.424087 -0.054199)
(-0.189464 -0.29186 -0.0465666)
(-0.0612581 -0.0626735 -0.0140379)
(0.00379233 0.0603487 -0.00261909)
(-0.00175276 0.148222 -0.00464671)
(0.0524419 0.347198 -0.0190545)
(0.144717 0.44647 -0.0305622)
(0.230813 0.468089 -0.011001)
(0.299763 0.456953 -0.00345457)
(0.341038 0.424226 0.012597)
(0.356793 0.387395 0.0153542)
(0.35288 0.372385 0.0180347)
(0.353513 0.383205 0.0151965)
(0.344785 0.391649 0.0106541)
(0.324115 0.392345 0.0048406)
(0.288604 0.38333 -0.000214168)
(0.243913 0.362639 -0.0037987)
(0.198753 0.336508 -0.00481026)
(0.164419 0.308755 -0.00319072)
(0.143331 0.285926 7.48837e-05)
(0.118856 0.268798 0.0035597)
(0.0849253 0.248526 -0.0048644)
(0.0519372 0.231042 -0.00361321)
(0.022044 0.201332 -0.00155278)
(-0.00342478 0.176503 0.00598365)
(-0.0219763 0.144459 0.00891433)
(-0.0398768 0.119104 0.0106255)
(-0.0586418 0.0924762 0.0124768)
(-0.0777112 0.0675872 0.0134767)
(-0.101368 0.042439 0.0104424)
(-0.127496 0.0137978 0.00682491)
(-0.159341 -0.0192452 0.00154819)
(-0.19898 -0.0561459 0.0020084)
(-0.239133 -0.100626 0.00444554)
(-0.282417 -0.148817 0.00875797)
(-0.325356 -0.21072 0.0119285)
(-0.365913 -0.282153 0.0122143)
(-0.398728 -0.368405 0.00600802)
(-0.407491 -0.451831 -0.00793383)
(-0.376384 -0.517482 -0.0267575)
(-0.304732 -0.518985 -0.058751)
(-0.19237 -0.394281 -0.0586931)
(-0.0540587 -0.178614 -0.0328434)
(0.00675601 0.0219768 -0.00355577)
(-0.0175992 0.23022 -0.024301)
(0.0209377 0.469581 -0.0417321)
(0.112183 0.579204 -0.050165)
(0.198574 0.617972 -0.0343191)
(0.271192 0.608123 -0.0227557)
(0.32021 0.576939 -0.00545385)
(0.365792 0.530631 0.00291012)
(0.410953 0.503465 0.0037462)
(0.422506 0.498519 -0.00359924)
(0.393817 0.483837 -0.00863754)
(0.354364 0.462018 -0.0114648)
(0.303713 0.432904 -0.0120201)
(0.248947 0.397266 -0.011523)
(0.201888 0.359237 -0.00957007)
(0.169315 0.325472 -0.00721692)
(0.146221 0.291772 -0.00250953)
(0.126775 0.259703 0.00224696)
(0.101815 0.233109 0.00585422)
(0.0648569 0.21411 -0.00131396)
(0.0333762 0.187996 0.00117998)
(0.00634869 0.16389 0.00411989)
(-0.0144829 0.131655 0.009162)
(-0.0299226 0.106222 0.0099808)
(-0.0486173 0.0794677 0.0124437)
(-0.0657613 0.0536293 0.0101526)
(-0.0879127 0.0250303 0.0105922)
(-0.113033 -0.000403206 0.00904021)
(-0.141437 -0.028664 0.00309677)
(-0.174926 -0.0606696 -0.00327153)
(-0.207331 -0.109552 -0.00780058)
(-0.244717 -0.164828 -0.0105234)
(-0.283473 -0.237218 -0.0123777)
(-0.32172 -0.316656 -0.0134156)
(-0.357975 -0.415902 -0.0161351)
(-0.382635 -0.513547 -0.0247509)
(-0.381417 -0.61099 -0.0424045)
(-0.312643 -0.639225 -0.0657699)
(-0.230193 -0.538446 -0.0800895)
(-0.0899939 -0.255713 -0.0384585)
(0.013103 0.0129112 -0.00212901)
(0.0010686 0.204522 0.000259849)
(0.040426 0.449108 -0.0374272)
(0.116749 0.574884 -0.0501274)
(0.203916 0.632762 -0.046306)
(0.276303 0.638685 -0.0371109)
(0.326683 0.620902 -0.0265725)
(0.365876 0.585279 -0.0199969)
(0.404492 0.539705 -0.00972499)
(0.418093 0.496987 -0.0112562)
(0.393637 0.461404 -0.010474)
(0.359896 0.429181 -0.00997765)
(0.312727 0.398879 -0.00769702)
(0.260206 0.36352 -0.00529533)
(0.216231 0.332144 -0.00214965)
(0.184228 0.302938 -0.000171976)
(0.161947 0.273395 0.0028906)
(0.141532 0.242888 0.00622556)
(0.118461 0.212633 0.00902177)
(0.0836821 0.192365 0.0113441)
(0.0460992 0.172921 0.00314902)
(0.0123923 0.147732 0.00562071)
(-0.00913025 0.119151 0.00956574)
(-0.0224861 0.0925531 0.0109868)
(-0.0413986 0.0642309 0.0130462)
(-0.0604246 0.0370596 0.00802613)
(-0.0800421 0.0071776 0.0118502)
(-0.0996278 -0.0146892 0.0132454)
(-0.128312 -0.0402142 0.00909787)
(-0.173601 -0.0617166 0.00525874)
(-0.214595 -0.0988979 0.00583274)
(-0.250785 -0.145124 0.00648188)
(-0.280778 -0.216307 0.00550444)
(-0.307557 -0.308322 0.0015958)
(-0.327364 -0.44639 -0.00810605)
(-0.346495 -0.594726 -0.0168271)
(-0.344813 -0.735253 -0.0271322)
(-0.291486 -0.805345 -0.0506993)
(-0.181747 -0.766683 -0.0648901)
(-0.059737 -0.472948 -0.067464)
(-0.00118893 -0.103684 0.00805509)
(0.000993532 0.217077 -0.00253383)
(0.038331 0.4365 -0.033597)
(0.107406 0.560084 -0.0445323)
(0.187304 0.616401 -0.0427572)
(0.258213 0.623195 -0.0270837)
(0.312684 0.601545 -0.021699)
(0.357194 0.564179 -0.0130751)
(0.401087 0.522164 -0.00533693)
(0.42229 0.47821 -0.00581084)
(0.404191 0.445992 -0.00484717)
(0.370539 0.416329 -0.0039243)
(0.319447 0.383578 -0.00202964)
(0.26635 0.347814 0.000772578)
(0.226784 0.316002 0.0027921)
(0.195708 0.286949 0.00427829)
(0.17011 0.256433 0.00662003)
(0.147679 0.22519 0.00963869)
(0.13005 0.188897 0.0140858)
(0.100661 0.164584 0.0143503)
(0.0612191 0.145067 0.0147253)
(0.0224649 0.126383 0.00806172)
(-0.00157784 0.10013 0.0106309)
(-0.0175578 0.0732126 0.0121715)
(-0.0365649 0.0449303 0.0112179)
(-0.0537903 0.0191927 0.0107556)
(-0.0676359 -0.0061649 0.0131924)
(-0.0831617 -0.0279835 0.0130844)
(-0.102856 -0.0539501 0.0125827)
(-0.135255 -0.0704755 0.008391)
(-0.172848 -0.0873216 0.00532582)
(-0.215057 -0.108651 0.00506568)
(-0.26086 -0.15602 0.00667816)
(-0.321842 -0.221962 0.0109694)
(-0.371717 -0.337422 0.016583)
(-0.38308 -0.475345 0.0142983)
(-0.372149 -0.638127 0.00748697)
(-0.326271 -0.760129 -0.00767624)
(-0.225942 -0.786212 -0.0316025)
(-0.0635884 -0.56891 -0.0433038)
(0.0215153 -0.135662 -0.0164556)
(0.0070839 0.196165 -0.00284201)
(0.0462841 0.395656 -0.0272473)
(0.108957 0.527049 -0.0371013)
(0.185731 0.58864 -0.0363481)
(0.253435 0.605824 -0.0246262)
(0.305565 0.589132 -0.0155374)
(0.351444 0.552877 -0.00705643)
(0.392653 0.510174 -0.000510081)
(0.417225 0.457425 -0.0012018)
(0.408141 0.419072 -0.000873842)
(0.374507 0.383356 -0.000167414)
(0.323436 0.345559 0.00290403)
(0.274635 0.312014 0.0056524)
(0.239401 0.281802 0.00753691)
(0.209338 0.253741 0.00822764)
(0.184392 0.22483 0.009845)
(0.156543 0.196509 0.0121541)
(0.137481 0.162089 0.0163959)
(0.11581 0.129344 0.0212689)
(0.0801575 0.111265 0.0194444)
(0.0367119 0.097932 0.018476)
(0.00508709 0.0753187 0.0144134)
(-0.011154 0.0499894 0.0176679)
(-0.0286224 0.0252291 0.0145615)
(-0.0434602 0.0038406 0.0134189)
(-0.0568344 -0.0182932 0.0130569)
(-0.0729725 -0.0401545 0.0124609)
(-0.0894107 -0.0668171 0.0122496)
(-0.113959 -0.088755 0.0117646)
(-0.141873 -0.113534 0.0106552)