/*--------------------------------*- C++ -*----------------------------------*\
| =========                 |                                                 |
| \\      /  F ield         | OpenFOAM: The Open Source CFD Toolbox           |
|  \\    /   O peration     | Version:  v1806                                 |
|   \\  /    A nd           | Web:      www.OpenFOAM.com                      |
|    \\/     M anipulation  |                                                 |
\*---------------------------------------------------------------------------*/
FoamFile
{
    version     2.0;
    format      ascii;
    class       volVectorField;
    location    "0.101";
    object      U_0;
}
// * * * * * * * * * * * * * * * * * * * * * * * * * * * * * * * * * * * * * //

dimensions      [0 1 -1 0 0 0 0];


internalField   nonuniform List<vector> 
64000
(
(-0.010626 -0.0128826 -0.00911597)
(0.0169513 -0.0124355 -0.00665058)
(0.0241062 -0.00423278 9.77982e-06)
(0.0293365 -0.00337802 0.000944688)
(0.0309264 -0.00232861 0.00130116)
(0.0316589 -0.00284611 0.00173153)
(0.0315686 -0.00385339 0.00180962)
(0.0290113 -0.004418 0.00227868)
(0.0281233 -0.00534243 0.00351241)
(0.0221735 -0.00538405 0.00386524)
(0.015995 -0.00587217 0.0038419)
(0.0060718 -0.00677337 0.00795441)
(-0.00838158 -0.0124059 0.00549547)
(-0.0336984 -0.0172034 0.00372287)
(-0.0599221 -0.0179073 0.00421311)
(-0.0961276 -0.0177145 0.00232482)
(-0.121298 -8.3697e-05 0.000874024)
(-0.166552 -0.00460371 -0.00335709)
(-0.161835 -0.00947197 0.00402038)
(-0.224423 -0.027392 -0.0149516)
(-0.19187 -0.0190676 -0.0191833)
(-0.0918 -0.0218925 -0.0378453)
(-0.106173 -0.00555525 -0.0239267)
(-0.105529 -0.00159665 -0.0369898)
(-0.126076 0.00447199 -0.0479557)
(-0.120642 0.0125408 -0.0578107)
(-0.109714 0.0227658 -0.0623186)
(-0.0731801 0.0331671 -0.0590993)
(-0.0390325 0.0405336 -0.054441)
(0.00475963 0.05129 -0.0410797)
(0.0489456 0.0496338 -0.0323127)
(0.0862839 0.0392691 -0.0256629)
(0.102274 0.02916 -0.0129718)
(0.0996086 0.0153108 -0.00570519)
(0.0858558 0.00659948 0.000602625)
(0.0678601 -0.00133837 0.00317107)
(0.0494413 -0.0054884 0.00394702)
(0.0297936 -0.00512585 0.00472668)
(0.0159859 -0.00376396 0.00504469)
(0.00226461 -0.00241171 0.00318739)
(-0.00758337 0.00275974 -0.00553991)
(0.00965647 -0.0168315 -0.00518917)
(0.0260228 -0.010747 -0.00240562)
(0.0373618 -0.00692815 -0.00122166)
(0.0434334 -0.00241821 -0.00173713)
(0.0440097 -0.000710224 -0.00197593)
(0.0431297 0.00300597 -0.00364548)
(0.0367594 0.00455926 -0.0030548)
(0.0298267 0.00905112 -0.00803055)
(0.0133222 0.0157984 -0.00373097)
(-0.00862685 0.0240423 -0.00846389)
(-0.0447484 0.0333515 0.000845644)
(-0.0899295 0.0419119 -0.00422763)
(-0.14227 0.0619066 -0.00688801)
(-0.199526 0.0751696 -0.011716)
(-0.256512 0.0842164 -0.0180143)
(-0.331021 0.0927427 -0.0448157)
(-0.436935 0.0945426 -0.0595914)
(-0.480153 0.100993 -0.0773113)
(-0.56695 0.100779 -0.0972212)
(-0.51468 0.130615 -0.0919575)
(-0.386187 0.145733 -0.125375)
(-0.382179 0.192752 -0.13363)
(-0.368579 0.215382 -0.144704)
(-0.362413 0.239667 -0.156715)
(-0.323874 0.260868 -0.163153)
(-0.277106 0.281821 -0.164625)
(-0.204675 0.29682 -0.153029)
(-0.130642 0.303086 -0.133463)
(-0.0570189 0.306238 -0.10992)
(0.00602905 0.291656 -0.0770964)
(0.0693733 0.260572 -0.046546)
(0.107234 0.213137 -0.0391643)
(0.119718 0.160961 -0.026179)
(0.114849 0.11081 -0.0130474)
(0.0964749 0.0711242 -0.00554145)
(0.0773733 0.0427317 -0.00124054)
(0.0533354 0.027731 -0.000255484)
(0.0319635 0.0178304 0.00107045)
(0.0077654 0.00945775 0.0010068)
(-0.000159159 -0.00426323 0.0013892)
(0.0164373 -0.0224186 -0.00232839)
(0.0341378 -0.017399 -0.00338018)
(0.0454722 -0.00539538 -0.0047573)
(0.0479807 0.00382718 -0.00630198)
(0.0463223 0.0147237 -0.00759754)
(0.0397382 0.0295416 -0.00857167)
(0.0254201 0.0433497 -0.0103401)
(0.0109486 0.0676088 -0.00166356)
(-0.0179404 0.0893715 -0.00501116)
(-0.0553252 0.116075 -0.00830251)
(-0.107311 0.14824 -0.0131707)
(-0.160103 0.182056 -0.0176931)
(-0.237703 0.211218 -0.0328701)
(-0.331807 0.231703 -0.0364425)
(-0.427797 0.245969 -0.0429801)
(-0.509333 0.250659 -0.0601397)
(-0.597417 0.270035 -0.0793339)
(-0.635795 0.301577 -0.0972794)
(-0.707727 0.33747 -0.115962)
(-0.640621 0.375443 -0.102674)
(-0.485192 0.40812 -0.124436)
(-0.458395 0.465134 -0.124042)
(-0.43366 0.494905 -0.123169)
(-0.418522 0.52691 -0.126642)
(-0.375568 0.547984 -0.125356)
(-0.328337 0.562474 -0.120669)
(-0.262014 0.565048 -0.105163)
(-0.197359 0.554905 -0.0827821)
(-0.130981 0.534103 -0.0595363)
(-0.0762725 0.501582 -0.0399917)
(-0.0310183 0.45357 -0.028076)
(0.00193551 0.381031 -0.0176646)
(0.0245472 0.308088 -0.0089348)
(0.0384776 0.229099 -0.0107369)
(0.0449529 0.164705 -0.0110469)
(0.0458745 0.117884 -0.00748695)
(0.0372765 0.0811765 -0.00532761)
(0.0266635 0.0549557 -0.00178481)
(0.00773837 0.0289814 0.000856857)
(0.00129285 -0.00845671 0.00184396)
(0.01869 -0.0238084 -0.00154884)
(0.040035 -0.0113257 -0.00416646)
(0.0481499 0.00519656 -0.00743083)
(0.0464135 0.0290566 -0.00815545)
(0.0429988 0.0530919 -0.00950213)
(0.0305147 0.0882584 -0.00953163)
(0.0130363 0.120974 -0.00592689)
(-0.0126282 0.166293 -0.0108142)
(-0.0577736 0.205912 -0.0130857)
(-0.102948 0.250038 -0.0176167)
(-0.166415 0.288013 -0.0250584)
(-0.247643 0.317462 -0.0281954)
(-0.337911 0.334055 -0.0296872)
(-0.422272 0.356092 -0.0327091)
(-0.501108 0.37941 -0.0372377)
(-0.567238 0.41062 -0.0530136)
(-0.642214 0.439842 -0.0634428)
(-0.666916 0.483705 -0.0734678)
(-0.72628 0.530418 -0.078384)
(-0.647312 0.562536 -0.0438648)
(-0.470529 0.587183 -0.0460188)
(-0.430563 0.628371 -0.0387707)
(-0.405682 0.633851 -0.0294057)
(-0.391457 0.647057 -0.0278333)
(-0.357442 0.646913 -0.0230736)
(-0.321947 0.639596 -0.0196266)
(-0.272231 0.62021 -0.0117768)
(-0.22522 0.594197 0.000170857)
(-0.179505 0.560665 0.00741879)
(-0.149158 0.518955 0.0121972)
(-0.123013 0.473138 0.0108951)
(-0.09885 0.412602 0.00493063)
(-0.0757418 0.350554 -0.00291152)
(-0.0517439 0.271813 -0.00633169)
(-0.0213729 0.204841 -0.0109452)
(-0.000493166 0.150639 -0.0112335)
(0.00801373 0.114466 -0.00847821)
(0.0161571 0.0814714 -0.00394948)
(0.00607914 0.0420816 0.000619282)
(0.00121716 -0.00910733 0.000328971)
(0.0242305 -0.0131083 -0.0040745)
(0.0472361 0.00363829 -0.0081938)
(0.0565162 0.0371127 -0.00911437)
(0.0542476 0.074114 -0.0089427)
(0.0487647 0.119454 -0.0160148)
(0.0315128 0.174063 -0.0142633)
(0.00425977 0.233485 -0.00682955)
(-0.0276483 0.289571 -0.00837447)
(-0.0799025 0.337153 -0.0106585)
(-0.138279 0.375347 -0.0136942)
(-0.215328 0.396554 -0.016316)
(-0.288597 0.419275 -0.0168083)
(-0.362091 0.444178 -0.0218298)
(-0.432406 0.474945 -0.0220081)
(-0.500474 0.508101 -0.0227563)
(-0.554001 0.537707 -0.0274073)
(-0.610667 0.571921 -0.0258079)
(-0.615683 0.623299 -0.0195729)
(-0.660299 0.67135 -0.0266533)
(-0.581991 0.697721 0.0082391)
(-0.398833 0.706323 0.0169415)
(-0.355509 0.717828 0.0298378)
(-0.340046 0.689137 0.0367264)
(-0.338046 0.672799 0.0363304)
(-0.32324 0.646019 0.0420896)
(-0.30753 0.61441 0.0430482)
(-0.276471 0.577072 0.0467448)
(-0.250157 0.535662 0.0398465)
(-0.224326 0.495201 0.0312712)
(-0.205506 0.449667 0.0209886)
(-0.195245 0.4159 0.0140797)
(-0.1857 0.377139 0.00678939)
(-0.176471 0.345761 -0.00514657)
(-0.15277 0.282523 -0.0145465)
(-0.10368 0.213132 -0.0153383)
(-0.0524847 0.165059 -0.0144294)
(-0.0172923 0.134705 -0.0121717)
(0.00258109 0.100772 -0.00672762)
(0.00314237 0.0525999 0.000634597)
(0.00591431 -0.00336152 -0.000228128)
(0.029037 0.00223968 -0.00696655)
(0.0606079 0.0289077 -0.00694071)
(0.0727025 0.0796879 -0.0103251)
(0.0677142 0.137097 -0.0153652)
(0.0648851 0.200234 -0.0194712)
(0.0489543 0.274642 -0.0149008)
(0.0162555 0.329473 -0.00656861)
(-0.0345179 0.374739 -0.00661211)
(-0.103007 0.409676 -0.00891453)
(-0.171053 0.440142 -0.0110029)
(-0.235477 0.468062 -0.0110759)
(-0.29308 0.502261 -0.00941994)
(-0.351019 0.531299 -0.00622826)
(-0.399351 0.561688 -0.000798202)
(-0.451745 0.590692 0.00495166)
(-0.483605 0.621458 0.00861656)
(-0.516182 0.652745 0.00832841)
(-0.514353 0.702995 0.00865094)
(-0.547458 0.740293 0.00954493)
(-0.471814 0.761441 0.0427084)
(-0.306696 0.716971 0.0540361)
(-0.281241 0.698824 0.0660685)
(-0.287481 0.638865 0.0762495)
(-0.29991 0.599644 0.0772973)
(-0.304258 0.556474 0.076237)
(-0.30445 0.514362 0.0733332)
(-0.293548 0.471637 0.0663912)
(-0.280413 0.424506 0.0641923)
(-0.268627 0.385168 0.0424824)
(-0.259461 0.341082 0.0306698)
(-0.248319 0.310213 0.0148581)
(-0.233972 0.2834 0.00474748)
(-0.238513 0.271573 -0.00686547)
(-0.240424 0.246864 -0.018311)
(-0.175689 0.197691 -0.0155253)
(-0.093398 0.166111 -0.016079)
(-0.0408793 0.140491 -0.0125944)
(-0.00515234 0.108865 -0.00753242)
(0.00218929 0.0565983 0.00115048)
(0.00599226 0.00250697 -0.00162677)
(0.0380088 0.0161565 -0.0102365)
(0.0811118 0.0565448 -0.0108801)
(0.105545 0.111293 -0.0130616)
(0.101606 0.177478 -0.0184785)
(0.0988135 0.249459 -0.0215418)
(0.0622881 0.31793 -0.0156931)
(0.000118247 0.345403 -0.000104576)
(-0.0500667 0.389698 -0.00517559)
(-0.105821 0.427623 -0.00578617)
(-0.1529 0.472461 -0.00571967)
(-0.202481 0.51592 -0.0036841)
(-0.247699 0.556987 4.80266e-05)
(-0.294132 0.591077 0.00463159)
(-0.33299 0.624983 0.0130635)
(-0.368185 0.650321 0.0181796)
(-0.388699 0.679141 0.0249443)
(-0.407956 0.692081 0.0280634)
(-0.392549 0.71716 0.0272756)
(-0.414504 0.730756 0.0173832)
(-0.398978 0.749199 0.0389848)
(-0.264804 0.63976 0.0572003)
(-0.228399 0.597568 0.0634796)
(-0.252595 0.533442 0.0741173)
(-0.275979 0.493087 0.073245)
(-0.297672 0.454428 0.0718323)
(-0.314077 0.419876 0.06749)
(-0.320096 0.384723 0.0595069)
(-0.320025 0.347438 0.0457582)
(-0.320634 0.312489 0.0292112)
(-0.317722 0.278892 0.0155915)
(-0.309682 0.250275 0.00219782)
(-0.294212 0.229059 -0.00529553)
(-0.28669 0.213497 -0.0128843)
(-0.289201 0.223261 -0.0209536)
(-0.227846 0.198217 -0.0220091)
(-0.128216 0.172492 -0.0227074)
(-0.0562088 0.151904 -0.0176169)
(-0.0103824 0.11866 -0.0114299)
(0.00215146 0.0622313 -0.000588018)
(0.00702135 0.00893162 -0.0041788)
(0.0456167 0.0352282 -0.0140548)
(0.0995394 0.0839184 -0.0142075)
(0.126005 0.140029 -0.0122647)
(0.128911 0.19941 -0.0133111)
(0.119017 0.271712 -0.0153939)
(0.0592615 0.305685 -0.00551184)
(0.00958354 0.351683 0.00308161)
(-0.0189749 0.397612 -0.00146048)
(-0.0679644 0.452867 0.000260649)
(-0.108144 0.498131 0.000837829)
(-0.149744 0.537321 0.00720684)
(-0.185652 0.57155 0.0128297)
(-0.217408 0.599391 0.0212656)
(-0.243069 0.626441 0.0256195)
(-0.27183 0.642008 0.0303716)
(-0.288389 0.655296 0.0336405)
(-0.306359 0.652741 0.0330032)
(-0.301369 0.651147 0.0302551)
(-0.314876 0.623561 0.0145022)
(-0.350447 0.63213 0.0192714)
(-0.265101 0.538818 0.0386482)
(-0.209414 0.470735 0.0413369)
(-0.239285 0.428379 0.0525708)
(-0.270693 0.394915 0.0551814)
(-0.303583 0.369318 0.0558481)
(-0.330323 0.344239 0.0561925)
(-0.348286 0.317481 0.0481141)
(-0.35979 0.289877 0.0377035)
(-0.366747 0.259045 0.0150289)
(-0.368231 0.227072 0.00521417)
(-0.358504 0.201576 -0.00428092)
(-0.342856 0.188378 -0.0116198)
(-0.322425 0.177699 -0.0151231)
(-0.328096 0.198062 -0.0246221)
(-0.277723 0.202079 -0.0219083)
(-0.162618 0.178372 -0.0233631)
(-0.0749045 0.16157 -0.0180701)
(-0.0155613 0.126218 -0.0110307)
(0.00304606 0.0664717 0.0002076)
(0.00555692 0.0234833 -0.00712274)
(0.0540386 0.0675275 -0.0181324)
(0.119919 0.123462 -0.0197713)
(0.152574 0.179664 -0.0143788)
(0.161302 0.240311 -0.0149579)
(0.132726 0.294133 -0.0156167)
(0.0796248 0.327312 -0.00591457)
(0.0394954 0.387698 0.00176247)
(0.014755 0.425426 0.00832767)
(-0.0172276 0.46768 0.00737363)
(-0.0558723 0.50282 0.0119565)
(-0.0868046 0.532718 0.0169357)
(-0.112269 0.555529 0.0252605)
(-0.13621 0.569939 0.0312924)
(-0.159068 0.57599 0.0338154)
(-0.184238 0.572499 0.0344401)
(-0.204781 0.567214 0.033343)
(-0.230527 0.549707 0.028729)
(-0.250034 0.536316 0.0225036)
(-0.264458 0.500229 0.00854911)
(-0.314715 0.493275 -0.000764175)
(-0.287386 0.453474 0.0137616)
(-0.22203 0.36615 0.0210995)
(-0.237026 0.350079 0.028953)
(-0.274147 0.326319 0.0361673)
(-0.311927 0.310912 0.040001)
(-0.348248 0.293509 0.0447083)
(-0.374035 0.271318 0.039698)
(-0.395561 0.247944 0.0231798)
(-0.412688 0.214094 0.00637238)
(-0.414585 0.188375 -0.00317782)
(-0.401297 0.164942 -0.0107625)
(-0.385195 0.151164 -0.0148172)
(-0.354961 0.150655 -0.0245753)
(-0.343197 0.162833 -0.0272654)
(-0.30813 0.198078 -0.0310618)
(-0.198593 0.182141 -0.0269548)
(-0.0904635 0.17197 -0.0253208)
(-0.0207855 0.137197 -0.0141847)
(0.00397075 0.0737435 -0.00201675)
(0.00784265 0.0398343 -0.00973867)
(0.0632542 0.105454 -0.0259329)
(0.138745 0.165651 -0.024954)
(0.178077 0.219763 -0.0155501)
(0.181422 0.274321 -0.0166462)
(0.152293 0.308236 -0.0167825)
(0.111819 0.354557 -0.00696145)
(0.0802609 0.402538 0.00421977)
(0.0515175 0.443196 0.011318)
(0.0256731 0.469651 0.0219793)
(0.00236689 0.494104 0.0211985)
(-0.0249353 0.508018 0.0302429)
(-0.0492036 0.513912 0.035969)
(-0.0712559 0.508091 0.041514)
(-0.093568 0.493641 0.0416712)
(-0.120441 0.471043 0.0384823)
(-0.146929 0.448547 0.0330103)
(-0.177087 0.421398 0.025386)
(-0.207154 0.40347 0.0168218)
(-0.235264 0.383702 0.00304503)
(-0.289007 0.368847 -0.00993137)
(-0.311429 0.365514 -0.00444636)
(-0.247833 0.301924 0.0102632)
(-0.232616 0.297758 0.0135561)
(-0.274882 0.280174 0.0250446)
(-0.313679 0.271915 0.0313247)
(-0.355759 0.253245 0.0406121)
(-0.389594 0.236871 0.033253)
(-0.419983 0.20679 0.0238756)
(-0.435053 0.179547 0.00647113)
(-0.440172 0.150895 0.0070114)
(-0.433796 0.127601 0.0149377)
(-0.413834 0.108356 0.0108354)
(-0.386039 0.108694 0.00771525)
(-0.364315 0.121215 -0.0163543)
(-0.331648 0.168501 -0.0266367)
(-0.229199 0.179448 -0.0263919)
(-0.108862 0.172202 -0.0220363)
(-0.0267688 0.144969 -0.0134825)
(0.00481334 0.0782978 -0.000886078)
(0.00884972 0.0643275 -0.0123991)
(0.0724522 0.149976 -0.0322043)
(0.156878 0.213652 -0.0314362)
(0.202477 0.263219 -0.0198179)
(0.201721 0.30246 -0.0127022)
(0.177361 0.336331 -0.0167469)
(0.152517 0.376894 -0.00616884)
(0.122765 0.41564 0.000811729)
(0.0989613 0.445696 0.00851923)
(0.0718824 0.468169 0.0240443)
(0.0452147 0.477112 0.0339006)
(0.0249875 0.477066 0.0440862)
(0.00499643 0.466384 0.0479047)
(-0.0200178 0.441566 0.0481995)
(-0.0485371 0.415925 0.0472531)
(-0.0793835 0.383357 0.0405179)
(-0.112096 0.354899 0.0316921)
(-0.147961 0.327215 0.0221391)
(-0.181056 0.308418 0.0135082)
(-0.217464 0.296715 0.000413789)
(-0.268594 0.285125 -0.0095044)
(-0.305094 0.289555 -0.00934175)
(-0.249527 0.271541 0.00392814)
(-0.22403 0.263308 0.00571307)
(-0.263664 0.250324 0.018719)
(-0.305289 0.238306 0.0264709)
(-0.352882 0.223432 0.0351523)
(-0.390978 0.200824 0.031593)
(-0.425145 0.174994 0.0184816)
(-0.448433 0.144153 0.0277042)
(-0.462605 0.108503 0.0295222)
(-0.462494 0.0793002 0.0153766)
(-0.447031 0.0609988 0.0109922)
(-0.411921 0.0579532 0.00179674)
(-0.372685 0.071454 -0.00290334)
(-0.340871 0.121246 -0.0256268)
(-0.254041 0.159442 -0.0294643)
(-0.12653 0.170002 -0.0243465)
(-0.0302518 0.150222 -0.0154521)
(0.00414467 0.0844885 -0.00259014)
(0.0102105 0.0836165 -0.0131607)
(0.0784904 0.189929 -0.0362482)
(0.170931 0.256358 -0.034837)
(0.21626 0.295595 -0.019022)
(0.221126 0.32406 -0.0116463)
(0.207282 0.357527 -0.00909392)
(0.187568 0.390485 -0.0081191)
(0.163274 0.415507 0.0037992)
(0.137766 0.436972 0.00947056)
(0.11406 0.446465 0.0203751)
(0.0926657 0.451323 0.0302116)
(0.0657514 0.441322 0.0493175)
(0.0371499 0.420509 0.0532721)
(0.0156637 0.385305 0.0557179)
(-0.0122705 0.350443 0.0479159)
(-0.0489447 0.319367 0.039514)
(-0.0851111 0.293929 0.0275229)
(-0.123981 0.271496 0.0172058)
(-0.158684 0.260148 0.00913803)
(-0.200211 0.251868 -0.00306504)
(-0.249678 0.246243 -0.00937254)
(-0.281499 0.247621 -0.00988087)
(-0.232242 0.252395 0.000682242)
(-0.205495 0.238005 0.00108414)
(-0.244114 0.222363 0.013918)
(-0.283143 0.206328 0.022444)
(-0.333516 0.190135 0.0299543)
(-0.375052 0.16641 0.0232537)
(-0.414007 0.138764 0.0366367)
(-0.446984 0.10261 0.043144)
(-0.468007 0.0665213 0.0356106)
(-0.471337 0.0380659 0.0452619)
(-0.462841 0.0170959 0.0375876)
(-0.439667 0.0127445 0.0357481)
(-0.398125 0.0209327 0.0246534)
(-0.354642 0.0657998 0.0016596)
(-0.267656 0.122368 -0.0266318)
(-0.140712 0.156889 -0.0260376)
(-0.036676 0.148462 -0.0150491)
(0.0052213 0.0871387 -0.00250452)
(0.0107439 0.105715 -0.0121806)
(0.0836923 0.231458 -0.0385226)
(0.177489 0.298982 -0.0377297)
(0.228582 0.328782 -0.0199972)
(0.244261 0.352162 -0.00717742)
(0.238835 0.376549 -0.00163314)
(0.220775 0.400622 0.00215904)
(0.197533 0.415978 0.00299701)
(0.17806 0.426644 0.0110851)
(0.155821 0.429597 0.0228238)
(0.130695 0.421746 0.0317214)
(0.104359 0.403649 0.0390788)
(0.0732912 0.377106 0.0503085)
(0.0392879 0.344499 0.0534639)
(0.011839 0.304196 0.0500611)
(-0.0206202 0.273713 0.0361023)
(-0.0620047 0.252991 0.0227617)
(-0.100893 0.236089 0.0128449)
(-0.135982 0.230279 0.00498684)
(-0.178566 0.222294 -0.00398859)
(-0.223368 0.221338 -0.00835821)
(-0.243669 0.220771 -0.00734672)
(-0.199325 0.238907 -0.000533376)
(-0.182656 0.215588 -0.00132738)
(-0.214789 0.195216 0.0105927)
(-0.252517 0.174704 0.0182519)
(-0.301622 0.152034 0.0225819)
(-0.346221 0.129251 0.0311476)
(-0.392319 0.0965957 0.0444116)
(-0.432277 0.0608338 0.0444808)
(-0.45701 0.0283621 0.0652604)
(-0.476952 -0.00873363 0.0490394)
(-0.481092 -0.045979 0.0332883)
(-0.465468 -0.0669648 0.0107136)
(-0.423549 -0.0562012 0.00373048)
(-0.374717 -0.0117407 0.00702743)
(-0.288013 0.0711001 -0.00415427)
(-0.15692 0.129087 -0.0320024)
(-0.0418423 0.14302 -0.0149725)
(0.00492611 0.0912835 -0.00412537)
(0.0104596 0.112992 -0.0114895)
(0.082459 0.255091 -0.0410418)
(0.178277 0.325705 -0.0418218)
(0.235312 0.353124 -0.0231103)
(0.26172 0.368217 -0.00502225)
(0.263873 0.381241 0.00472194)
(0.248445 0.394161 0.0106217)
(0.227083 0.403248 0.0135615)
(0.208179 0.409216 0.0165767)
(0.186658 0.40465 0.0209558)
(0.164454 0.391046 0.02475)
(0.134427 0.36784 0.0371308)
(0.100712 0.337457 0.0381263)
(0.065002 0.30533 0.044722)
(0.0302941 0.275049 0.0454618)
(0.000671743 0.242087 0.0332866)
(-0.037064 0.22629 0.018328)
(-0.0745793 0.212385 0.00952869)
(-0.109465 0.208394 0.00216255)
(-0.149394 0.201145 -0.00384761)
(-0.187836 0.200147 -0.00628899)
(-0.190581 0.206019 -0.00292012)
(-0.157574 0.226134 -0.00134936)
(-0.157003 0.194061 -0.000288446)
(-0.183839 0.169393 0.00668649)
(-0.217707 0.140692 0.0142076)
(-0.262333 0.118159 0.0155205)
(-0.306557 0.0891549 0.0338291)
(-0.356719 0.0575093 0.0403355)
(-0.395217 0.0266107 0.0630229)
(-0.43973 -0.0133363 0.0484516)
(-0.4802 -0.0649177 0.0385798)
(-0.497028 -0.111833 0.0233767)
(-0.483397 -0.144793 0.0116889)
(-0.441235 -0.147452 -0.00877323)
(-0.380764 -0.108121 -0.00750723)
(-0.295678 -0.00940493 -0.000658333)
(-0.173578 0.0847933 -0.0179454)
(-0.0471964 0.127059 -0.0205823)
(0.006443 0.0903467 -0.00250574)
(0.0093704 0.12285 -0.00902112)
(0.081973 0.279164 -0.0400248)
(0.179275 0.354668 -0.0429221)
(0.24281 0.379424 -0.023797)
(0.276249 0.386867 -0.00331744)
(0.283843 0.387178 0.0109286)
(0.273954 0.390099 0.0203478)
(0.257645 0.392826 0.0229119)
(0.241157 0.393081 0.0253356)
(0.219007 0.384059 0.0276357)
(0.193964 0.368017 0.0289251)
(0.164285 0.340478 0.0279246)
(0.129273 0.311739 0.0266405)
(0.0922991 0.277557 0.0293134)
(0.0523362 0.251091 0.0338847)
(0.0211383 0.225128 0.0278405)
(-0.0114232 0.203944 0.0135484)
(-0.0474999 0.19512 0.00685194)
(-0.0789646 0.190503 0.000106722)
(-0.115842 0.181575 -0.00322049)
(-0.13984 0.182878 -0.00274358)
(-0.130384 0.203262 0.00169243)
(-0.117631 0.200792 0.000384794)
(-0.135416 0.169349 0.00221271)
(-0.155823 0.140674 0.00634814)
(-0.182725 0.108879 0.0104283)
(-0.221937 0.0832838 0.0223673)
(-0.266227 0.0523081 0.0299071)
(-0.307439 0.0243397 0.0483492)
(-0.358096 -0.0111031 0.044154)
(-0.415267 -0.0629326 0.0401483)
(-0.46365 -0.115914 0.0295887)
(-0.493619 -0.168224 0.0179549)
(-0.495338 -0.210241 0.0019602)
(-0.459996 -0.229644 -0.0143845)
(-0.392243 -0.201003 -0.021277)
(-0.302973 -0.111885 -0.0191082)
(-0.185595 0.0296982 0.00162001)
(-0.0553624 0.106484 -0.0276237)
(0.00512771 0.0928774 -0.00379317)
(0.00710388 0.104971 -0.00976821)
(0.0758898 0.274644 -0.0405167)
(0.173717 0.356309 -0.0425058)
(0.24208 0.382071 -0.0232793)
(0.282714 0.384406 0.000185468)
(0.298099 0.380946 0.0148831)
(0.295696 0.378687 0.021039)
(0.281826 0.373885 0.0247319)
(0.265133 0.366153 0.0267807)
(0.244746 0.354581 0.0274897)
(0.220223 0.336098 0.0266392)
(0.188824 0.313058 0.0243802)
(0.151612 0.284216 0.0198765)
(0.112999 0.255522 0.013183)
(0.0761899 0.229165 0.0146052)
(0.0399946 0.213117 0.0165361)
(0.0114029 0.193394 0.0103146)
(-0.0134644 0.184061 0.00309039)
(-0.047724 0.175158 -0.00242958)
(-0.0763686 0.173304 -0.00121705)
(-0.0784673 0.183412 0.00202169)
(-0.0799285 0.189626 0.00318185)
(-0.0927865 0.170002 0.00438735)
(-0.111948 0.142087 0.00586215)
(-0.132437 0.116712 0.00592116)
(-0.154335 0.0834847 0.00925932)
(-0.187284 0.0560283 0.0160898)
(-0.221752 0.0238908 0.0312913)
(-0.265541 -0.0059863 0.0350313)
(-0.319871 -0.0534545 0.0361741)
(-0.377271 -0.103255 0.0317179)
(-0.431 -0.161297 0.0267253)
(-0.469414 -0.220628 0.0160063)
(-0.485117 -0.276302 0.00215682)
(-0.462511 -0.310128 -0.0157169)
(-0.402313 -0.300261 -0.0280614)
(-0.296809 -0.222432 -0.0316571)
(-0.187236 -0.0685426 -0.0191746)
(-0.0653812 0.0619189 -0.0195203)
(0.00647746 0.0833324 -0.00738948)
(0.00846385 0.109572 -0.00308835)
(0.0763382 0.285904 -0.0336781)
(0.172975 0.371391 -0.038632)
(0.247451 0.394504 -0.0184425)
(0.297634 0.390744 0.00676351)
(0.32165 0.378178 0.0152551)
(0.320986 0.368875 0.0234322)
(0.307584 0.358333 0.0250756)
(0.293617 0.350209 0.0241912)
(0.273847 0.336134 0.0214414)
(0.250597 0.3172 0.018257)
(0.219805 0.291628 0.0136349)
(0.181237 0.26481 0.00954516)
(0.141159 0.236678 0.00647153)
(0.104209 0.215284 0.0035123)
(0.0704561 0.200029 0.00485248)
(0.0387124 0.192302 0.00239214)
(0.0123526 0.189428 7.07308e-05)
(-0.00883925 0.18328 -0.000629555)
(-0.0224503 0.186879 0.000831871)
(-0.0346192 0.184567 0.00387713)
(-0.0518214 0.165914 0.00649098)
(-0.0697701 0.145142 0.00823994)
(-0.0899909 0.118887 0.00880663)
(-0.11092 0.0959993 0.00979482)
(-0.131778 0.0653381 0.00905368)
(-0.159307 0.0349692 0.0188527)
(-0.193213 0.00340102 0.0228196)
(-0.235031 -0.0363283 0.0248734)
(-0.28749 -0.0800582 0.0253679)
(-0.342522 -0.129363 0.0262667)
(-0.395457 -0.187381 0.0235323)
(-0.438224 -0.25063 0.0171037)
(-0.463201 -0.317098 0.00462286)
(-0.453122 -0.367189 -0.0122144)
(-0.402888 -0.381927 -0.0290394)
(-0.307362 -0.319055 -0.0414807)
(-0.192133 -0.174329 -0.0315539)
(-0.0625717 0.015695 -0.00970354)
(0.00617816 0.0767883 -0.0130365)
(-0.00157772 0.0840185 -0.0152875)
(0.0555706 0.268406 -0.0405219)
(0.154007 0.364697 -0.0464653)
(0.236378 0.390561 -0.0259001)
(0.296312 0.38964 -0.00343477)
(0.332435 0.370282 0.0103904)
(0.343851 0.353752 0.016193)
(0.335714 0.335061 0.0168814)
(0.321182 0.321971 0.0147668)
(0.29919 0.313521 0.0111497)
(0.272771 0.305232 0.00795099)
(0.240046 0.293286 0.00536302)
(0.200963 0.275801 0.00256426)
(0.162609 0.256673 0.00158692)
(0.130804 0.237848 0.000883105)
(0.101362 0.227404 0.00415556)
(0.0815221 0.226105 -0.00041935)
(0.058247 0.225501 -0.00290967)
(0.032228 0.217336 -0.00124647)
(0.00948444 0.204277 0.00143213)
(-0.0132963 0.179577 0.00674335)
(-0.0321046 0.153798 0.00932171)
(-0.052128 0.128759 0.0106795)
(-0.0717361 0.10345 0.0121819)
(-0.0930489 0.079134 0.0132085)
(-0.116021 0.0528327 0.0102963)
(-0.140053 0.020196 0.00910236)
(-0.171158 -0.0132471 0.0103935)
(-0.209375 -0.0556104 0.0121574)
(-0.252919 -0.103372 0.0150171)
(-0.301419 -0.155502 0.0165782)
(-0.351342 -0.219546 0.0164806)
(-0.395911 -0.289642 0.012189)
(-0.427724 -0.367675 0.00279803)
(-0.430827 -0.433426 -0.0128189)
(-0.391146 -0.46851 -0.0292271)
(-0.301785 -0.424116 -0.0543006)
(-0.18912 -0.291996 -0.0467441)
(-0.0610038 -0.0627866 -0.0141308)
(0.00391993 0.0602765 -0.00264484)
(-0.00180365 0.148383 -0.00466211)
(0.0523306 0.347508 -0.0190919)
(0.144561 0.446744 -0.0305869)
(0.230597 0.468323 -0.0110301)
(0.299483 0.457131 -0.00350797)
(0.340727 0.424416 0.0125621)
(0.35641 0.387657 0.0153415)
(0.352376 0.372788 0.0180165)
(0.35278 0.383545 0.0151502)
(0.343742 0.391848 0.0106127)
(0.322824 0.392312 0.00479311)
(0.287187 0.382952 -0.000203592)
(0.242661 0.361925 -0.00376342)
(0.197702 0.335714 -0.00478403)
(0.163528 0.307909 -0.00314041)
(0.14236 0.28507 7.36146e-05)
(0.117786 0.268004 0.00334384)
(0.0839404 0.247861 -0.00510807)
(0.0511938 0.230243 -0.00354369)
(0.0215337 0.200848 -0.00159154)
(-0.00377094 0.175742 0.00600616)
(-0.0222145 0.14394 0.00884238)
(-0.0401983 0.118629 0.0105458)
(-0.0589743 0.0921263 0.0123883)
(-0.0781479 0.0674343 0.0130513)
(-0.102239 0.042749 0.00994046)
(-0.128356 0.0142248 0.00647552)
(-0.159629 -0.0192026 0.00115793)
(-0.198858 -0.0562675 0.00169509)
(-0.23871 -0.100681 0.00416535)
(-0.281953 -0.148662 0.00852385)
(-0.324997 -0.210427 0.0117477)
(-0.365651 -0.281716 0.0120952)
(-0.398486 -0.367914 0.00591699)
(-0.407051 -0.451245 -0.00799247)
(-0.376004 -0.517069 -0.0269899)
(-0.30465 -0.518532 -0.0590006)
(-0.192228 -0.393764 -0.0587355)
(-0.0538388 -0.178148 -0.0330034)
(0.00683997 0.0223901 -0.00362247)
(-0.0176383 0.23054 -0.0243055)
(0.0208301 0.469938 -0.0417758)
(0.112022 0.579534 -0.0502026)
(0.19836 0.618273 -0.0343889)
(0.270956 0.608403 -0.0228423)
(0.320004 0.577239 -0.00554341)
(0.365584 0.530999 0.00286267)
(0.410419 0.504054 0.0036676)
(0.421515 0.499095 -0.00366327)
(0.392562 0.484424 -0.00868722)
(0.35287 0.462564 -0.0114923)
(0.302089 0.433329 -0.0120635)
(0.247501 0.397563 -0.0115897)
(0.200802 0.359418 -0.00967912)
(0.168284 0.325533 -0.00728734)
(0.145105 0.291597 -0.00260664)
(0.125662 0.259547 0.00213858)
(0.100685 0.232705 0.00558757)
(0.0640586 0.213733 -0.0014355)
(0.0328597 0.187405 0.00112839)
(0.00602431 0.163405 0.00414001)
(-0.0146687 0.131144 0.00907886)
(-0.0301844 0.105777 0.00992594)
(-0.0488553 0.0791564 0.0123934)
(-0.0660853 0.0533482 0.00984476)
(-0.0884742 0.0249745 0.010315)
(-0.11401 9.42681e-05 0.00874275)
(-0.142243 -0.0280042 0.00311991)
(-0.174873 -0.0598853 -0.00314736)
(-0.206588 -0.108736 -0.00773776)
(-0.243783 -0.164166 -0.0106088)
(-0.282619 -0.236813 -0.0125601)
(-0.321005 -0.316569 -0.0137022)
(-0.357347 -0.416098 -0.0164961)
(-0.38223 -0.513763 -0.0250727)
(-0.381052 -0.611307 -0.042692)
(-0.312096 -0.639466 -0.0660112)
(-0.229882 -0.538485 -0.0803416)
(-0.089887 -0.255584 -0.0386352)
(0.0132083 0.0131906 -0.00217308)
(0.00103058 0.204893 0.000282234)
(0.0403327 0.449481 -0.0373996)
(0.11658 0.575263 -0.0501049)
(0.203672 0.633131 -0.0462776)
(0.276029 0.639065 -0.0371651)
(0.326418 0.621286 -0.0265879)
(0.365726 0.585675 -0.0200041)
(0.404161 0.540289 -0.00972427)
(0.417319 0.497713 -0.0112721)
(0.392516 0.462187 -0.0104854)
(0.358408 0.429922 -0.00998726)
(0.311041 0.399454 -0.00771148)
(0.258698 0.364009 -0.00534173)
(0.214941 0.332526 -0.00221436)
(0.182976 0.303075 -0.000271852)
(0.160745 0.273392 0.00276096)
(0.140217 0.242786 0.0060342)
(0.117247 0.212458 0.00888159)
(0.0827519 0.192136 0.0111224)
(0.0454815 0.172521 0.0030586)
(0.0121272 0.147363 0.00558562)
(-0.00933038 0.118765 0.00950913)
(-0.0226112 0.0922885 0.0109314)
(-0.0415721 0.0640003 0.0128479)
(-0.060606 0.0369796 0.0079346)
(-0.0801336 0.00730921 0.0116657)
(-0.0997659 -0.0142105 0.0130025)
(-0.128307 -0.0390679 0.00879975)
(-0.17332 -0.0603397 0.00503705)
(-0.214304 -0.0974921 0.00572461)
(-0.250754 -0.143766 0.00655055)
(-0.281022 -0.214897 0.00568206)
(-0.307923 -0.306726 0.00191519)
(-0.327397 -0.444749 -0.00784302)
(-0.346106 -0.593148 -0.0166485)
(-0.34423 -0.733777 -0.0270465)
(-0.290883 -0.804137 -0.0506209)
(-0.181053 -0.76599 -0.0648359)
(-0.059141 -0.472432 -0.0675676)
(-0.00104594 -0.103365 0.00802314)
(0.000982685 0.217482 -0.0024753)
(0.0383059 0.436923 -0.0335416)
(0.107336 0.560543 -0.0444897)
(0.187178 0.61691 -0.0427181)
(0.258063 0.623719 -0.0271325)
(0.312502 0.602122 -0.0217307)
(0.357123 0.564812 -0.0130807)
(0.40081 0.522898 -0.00534426)
(0.421448 0.479041 -0.00579299)
(0.402926 0.446817 -0.00481408)
(0.368847 0.417078 -0.00388507)
(0.317597 0.384128 -0.00199311)
(0.264744 0.348387 0.000767504)
(0.225374 0.316462 0.00275321)
(0.194311 0.287265 0.00422186)
(0.168757 0.256609 0.00654158)
(0.146387 0.225218 0.00953032)
(0.128786 0.188984 0.0138885)
(0.099639 0.164523 0.0141969)
(0.0605677 0.144929 0.0145479)
(0.0221573 0.126137 0.00804082)
(-0.00165998 0.0999434 0.0105432)
(-0.017666 0.0729857 0.0121114)
(-0.0366215 0.0449101 0.0111156)
(-0.0537541 0.0193122 0.01061)
(-0.0676399 -0.00590381 0.0130364)
(-0.0831196 -0.02758 0.0129471)
(-0.102754 -0.0533209 0.0123995)
(-0.13493 -0.0697981 0.00829994)
(-0.172117 -0.0866903 0.00530012)
(-0.214128 -0.107784 0.00503051)
(-0.259796 -0.15483 0.00657712)
(-0.320989 -0.220222 0.0107937)
(-0.371272 -0.335214 0.0164525)
(-0.383045 -0.472626 0.0142823)
(-0.372282 -0.635245 0.00752548)
(-0.326462 -0.75716 -0.00757733)
(-0.226178 -0.783337 -0.0314473)
(-0.0635673 -0.566359 -0.0431995)
(0.0216176 -0.133266 -0.0166422)
(0.00708963 0.196344 -0.00280651)
(0.046296 0.395788 -0.0271914)
(0.108939 0.527269 -0.0370445)
(0.185648 0.588914 -0.0362959)
(0.253354 0.606139 -0.0245491)
(0.305526 0.589475 -0.0155337)
(0.351516 0.553296 -0.00703756)
(0.392555 0.510633 -0.00048596)
(0.416566 0.458083 -0.00113416)
(0.406945 0.419781 -0.000793967)
(0.372759 0.384009 -8.37418e-05)
(0.321595 0.346226 0.0029989)
(0.27306 0.312759 0.00567753)
(0.237874 0.282488 0.00752958)
(0.207814 0.254303 0.00818738)
(0.182903 0.225283 0.00977894)
(0.15513 0.196825 0.0120388)
(0.136169 0.162346 0.0162442)
(0.114652 0.129638 0.0210562)
(0.079358 0.111351 0.0192982)
(0.0364014 0.0980485 0.0183349)
(0.00490794 0.0754214 0.0143338)
(-0.0111147 0.0501175 0.0175204)
(-0.0284524 0.0254733 0.0143778)
(-0.0433629 0.00409223 0.0132825)
(-0.0566424 -0.0178886 0.0129252)
(-0.0727389 -0.0395923 0.0123453)
(-0.089127 -0.0661167 0.0121234)