/*--------------------------------*- C++ -*----------------------------------*\
| =========                 |                                                 |
| \\      /  F ield         | OpenFOAM: The Open Source CFD Toolbox           |
|  \\    /   O peration     | Version:  v1806                                 |
|   \\  /    A nd           | Web:      www.OpenFOAM.com                      |
|    \\/     M anipulation  |                                                 |
\*---------------------------------------------------------------------------*/
FoamFile
{
    version     2.0;
    format      ascii;
    class       volVectorField;
    location    "0.0955";
    object      U;
}
// * * * * * * * * * * * * * * * * * * * * * * * * * * * * * * * * * * * * * //

dimensions      [0 1 -1 0 0 0 0];


internalField   nonuniform List<vector> 
64000
(
(-0.0103928 -0.0123348 -0.00860728)
(0.0159261 -0.0119496 -0.00612281)
(0.022555 -0.00408299 0.000206986)
(0.027477 -0.00336761 0.00104782)
(0.0288668 -0.00237101 0.00138067)
(0.0294026 -0.0028103 0.0019181)
(0.0291366 -0.00379955 0.00206673)
(0.0262269 -0.00423617 0.00255176)
(0.0251298 -0.00518015 0.00384751)
(0.0186854 -0.00508794 0.00381253)
(0.0127808 -0.00541783 0.0047606)
(0.00150926 -0.00744313 0.00725464)
(-0.0147253 -0.0124232 0.00572542)
(-0.0395866 -0.0172999 0.00376756)
(-0.0665977 -0.0179475 0.00453161)
(-0.102954 -0.0173961 0.00235992)
(-0.129235 -7.40718e-05 0.00120764)
(-0.174555 -0.00447945 -0.00306289)
(-0.171259 -0.0093849 0.00441378)
(-0.233131 -0.0268929 -0.0141944)
(-0.203915 -0.0201147 -0.0201979)
(-0.100972 -0.0223064 -0.0379677)
(-0.108726 -0.00680606 -0.024742)
(-0.10768 -0.0023093 -0.0371276)
(-0.126659 0.00374742 -0.048208)
(-0.121026 0.0118553 -0.0579941)
(-0.109721 0.0220204 -0.0625833)
(-0.0731714 0.032584 -0.0591086)
(-0.0388615 0.0398305 -0.0544146)
(0.00484482 0.0508882 -0.0406567)
(0.0492293 0.0489574 -0.0321476)
(0.0862571 0.0388248 -0.0253082)
(0.102451 0.0286414 -0.0127875)
(0.0997054 0.0148594 -0.00546771)
(0.0861278 0.00619781 0.000799878)
(0.0680781 -0.00176944 0.00339276)
(0.0494044 -0.0058597 0.00430416)
(0.0295469 -0.00534337 0.00511487)
(0.015749 -0.00393628 0.00549583)
(0.00210869 -0.00255237 0.00351197)
(-0.00743935 0.00255368 -0.00502682)
(0.00908339 -0.0166025 -0.00472481)
(0.0248009 -0.0107023 -0.00211313)
(0.0356931 -0.00701986 -0.00103803)
(0.0415429 -0.00243621 -0.00151905)
(0.0418795 -0.000624472 -0.00182863)
(0.0408301 0.00327569 -0.00340614)
(0.0340714 0.00482841 -0.00295277)
(0.0269509 0.00987075 -0.00753188)
(0.0101952 0.0160566 -0.00379532)
(-0.0126915 0.0244915 -0.00842947)
(-0.0496506 0.0326596 0.000866652)
(-0.0955588 0.0422538 -0.00408145)
(-0.147989 0.0619144 -0.00682041)
(-0.205659 0.075309 -0.0115169)
(-0.263239 0.0842764 -0.0181366)
(-0.339093 0.0928802 -0.0442882)
(-0.444894 0.094878 -0.0591519)
(-0.489335 0.101313 -0.0767649)
(-0.576552 0.1012 -0.0974626)
(-0.528866 0.129468 -0.0934041)
(-0.397183 0.144566 -0.125437)
(-0.38658 0.190577 -0.134606)
(-0.372034 0.213878 -0.145223)
(-0.36436 0.238237 -0.157163)
(-0.325568 0.259496 -0.163519)
(-0.278024 0.280438 -0.164983)
(-0.205565 0.295583 -0.153363)
(-0.130898 0.301867 -0.133663)
(-0.0573725 0.305369 -0.110012)
(0.0059668 0.290649 -0.0771036)
(0.0692514 0.259812 -0.0466131)
(0.107191 0.212325 -0.0391303)
(0.119676 0.160259 -0.0262325)
(0.114861 0.109982 -0.0129758)
(0.0964941 0.0702657 -0.00547448)
(0.0773878 0.0417953 -0.00114637)
(0.0531946 0.0268937 -0.000179701)
(0.0317829 0.0170324 0.00121272)
(0.00768037 0.00862055 0.00122543)
(-0.000395121 -0.00452188 0.00149357)
(0.0156296 -0.0223384 -0.00210277)
(0.032858 -0.01719 -0.00314786)
(0.0439002 -0.00513575 -0.00446694)
(0.0462594 0.00424748 -0.00606787)
(0.0444184 0.0153176 -0.00737929)
(0.0375294 0.0302217 -0.00842167)
(0.0232495 0.0442657 -0.0100008)
(0.00805258 0.068436 -0.00168908)
(-0.021605 0.089807 -0.00496386)
(-0.0592555 0.11625 -0.008214)
(-0.111769 0.148572 -0.0131911)
(-0.165584 0.18224 -0.0177762)
(-0.24357 0.211275 -0.0326512)
(-0.338283 0.231646 -0.036144)
(-0.434547 0.2456 -0.0426532)
(-0.517082 0.250587 -0.0595714)
(-0.605373 0.270111 -0.0785728)
(-0.644831 0.301153 -0.0964286)
(-0.717162 0.336595 -0.11597)
(-0.655163 0.374706 -0.103969)
(-0.496764 0.405674 -0.124047)
(-0.462917 0.462604 -0.124724)
(-0.437133 0.49267 -0.12338)
(-0.42046 0.524713 -0.126662)
(-0.377311 0.545921 -0.125291)
(-0.329277 0.560365 -0.120638)
(-0.262829 0.56316 -0.10524)
(-0.197498 0.553067 -0.0829195)
(-0.131154 0.53255 -0.0595725)
(-0.0761799 0.500357 -0.040038)
(-0.0311583 0.452712 -0.027988)
(0.00194177 0.380228 -0.0176147)
(0.0243272 0.307398 -0.00891575)
(0.0382709 0.228146 -0.010695)
(0.0447715 0.163547 -0.0110025)
(0.0456317 0.116359 -0.00741114)
(0.0370404 0.0795442 -0.00523254)
(0.0264666 0.0534038 -0.00164155)
(0.00765878 0.0272872 0.00104052)
(0.000972536 -0.0086373 0.00188426)
(0.0179845 -0.0234911 -0.00136303)
(0.0389915 -0.0108834 -0.00397572)
(0.0467572 0.00587687 -0.00720224)
(0.0449328 0.0297864 -0.00792899)
(0.041217 0.054019 -0.00938405)
(0.0286524 0.0891867 -0.00922493)
(0.0106503 0.121981 -0.00589366)
(-0.0157883 0.166835 -0.0106616)
(-0.0613619 0.206635 -0.0130303)
(-0.106972 0.25065 -0.0174883)
(-0.171215 0.288388 -0.0250764)
(-0.253474 0.317605 -0.027853)
(-0.343838 0.334538 -0.0294721)
(-0.428995 0.356093 -0.0323586)
(-0.508127 0.379397 -0.0368441)
(-0.575101 0.410262 -0.0522954)
(-0.650298 0.439262 -0.0625345)
(-0.675949 0.48221 -0.0723008)
(-0.73503 0.528271 -0.0781398)
(-0.661939 0.561111 -0.0454329)
(-0.482395 0.583421 -0.0456833)
(-0.434664 0.625181 -0.039446)
(-0.408903 0.630995 -0.0295005)
(-0.393183 0.644181 -0.0276877)
(-0.359056 0.64416 -0.0228388)
(-0.32272 0.636812 -0.0193783)
(-0.272896 0.617628 -0.0115899)
(-0.225186 0.59172 0.000401241)
(-0.179306 0.558458 0.00764213)
(-0.148566 0.517053 0.0124556)
(-0.122762 0.471889 0.0111835)
(-0.0987893 0.411968 0.00524942)
(-0.0760618 0.349888 -0.00267117)
(-0.0522939 0.270514 -0.00615345)
(-0.0220217 0.203176 -0.0108277)
(-0.00101888 0.148662 -0.0111036)
(0.00782443 0.112527 -0.00832325)
(0.0161055 0.0795456 -0.00380954)
(0.00604988 0.039987 0.000778264)
(0.00112121 -0.00908086 0.000536334)
(0.0237225 -0.0127074 -0.00409961)
(0.0462702 0.00408049 -0.00803299)
(0.0552565 0.037963 -0.00896403)
(0.0528198 0.0750635 -0.00872356)
(0.0471457 0.120616 -0.0158253)
(0.029503 0.175125 -0.0138757)
(0.00184048 0.23465 -0.00666713)
(-0.0307188 0.290798 -0.00819142)
(-0.083489 0.338344 -0.0104246)
(-0.142592 0.376323 -0.0133562)
(-0.220297 0.397007 -0.01599)
(-0.294091 0.419752 -0.0165646)
(-0.368365 0.44446 -0.0217687)
(-0.439704 0.474863 -0.0215512)
(-0.507632 0.507772 -0.0221283)
(-0.561899 0.536711 -0.0265431)
(-0.618604 0.571265 -0.0246302)
(-0.624573 0.620498 -0.0185901)
(-0.66873 0.668098 -0.0263841)
(-0.596939 0.695324 0.00646277)
(-0.411141 0.701906 0.0170188)
(-0.359277 0.714244 0.0288616)
(-0.34301 0.686227 0.0365987)
(-0.339429 0.669648 0.0364389)
(-0.324532 0.642957 0.0421931)
(-0.30805 0.611192 0.043286)
(-0.276849 0.573974 0.0471834)
(-0.249836 0.532645 0.0403428)
(-0.223967 0.492421 0.0319032)
(-0.204528 0.446947 0.0216787)
(-0.194214 0.413403 0.0146246)
(-0.185133 0.375089 0.00720394)
(-0.177338 0.344046 -0.00481875)
(-0.153989 0.280165 -0.0142846)
(-0.104522 0.210825 -0.0150872)
(-0.0529955 0.162939 -0.0142355)
(-0.0174561 0.132622 -0.0120265)
(0.00254076 0.0986463 -0.00656209)
(0.00316705 0.050242 0.000777341)
(0.00586088 -0.00341374 -0.000138849)
(0.028631 0.00247581 -0.00690877)
(0.0599787 0.0291647 -0.00672675)
(0.0718482 0.0805447 -0.0102672)
(0.0666058 0.138206 -0.0153022)
(0.0633027 0.201525 -0.0191458)
(0.0471634 0.276305 -0.0144507)
(0.0140269 0.331281 -0.00607125)
(-0.0377057 0.376572 -0.00610147)
(-0.106928 0.411169 -0.00838337)
(-0.175834 0.441294 -0.0105047)
(-0.240925 0.468801 -0.0106487)
(-0.299321 0.502618 -0.00897296)
(-0.357578 0.530936 -0.00586655)
(-0.406545 0.561096 -0.000347)
(-0.45904 0.589837 0.00548897)
(-0.491106 0.620226 0.00891814)
(-0.524809 0.651272 0.00859766)
(-0.524233 0.700614 0.00973863)
(-0.555878 0.736899 0.00951798)
(-0.487511 0.760295 0.0406398)
(-0.319499 0.712815 0.0538039)
(-0.284617 0.694923 0.0647131)
(-0.290218 0.635817 0.075591)
(-0.301228 0.59603 0.077026)
(-0.305421 0.552914 0.0762267)
(-0.3049 0.510525 0.0734448)
(-0.29384 0.468023 0.0667955)
(-0.280058 0.420915 0.0646741)
(-0.268277 0.381896 0.043104)
(-0.258788 0.338016 0.0314619)
(-0.247607 0.307142 0.0160427)
(-0.23327 0.280573 0.00559764)
(-0.239022 0.268723 -0.00612511)
(-0.241498 0.244249 -0.0176708)
(-0.176005 0.195322 -0.0151957)
(-0.0936324 0.164064 -0.0158653)
(-0.0409903 0.138371 -0.0124127)
(-0.00511582 0.106769 -0.00735571)
(0.00222383 0.0541556 0.00129676)
(0.00623497 0.00235482 -0.00134024)
(0.0378278 0.0161326 -0.0102501)
(0.0807399 0.0566217 -0.0106747)
(0.105135 0.111647 -0.01289)
(0.100611 0.177888 -0.0182054)
(0.0977188 0.250261 -0.020916)
(0.0608029 0.319077 -0.0147442)
(-0.00214825 0.346873 0.000492436)
(-0.0534447 0.390979 -0.00450812)
(-0.11013 0.428673 -0.00513292)
(-0.158118 0.473393 -0.00510688)
(-0.208396 0.516159 -0.00312295)
(-0.254255 0.556718 0.000470319)
(-0.301103 0.590451 0.00529166)
(-0.340324 0.624001 0.0136946)
(-0.375501 0.64905 0.0189153)
(-0.396939 0.677341 0.0254076)
(-0.415984 0.689708 0.0286584)
(-0.402137 0.715278 0.0275508)
(-0.42286 0.727845 0.0177077)
(-0.415387 0.747986 0.0365884)
(-0.280367 0.639958 0.0570609)
(-0.232537 0.593689 0.0620168)
(-0.255762 0.530278 0.0731354)
(-0.277589 0.489011 0.0726241)
(-0.29889 0.450389 0.0714688)
(-0.314453 0.415592 0.0673482)
(-0.320168 0.380649 0.0596712)
(-0.319464 0.343532 0.0461264)
(-0.319914 0.308889 0.0298046)
(-0.316803 0.275536 0.0162998)
(-0.308652 0.247215 0.00320973)
(-0.293589 0.22644 -0.00460648)
(-0.287321 0.210882 -0.0121067)
(-0.28997 0.221105 -0.0204053)
(-0.228042 0.196056 -0.0217507)
(-0.128327 0.170329 -0.0225571)
(-0.0563032 0.149762 -0.017446)
(-0.0103066 0.11638 -0.0112761)
(0.00219413 0.0596243 -0.000446006)
(0.0071481 0.0086989 -0.00397606)
(0.0454325 0.0349789 -0.0140103)
(0.0992496 0.0838819 -0.01404)
(0.125546 0.139988 -0.0120156)
(0.128214 0.199419 -0.013)
(0.118286 0.272267 -0.0145821)
(0.0581327 0.306123 -0.00467906)
(0.00725851 0.351927 0.00373113)
(-0.0228421 0.398145 -0.000718845)
(-0.0724839 0.452694 0.000931368)
(-0.113804 0.497821 0.00139294)
(-0.156228 0.536421 0.00792392)
(-0.19236 0.570604 0.013559)
(-0.22428 0.598151 0.0220023)
(-0.250512 0.624998 0.0264054)
(-0.279529 0.640414 0.0309653)
(-0.296763 0.653223 0.0340732)
(-0.314846 0.650888 0.0334481)
(-0.311189 0.648254 0.0307435)
(-0.323815 0.621161 0.0152611)
(-0.364392 0.628659 0.0180144)
(-0.281696 0.543239 0.037631)
(-0.217506 0.466412 0.0403107)
(-0.243039 0.424575 0.0514081)
(-0.27288 0.390067 0.0543617)
(-0.30483 0.364618 0.0552546)
(-0.330683 0.339347 0.0558853)
(-0.34812 0.312848 0.0480601)
(-0.358841 0.285307 0.0379714)
(-0.365775 0.254768 0.0155058)
(-0.367039 0.223072 0.00608969)
(-0.357198 0.19797 -0.0033861)
(-0.3418 0.185061 -0.0106884)
(-0.322433 0.174865 -0.0144796)
(-0.328593 0.195778 -0.0239436)
(-0.277952 0.199866 -0.0216727)
(-0.162597 0.176105 -0.0231891)
(-0.0749608 0.159381 -0.017965)
(-0.0154912 0.123938 -0.0108576)
(0.00314027 0.0638111 0.000362423)
(0.00569832 0.0227967 -0.00683151)
(0.0538815 0.0668545 -0.0180271)
(0.11967 0.123077 -0.0195735)
(0.152173 0.179152 -0.0140865)
(0.160733 0.240102 -0.0145372)
(0.132105 0.294228 -0.0148378)
(0.0774954 0.326965 -0.00495727)
(0.0369547 0.386423 0.00273794)
(0.0109704 0.42411 0.00908835)
(-0.0223454 0.465746 0.00842222)
(-0.0615669 0.502155 0.0128216)
(-0.0929512 0.53097 0.0180137)
(-0.11881 0.553987 0.025948)
(-0.14334 0.568175 0.0321871)
(-0.166419 0.573931 0.0346229)
(-0.191997 0.570652 0.0352061)
(-0.213324 0.565351 0.0340203)
(-0.239661 0.548316 0.0293961)
(-0.26005 0.53475 0.0233109)
(-0.274078 0.4991 0.00961879)
(-0.325412 0.490383 -0.000755276)
(-0.304548 0.457602 0.0121327)
(-0.235008 0.362412 0.0208813)
(-0.241258 0.345179 0.0276982)
(-0.276681 0.320794 0.0351814)
(-0.313088 0.305584 0.0391224)
(-0.348449 0.288031 0.0440862)
(-0.373554 0.266078 0.0393632)
(-0.394333 0.242743 0.0232473)
(-0.411243 0.209356 0.00687968)
(-0.412967 0.184061 -0.00277495)
(-0.399635 0.160816 -0.00942388)
(-0.383813 0.147352 -0.0140608)
(-0.354517 0.14736 -0.0234026)
(-0.343188 0.160091 -0.026621)
(-0.308195 0.195564 -0.030592)
(-0.198429 0.179629 -0.0268682)
(-0.0903499 0.169499 -0.0251701)
(-0.0206284 0.134687 -0.0140611)
(0.00406274 0.0708053 -0.0018556)
(0.00776147 0.038845 -0.00940087)
(0.0630341 0.104709 -0.0256657)
(0.138481 0.165128 -0.0246023)
(0.177669 0.219187 -0.0152624)
(0.181256 0.274072 -0.0161177)
(0.151233 0.307902 -0.0157565)
(0.108949 0.353701 -0.00617646)
(0.0768344 0.401288 0.00531551)
(0.0472485 0.440886 0.0124093)
(0.0220484 0.467415 0.0231876)
(-0.0028925 0.491585 0.0211724)
(-0.0320212 0.505217 0.0310345)
(-0.0556506 0.512531 0.0365536)
(-0.0783749 0.5055 0.0421637)
(-0.100969 0.491152 0.0424519)
(-0.127954 0.468415 0.0392776)
(-0.154982 0.446036 0.0338674)
(-0.185656 0.419609 0.0262392)
(-0.216957 0.402447 0.0175279)
(-0.245646 0.383147 0.00393576)
(-0.298078 0.367231 -0.00941039)
(-0.328915 0.366582 -0.0061886)
(-0.265116 0.299192 0.010061)
(-0.238213 0.291827 0.0125566)
(-0.277559 0.274175 0.0238352)
(-0.314797 0.26603 0.0303669)
(-0.355909 0.247372 0.0397752)
(-0.388845 0.231069 0.0327588)
(-0.418334 0.201243 0.0239414)
(-0.433141 0.174308 0.00746274)
(-0.438309 0.145989 0.00838224)
(-0.43209 0.123297 0.0156862)
(-0.412082 0.104056 0.0118)
(-0.385045 0.105036 0.00809574)
(-0.364023 0.118015 -0.0155082)
(-0.331546 0.165844 -0.0261971)
(-0.228946 0.176845 -0.0261412)
(-0.108631 0.169719 -0.0219066)
(-0.0265799 0.142474 -0.0133165)
(0.00493577 0.0753191 -0.00071647)
(0.00881456 0.0628671 -0.0120426)
(0.0721754 0.148978 -0.0319367)
(0.15659 0.212848 -0.0311739)
(0.202254 0.262503 -0.0194353)
(0.201356 0.301893 -0.0121586)
(0.175971 0.335129 -0.0159617)
(0.149282 0.375624 -0.00531756)
(0.11882 0.413874 0.00196736)
(0.0943101 0.443421 0.00985387)
(0.0667585 0.465464 0.0256782)
(0.0392724 0.47292 0.0348415)
(0.020239 0.473375 0.0450343)
(-0.00122871 0.462247 0.0473816)
(-0.0282734 0.438805 0.0487003)
(-0.0560269 0.412275 0.0475565)
(-0.0873036 0.379985 0.0411255)
(-0.11998 0.351232 0.0325233)
(-0.155885 0.323861 0.0232049)
(-0.190084 0.306098 0.0145105)
(-0.227464 0.294456 0.00168088)
(-0.277539 0.282938 -0.00864102)
(-0.323227 0.287297 -0.0108772)
(-0.269446 0.267509 0.00325637)
(-0.23129 0.256598 0.00441488)
(-0.266275 0.24387 0.0170908)
(-0.306289 0.231874 0.0251312)
(-0.352871 0.217088 0.0340421)
(-0.390073 0.194521 0.0310964)
(-0.423426 0.168812 0.0191102)
(-0.446445 0.138428 0.028331)
(-0.460225 0.10337 0.0301184)
(-0.460496 0.074633 0.0160441)
(-0.445346 0.0578309 0.011538)
(-0.410632 0.0549313 0.00251776)
(-0.371838 0.0688647 -0.00234336)
(-0.340271 0.117977 -0.0248809)
(-0.25358 0.156715 -0.0292384)
(-0.125998 0.167175 -0.0241822)
(-0.029922 0.147455 -0.0153345)
(0.00427296 0.0811708 -0.00239142)
(0.0100866 0.081738 -0.012765)
(0.0782026 0.188705 -0.035943)
(0.170675 0.255447 -0.0345355)
(0.216098 0.29464 -0.0185781)
(0.220444 0.322871 -0.0109855)
(0.205441 0.355796 -0.00852245)
(0.184082 0.388212 -0.00743339)
(0.158848 0.413093 0.00495898)
(0.132711 0.434209 0.0105968)
(0.108738 0.443435 0.0216993)
(0.0865902 0.447836 0.0327306)
(0.0588615 0.437663 0.0497631)
(0.0317036 0.41512 0.0540502)
(0.00890395 0.380471 0.0551961)
(-0.0205919 0.34695 0.0480662)
(-0.0567114 0.31514 0.0394694)
(-0.0933522 0.289544 0.0280304)
(-0.13145 0.267097 0.0182202)
(-0.167555 0.257029 0.0100235)
(-0.21013 0.247461 -0.00142466)
(-0.258372 0.242454 -0.00829242)
(-0.300597 0.243271 -0.0112952)
(-0.253634 0.24519 0.000296605)
(-0.213302 0.230889 -0.000336921)
(-0.246683 0.215342 0.0121786)
(-0.284166 0.199708 0.0209629)
(-0.333534 0.183375 0.0288553)
(-0.374323 0.160013 0.0225066)
(-0.412122 0.132411 0.0370972)
(-0.4445 0.0968515 0.0438196)
(-0.465526 0.0613886 0.0365381)
(-0.467907 0.0346333 0.0467132)
(-0.459766 0.0129902 0.0378176)
(-0.438497 0.00903889 0.035391)
(-0.398394 0.0176707 0.024547)
(-0.354738 0.0633708 0.00227585)
(-0.266914 0.119357 -0.0262473)
(-0.140203 0.154359 -0.0258436)
(-0.0362233 0.145812 -0.014929)
(0.00536552 0.0839479 -0.00233999)
(0.0106765 0.103749 -0.0117693)
(0.0834447 0.230281 -0.0381942)
(0.1772 0.298024 -0.0374069)
(0.228069 0.327634 -0.0194108)
(0.243112 0.350484 -0.0065737)
(0.236364 0.374581 -0.00105945)
(0.216925 0.39794 0.00295117)
(0.193154 0.413081 0.00382634)
(0.172854 0.42336 0.0128392)
(0.150078 0.426064 0.0240039)
(0.124218 0.417705 0.0330995)
(0.0977982 0.399499 0.0402184)
(0.0657875 0.372422 0.0524653)
(0.032711 0.338445 0.0539539)
(0.00470768 0.298092 0.0490326)
(-0.0297203 0.269596 0.0355052)
(-0.0702707 0.247666 0.0226941)
(-0.107791 0.231057 0.0135919)
(-0.144994 0.225935 0.00532259)
(-0.188774 0.217074 -0.00193462)
(-0.231795 0.217035 -0.00741485)
(-0.264981 0.214214 -0.00896443)
(-0.221653 0.231376 -0.00100706)
(-0.189663 0.209595 -0.00298877)
(-0.217128 0.188762 0.00857199)
(-0.253306 0.167928 0.0165752)
(-0.301511 0.145123 0.0211669)
(-0.345242 0.122459 0.0319659)
(-0.390504 0.0898862 0.0447227)
(-0.429606 0.0550734 0.0451711)
(-0.452732 0.0241127 0.0660029)
(-0.474184 -0.0135122 0.048039)
(-0.479712 -0.0518307 0.0337328)
(-0.463427 -0.0726181 0.0112518)
(-0.421623 -0.0610822 0.0038774)
(-0.373985 -0.0152645 0.00709431)
(-0.287613 0.0684314 -0.00357366)
(-0.155768 0.125966 -0.0317222)
(-0.0413065 0.140165 -0.0147993)
(0.00518163 0.0877662 -0.00391008)
(0.0104077 0.110358 -0.0109761)
(0.0822268 0.253354 -0.0405836)
(0.177785 0.324109 -0.0413155)
(0.234429 0.351125 -0.0224468)
(0.260257 0.365728 -0.00430723)
(0.261084 0.378439 0.00528342)
(0.244129 0.390938 0.0113495)
(0.222191 0.399909 0.0144494)
(0.202611 0.405629 0.0175122)
(0.180619 0.4008 0.0217323)
(0.157704 0.38687 0.0265682)
(0.126796 0.363645 0.0381788)
(0.0932035 0.332454 0.0394568)
(0.0564852 0.300429 0.0469257)
(0.0236257 0.26788 0.0457421)
(-0.00649439 0.236228 0.0309288)
(-0.0464376 0.220216 0.0178027)
(-0.081254 0.206234 0.00990631)
(-0.11839 0.201965 0.00242368)
(-0.158831 0.195507 -0.00177395)
(-0.197424 0.194359 -0.00570212)
(-0.212798 0.195126 -0.00439529)
(-0.178169 0.222159 -0.000745237)
(-0.163833 0.190974 -0.0015673)
(-0.187411 0.163331 0.00480518)
(-0.219301 0.133784 0.0124432)
(-0.262559 0.110854 0.0154239)
(-0.305992 0.081763 0.0336532)
(-0.354238 0.0509886 0.0404126)
(-0.390653 0.0219756 0.0631661)
(-0.436298 -0.0187149 0.0467718)
(-0.478286 -0.0715037 0.0382768)
(-0.494686 -0.117109 0.023319)
(-0.481214 -0.149784 0.0120489)
(-0.439474 -0.152152 -0.00853394)
(-0.378814 -0.112573 -0.00735415)
(-0.294504 -0.0125596 -0.00096251)
(-0.173047 0.0824522 -0.0176429)
(-0.0462465 0.124449 -0.0205687)
(0.00662008 0.0869598 -0.00244705)
(0.00931423 0.120703 -0.00857512)
(0.0816067 0.277871 -0.0396293)
(0.178446 0.353441 -0.0424816)
(0.241462 0.377821 -0.0232026)
(0.274425 0.384778 -0.00274747)
(0.280782 0.384708 0.0112896)
(0.269756 0.387444 0.0209256)
(0.253082 0.390208 0.0235247)
(0.23556 0.389931 0.0260327)
(0.212713 0.3805 0.0282415)
(0.187051 0.363705 0.0296833)
(0.156666 0.33574 0.0283945)
(0.12077 0.306338 0.0282658)
(0.0832441 0.270967 0.0301523)
(0.0439641 0.24524 0.0351308)
(0.0130125 0.215569 0.0258781)
(-0.02011 0.196752 0.0124039)
(-0.0548769 0.187026 0.0070456)
(-0.0872882 0.181635 0.000489339)
(-0.124977 0.174327 -0.00154183)
(-0.153209 0.172193 -0.00273996)
(-0.149947 0.191555 0.00203577)
(-0.131992 0.199044 0.000323291)
(-0.144731 0.167267 0.000667173)
(-0.162168 0.135972 0.00437215)
(-0.184917 0.102265 0.00849099)
(-0.222561 0.0757148 0.0209325)
(-0.264784 0.04477 0.0291187)
(-0.303185 0.018663 0.0485194)
(-0.35433 -0.0181444 0.0420634)
(-0.412617 -0.0712907 0.0393215)
(-0.460295 -0.122904 0.0290333)
(-0.490209 -0.174748 0.0178266)
(-0.492373 -0.216049 0.00199359)
(-0.457406 -0.235174 -0.0139626)
(-0.390206 -0.205677 -0.0214444)
(-0.30055 -0.116459 -0.0189648)
(-0.183762 0.0263832 0.00135318)
(-0.0549444 0.103944 -0.0272983)
(0.00541209 0.0897467 -0.00379)
(0.00700899 0.10165 -0.00923252)
(0.0754305 0.272269 -0.040061)
(0.172669 0.353929 -0.0420154)
(0.240411 0.379173 -0.0227708)
(0.280536 0.38105 0.000659726)
(0.294971 0.376972 0.0150037)
(0.291447 0.374946 0.0213293)
(0.276673 0.370005 0.0250573)
(0.25883 0.362094 0.0272185)
(0.2376 0.350235 0.0279528)
(0.212203 0.33097 0.0273082)
(0.179867 0.307415 0.0245979)
(0.141916 0.27712 0.0201131)
(0.103718 0.247835 0.0130448)
(0.0662892 0.22113 0.017793)
(0.0314226 0.204181 0.0145557)
(0.00344714 0.183516 0.00883928)
(-0.0218904 0.174407 0.00321257)
(-0.0555755 0.163185 -0.00187373)
(-0.0873134 0.160872 -0.000737365)
(-0.0924984 0.169518 0.00252885)
(-0.0932151 0.180875 0.00371525)
(-0.103702 0.167037 0.00370655)
(-0.121974 0.139767 0.004035)
(-0.140699 0.114777 0.00417581)
(-0.158941 0.0778726 0.00722944)
(-0.188644 0.0493027 0.0146724)
(-0.219582 0.0183038 0.0314103)
(-0.262756 -0.0131902 0.0324629)
(-0.317953 -0.0616069 0.0351145)
(-0.373725 -0.110237 0.0309452)
(-0.426945 -0.167537 0.0262581)
(-0.465348 -0.226347 0.0157631)
(-0.481327 -0.281645 0.00206194)
(-0.459166 -0.314992 -0.0155932)
(-0.399383 -0.304701 -0.0280914)
(-0.294491 -0.226208 -0.0317121)
(-0.184637 -0.072849 -0.0190935)
(-0.0633571 0.0589926 -0.0194799)
(0.00686474 0.0794704 -0.00763555)
(0.00809336 0.107715 -0.00304835)
(0.0753709 0.28498 -0.0336087)
(0.171391 0.370447 -0.0385692)
(0.245333 0.393141 -0.0182163)
(0.294993 0.389121 0.00677896)
(0.318428 0.376064 0.0153825)
(0.317076 0.366719 0.0235104)
(0.302824 0.356006 0.0251786)
(0.287616 0.347177 0.024211)
(0.266432 0.332089 0.0215001)
(0.242228 0.311714 0.0183369)
(0.209986 0.285121 0.0137129)
(0.170389 0.257038 0.00972664)
(0.130832 0.227956 0.00625294)
(0.0943253 0.20562 0.00369209)
(0.0603247 0.189969 0.0048345)
(0.0292464 0.179362 0.00150388)
(0.00297805 0.173686 -0.000427631)
(-0.0198309 0.165865 -0.000461597)
(-0.0335331 0.167759 0.00111372)
(-0.0443121 0.17054 0.00387302)
(-0.0603825 0.156275 0.00620575)
(-0.0778396 0.138894 0.0069597)
(-0.0983854 0.115247 0.00667023)
(-0.120636 0.093596 0.00797058)
(-0.138876 0.0612496 0.00694531)
(-0.160043 0.0279232 0.016697)
(-0.192392 -0.0044475 0.0187998)
(-0.233399 -0.0464713 0.022791)
(-0.283614 -0.0887211 0.0237043)
(-0.337953 -0.136837 0.0250538)
(-0.390663 -0.193638 0.022573)
(-0.433561 -0.25614 0.0164074)
(-0.458839 -0.322026 0.00415022)
(-0.449034 -0.371694 -0.012504)
(-0.399249 -0.385819 -0.0294916)
(-0.304848 -0.322441 -0.0424177)
(-0.189543 -0.176157 -0.0319368)
(-0.0609071 0.0142256 -0.00947032)
(0.00632752 0.0754616 -0.0129292)
(-0.00207253 0.0802912 -0.015095)
(0.0543549 0.26563 -0.0404322)
(0.152102 0.361686 -0.0463538)
(0.233854 0.387046 -0.0260358)
(0.293216 0.385638 -0.00387129)
(0.328574 0.366069 0.00978389)
(0.339078 0.349538 0.0157367)
(0.329348 0.330838 0.0163345)
(0.312864 0.317632 0.0145099)
(0.289316 0.308053 0.0108455)
(0.262026 0.297577 0.00771645)
(0.228513 0.282477 0.00483828)
(0.188729 0.26284 0.00210217)
(0.151099 0.242662 0.000655447)
(0.119283 0.222486 0.000518092)
(0.0893574 0.21203 0.00348)
(0.0677842 0.208673 -0.00239742)
(0.045281 0.205365 -0.00291595)
(0.0209673 0.196602 -0.00126755)
(0.00194167 0.185772 0.00243555)
(-0.0178248 0.163444 0.00598103)
(-0.0376631 0.141195 0.00854432)
(-0.0570993 0.118527 0.00893761)
(-0.0779339 0.0958408 0.00973314)
(-0.10178 0.0741162 0.0096382)
(-0.125305 0.0507886 0.00678952)
(-0.145197 0.0158507 0.00529971)
(-0.172074 -0.0193797 0.00776469)
(-0.207464 -0.0605108 0.0104246)
(-0.248373 -0.108114 0.0138954)
(-0.295489 -0.160089 0.0155226)
(-0.34538 -0.223738 0.0153716)
(-0.390459 -0.294102 0.0111674)
(-0.422588 -0.372374 0.00176279)
(-0.425866 -0.438218 -0.0134998)
(-0.386405 -0.471159 -0.030234)
(-0.296863 -0.427353 -0.0551667)
(-0.184844 -0.296373 -0.0487833)
(-0.0579016 -0.0671359 -0.0152604)
(0.00517471 0.0562313 -0.00312287)
(-0.00252977 0.146649 -0.0049071)
(0.050783 0.347448 -0.0195137)
(0.142438 0.446486 -0.0307639)
(0.227737 0.467835 -0.011274)
(0.295933 0.456124 -0.0039811)
(0.336823 0.423471 0.0123239)
(0.351877 0.387093 0.0154586)
(0.347068 0.373283 0.0181417)
(0.345263 0.382595 0.014942)
(0.332624 0.388607 0.0105066)
(0.308729 0.385886 0.00473097)
(0.271838 0.37239 0.000214614)
(0.228521 0.348047 -0.00315375)
(0.184915 0.320527 -0.00409888)
(0.152142 0.291928 -0.00270301)
(0.130012 0.267986 0.000363584)
(0.103569 0.250145 0.000859227)
(0.0712905 0.230634 -0.00688541)
(0.0418694 0.211442 -0.00322329)
(0.0150869 0.185391 -0.00177055)
(-0.00759037 0.1591 0.00592154)
(-0.0248817 0.129969 0.00794941)
(-0.0432429 0.106033 0.00933359)
(-0.0621279 0.0815277 0.010757)
(-0.0822905 0.0594618 0.00755322)
(-0.108599 0.0376815 0.00508576)
(-0.133112 0.0107743 0.00298039)
(-0.159234 -0.0248155 -0.00266644)
(-0.19576 -0.0627959 -0.0020676)
(-0.234584 -0.105939 0.000992656)
(-0.27707 -0.151427 0.00601901)
(-0.32049 -0.211407 0.0097149)
(-0.362099 -0.281304 0.0107233)
(-0.39508 -0.366544 0.00493004)
(-0.401427 -0.448976 -0.00871353)
(-0.37132 -0.516277 -0.0301606)
(-0.303894 -0.517069 -0.0618094)
(-0.190615 -0.391314 -0.0591226)
(-0.0513207 -0.175879 -0.0345963)
(0.00776425 0.0239766 -0.00420744)
(-0.0180069 0.230216 -0.0242027)
(0.0197704 0.469947 -0.042217)
(0.11038 0.579403 -0.0505648)
(0.196133 0.617979 -0.0351663)
(0.268287 0.608007 -0.0238541)
(0.317157 0.57694 -0.00660877)
(0.362281 0.531198 0.00243576)
(0.403158 0.505857 0.00296513)
(0.408982 0.499306 -0.00401706)
(0.376998 0.483348 -0.00872842)
(0.334709 0.45969 -0.0111741)
(0.283081 0.428185 -0.0119501)
(0.230683 0.390224 -0.0115689)
(0.187215 0.350422 -0.0100357)
(0.154857 0.314735 -0.00764132)
(0.131144 0.278302 -0.00316868)
(0.111762 0.246126 0.00128005)
(0.0867792 0.217609 0.00268649)
(0.054554 0.198618 -0.0026178)
(0.0274876 0.171166 0.000246622)
(0.00296827 0.148274 0.00370489)
(-0.0161458 0.117311 0.00781373)
(-0.031744 0.0930012 0.00896363)
(-0.0503879 0.0683433 0.010919)
(-0.0692324 0.0432389 0.00535558)
(-0.0931217 0.0178269 0.00768546)
(-0.11957 -0.00239632 0.00666011)
(-0.146084 -0.0291599 0.00354749)
(-0.172414 -0.0596363 -0.00141361)
(-0.198031 -0.105429 -0.00647879)
(-0.23334 -0.160701 -0.0111126)
(-0.273167 -0.2352 -0.0140823)
(-0.312771 -0.318202 -0.0163739)
(-0.349828 -0.421133 -0.0200444)
(-0.37695 -0.519533 -0.0284991)
(-0.376165 -0.618352 -0.0457155)
(-0.305437 -0.645785 -0.0686993)
(-0.225255 -0.54208 -0.0831629)
(-0.0878602 -0.257852 -0.040953)
(0.0144099 0.0123868 -0.00297307)
(0.000526453 0.204711 0.000535986)
(0.039194 0.448985 -0.0368875)
(0.114607 0.574548 -0.0495436)
(0.200737 0.6319 -0.0455875)
(0.272455 0.637509 -0.0370913)
(0.322631 0.61927 -0.026093)
(0.362693 0.583433 -0.0193189)
(0.398422 0.539537 -0.00916532)
(0.406462 0.4978 -0.0108577)
(0.37781 0.462329 -0.0100394)
(0.339854 0.429022 -0.00956243)
(0.290977 0.396387 -0.00746971)
(0.240567 0.359543 -0.00543014)
(0.198661 0.326304 -0.00259927)
(0.167228 0.293864 -0.00132308)
(0.145673 0.262655 0.00145756)
(0.124088 0.230584 0.0039286)
(0.102873 0.199847 0.00703885)
(0.0723339 0.179211 0.00824095)
(0.0390693 0.15813 0.0015656)
(0.0107799 0.133809 0.00450793)
(-0.0096029 0.106486 0.00794656)
(-0.0225937 0.0813107 0.00957654)
(-0.0420184 0.0542034 0.00959924)
(-0.0610138 0.0298152 0.00703444)
(-0.0788073 0.00422145 0.009958)
(-0.0984041 -0.0139601 0.0104752)
(-0.125063 -0.0337036 0.006603)
(-0.165733 -0.0524166 0.0033015)
(-0.207064 -0.0877022 0.00417658)
(-0.247787 -0.134103 0.00665181)
(-0.28201 -0.203948 0.00715496)
(-0.311415 -0.293901 0.00484131)
(-0.328039 -0.430002 -0.00473579)
(-0.341608 -0.57856 -0.0146132)
(-0.337913 -0.719737 -0.0259639)
(-0.284388 -0.793177 -0.0494617)
(-0.173567 -0.760111 -0.0642377)
(-0.0528384 -0.468478 -0.0684417)
(0.000914927 -0.101644 0.00740297)
(0.000604459 0.218825 -0.00200701)
(0.0375029 0.438156 -0.032952)
(0.105942 0.561832 -0.0439448)
(0.184977 0.618291 -0.0420965)
(0.255279 0.624877 -0.0271721)
(0.309019 0.603455 -0.0214715)
(0.354404 0.566194 -0.0125319)
(0.39511 0.524914 -0.00502948)
(0.409289 0.481334 -0.00528665)
(0.386112 0.448326 -0.00422839)
(0.347565 0.416854 -0.00334507)
(0.295281 0.381541 -0.00162023)
(0.245087 0.345338 0.000550157)
(0.207316 0.311804 0.00206331)
(0.176566 0.280677 0.00317791)
(0.151866 0.248158 0.0051793)
(0.130598 0.215033 0.00768535)
(0.114152 0.179659 0.0110678)
(0.0884072 0.153902 0.0116923)
(0.0546729 0.134034 0.0119825)
(0.0213056 0.115085 0.00682646)
(-0.000498983 0.090143 0.0083959)
(-0.0166872 0.0633779 0.0110583)
(-0.0342918 0.0383092 0.00974852)
(-0.0501345 0.0154305 0.00879729)
(-0.0648023 -0.00704232 0.010913)
(-0.0801241 -0.0274848 0.011145)
(-0.0987857 -0.0505089 0.0106787)
(-0.127874 -0.0670691 0.00765813)
(-0.161711 -0.0848736 0.0051048)
(-0.202567 -0.103868 0.00483648)
(-0.247405 -0.146905 0.00584783)
(-0.309796 -0.206877 0.00931402)
(-0.363667 -0.315215 0.0148616)
(-0.380445 -0.447516 0.013718)
(-0.372389 -0.608065 0.00761806)
(-0.327647 -0.729171 -0.00705207)
(-0.227571 -0.756481 -0.0304377)
(-0.062702 -0.542838 -0.0428242)
(0.0231244 -0.112273 -0.0188964)
(0.00681969 0.195936 -0.00249617)
(0.0457021 0.394952 -0.0266867)
(0.107771 0.526804 -0.036556)
(0.18352 0.588601 -0.0358198)
(0.250924 0.605813 -0.0238595)
(0.303074 0.588995 -0.015585)
(0.349787 0.553288 -0.00679534)
(0.388043 0.510536 -0.000316903)
(0.40539 0.459655 -0.000533443)
(0.389769 0.420935 -0.00014649)
(0.350253 0.383826 0.000603592)
(0.298922 0.346117 0.00345717)
(0.253096 0.312834 0.00533534)
(0.218261 0.281565 0.0067057)
(0.188419 0.251789 0.00695863)
(0.164294 0.221351 0.00819831)
(0.1381 0.19133 0.00992531)
(0.121337 0.156388 0.0137638)
(0.102708 0.124526 0.0177551)
(0.0725995 0.10443 0.0166057)
(0.0362449 0.0916103 0.0155614)
(0.00617543 0.0700423 0.0124763)
(-0.00784566 0.0465872 0.0149693)
(-0.0231266 0.0234221 0.0119101)
(-0.0382529 0.00281347 0.0113319)
(-0.0512686 -0.0171385 0.0110027)
(-0.067325 -0.0368911 0.0106897)
(-0.0831587 -0.0615463 0.0106341)