/*--------------------------------*- C++ -*----------------------------------*\
| =========                 |                                                 |
| \\      /  F ield         | OpenFOAM: The Open Source CFD Toolbox           |
|  \\    /   O peration     | Version:  v1806                                 |
|   \\  /    A nd           | Web:      www.OpenFOAM.com                      |
|    \\/     M anipulation  |                                                 |
\*---------------------------------------------------------------------------*/
FoamFile
{
    version     2.0;
    format      ascii;
    class       surfaceScalarField;
    location    "0.094";
    object      phi;
}
// * * * * * * * * * * * * * * * * * * * * * * * * * * * * * * * * * * * * * //

dimensions      [0 3 -1 0 0 0 0];
oriented        oriented;


internalField   nonuniform List<scalar> 
187200
(
7.99487e-06
2.41022e-06
-1.04111e-05
5.53533e-05
-2.38708e-05
-2.34878e-05
7.83821e-05
-1.09597e-05
-1.2069e-05
9.77826e-05
-9.54606e-06
-9.85433e-06
0.000113538
-6.02985e-06
-9.72545e-06
0.000130839
-5.31208e-06
-1.19881e-05
0.000146256
-1.00054e-06
-1.44162e-05
0.00016327
5.65672e-07
-1.75805e-05
0.000177281
5.03296e-06
-1.90432e-05
0.000188941
7.84635e-06
-1.95066e-05
0.000201733
7.33507e-06
-2.01274e-05
0.00021105
1.21778e-05
-2.14949e-05
0.000204939
2.1252e-05
-1.51412e-05
0.000178242
3.61148e-05
-9.4184e-06
0.00013475
4.49503e-05
-1.4583e-06
9.74546e-05
2.95034e-05
7.79257e-06
4.59631e-05
3.20684e-05
1.94232e-05
-4.73435e-06
4.50873e-05
5.61019e-06
-0.000101142
9.95834e-05
-3.17527e-06
-0.000240007
0.000140657
-1.7922e-06
-0.000502696
0.000231383
3.13062e-05
-0.000692725
0.000238361
-4.83321e-05
-0.000831967
0.000285386
-0.000146144
-0.00087951
0.000309339
-0.000261796
-0.000866079
0.000339819
-0.00035325
-0.00079769
0.000368388
-0.000436777
-0.000687538
0.000393819
-0.00050397
-0.000546965
0.000409417
-0.000549991
-0.000380883
0.000403901
-0.000569984
-0.000213734
0.000387032
-0.00055418
-7.96861e-05
0.000346613
-0.000480661
9.15284e-06
0.000299408
-0.000388247
4.50369e-05
0.000238749
-0.000274632
4.12966e-05
0.000175045
-0.000171304
1.98478e-05
0.00012127
-9.98219e-05
2.37122e-07
8.15303e-05
-6.192e-05
-9.49068e-06
5.56728e-05
-4.59451e-05
-1.29058e-05
4.30712e-05
-3.96563e-05
-1.09895e-05
3.34876e-05
-3.54045e-05
2.38132e-05
-3.48029e-05
3.48531e-06
1.81005e-05
-1.91757e-05
4.58965e-05
-3.28179e-05
-3.34642e-05
8.85093e-05
-2.53445e-05
-2.8228e-05
0.00011996
-1.47132e-05
-2.62827e-05
0.000142656
-3.82831e-06
-2.48978e-05
0.000159849
6.49877e-06
-2.9003e-05
0.000168264
2.57242e-05
-3.51397e-05
0.000172334
3.76496e-05
-4.1154e-05
0.000166103
6.27802e-05
-5.15163e-05
0.000150782
8.12253e-05
-5.80582e-05
0.000110094
0.000123722
-7.56985e-05
4.65158e-05
0.000166263
-9.0508e-05
-3.77181e-05
0.000202431
-9.69454e-05
-0.000139333
0.00024555
-0.00010782
-0.000261427
0.000300446
-0.000133402
-0.00043997
0.000373703
-0.000165658
-0.000612563
0.000450006
-0.000245344
-0.000795086
0.000531748
-0.000304137
-0.000958977
0.000636393
-0.000372919
-0.00112046
0.000740588
-0.000438445
-0.00128204
0.000868946
-0.000475989
-0.00138504
0.000945479
-0.000604117
-0.00145188
0.00105139
-0.00069916
-0.00144765
0.00109268
-0.000787562
-0.00137003
0.0011368
-0.000874602
-0.00122933
0.00116016
-0.000932482
-0.00103796
0.00116714
-0.000964681
-0.000810655
0.00114445
-0.000962343
-0.000572254
0.00108683
-0.000921327
-0.000343776
0.00100561
-0.000847053
-0.000148759
0.000880749
-0.000729153
1.06333e-05
0.000735638
-0.000595622
0.000101332
0.000580936
-0.000432886
0.000129366
0.000451858
-0.000304848
0.00011928
0.000333314
-0.000201958
9.22134e-05
0.00024732
-0.000138724
6.13257e-05
0.000186189
-9.96291e-05
3.70403e-05
0.000146306
-7.89492e-05
1.36173e-05
0.000116709
-5.97991e-05
8.12458e-05
-4.38163e-05
1.93623e-05
1.1629e-05
-1.28908e-05
5.90118e-05
-3.66979e-05
-3.57696e-05
0.000100406
-2.58692e-05
-4.087e-05
0.00013091
-3.22095e-06
-4.19958e-05
0.000147047
2.79244e-05
-4.78895e-05
0.000152955
5.77126e-05
-5.71211e-05
0.000144626
9.92012e-05
-6.51484e-05
0.000128268
0.000136842
-8.28335e-05
0.000101623
0.000196792
-0.000107367
4.60115e-05
0.000264911
-0.000128074
-3.71441e-05
0.000347439
-0.000140561
-0.00014135
0.000432363
-0.000161894
-0.000296063
0.000536367
-0.000179223
-0.000471535
0.000644432
-0.000223409
-0.000667169
0.000754288
-0.000258209
-0.000848764
0.000864766
-0.000309468
-0.00100623
0.000974818
-0.000367346
-0.00114576
0.0010962
-0.000424923
-0.00127765
0.00124442
-0.000476135
-0.00141221
0.00139512
-0.000519974
-0.001545
0.00153373
-0.000531998
-0.00161831
0.00162053
-0.000601731
-0.00164699
0.00172555
-0.000645483
-0.00161957
0.00174156
-0.000676309
-0.00153065
0.00176391
-0.000716018
-0.00139339
0.00175065
-0.000727754
-0.00121868
0.00171073
-0.0007183
-0.00101858
0.00162959
-0.000685246
-0.000805692
0.00151103
-0.00063709
-0.000585841
0.00136065
-0.000574897
-0.000393862
0.00118211
-0.000493341
-0.000232693
0.00100012
-0.000425655
-0.000111812
0.000798453
-0.0003384
-2.8029e-05
0.00063668
-0.000268605
1.74363e-05
0.000488331
-0.000200483
3.43182e-05
0.00038335
-0.000152912
3.74478e-05
0.000305253
-0.000122195
3.01716e-05
0.000254626
-0.000101044
1.36443e-05
0.000206165
-7.293e-05
0.000139008
-4.41183e-05
2.18693e-05
7.71508e-06
-1.79557e-05
6.04424e-05
-2.7591e-05
-4.768e-05
0.000100606
-6.58675e-06
-5.94464e-05
0.000122874
4.09752e-05
-6.64639e-05
0.000127803
9.4957e-05
-7.19611e-05
0.000117345
0.000153203
-8.50317e-05
9.80844e-05
0.000227736
-0.000109274
6.20922e-05
0.000307963
-0.000135129
6.72398e-06
0.000419202
-0.000167042
-7.50777e-05
0.000533236
-0.000186523
-0.000191998
0.000666859
-0.0002025
-0.000336332
0.000798526
-0.00022183
-0.000495377
0.000931124
-0.000235713
-0.000648078
0.00105002
-0.000252885
-0.000797178
0.00117861
-0.000275227
-0.000936219
0.00130728
-0.000303475
-0.00106308
0.0014352
-0.000333524
-0.00117406
0.00155805
-0.000350863
-0.00128029
0.00170691
-0.00035627
-0.00138927
0.00184123
-0.000337123
-0.00151491
0.00193828
-0.000278905
-0.00158298
0.00198006
-0.000291475
-0.00160974
0.00204019
-0.000287886
-0.00159054
0.00199963
-0.000277261
-0.00152132
0.00197793
-0.000283247
-0.00142031
0.00192076
-0.000271111
-0.00129506
0.0018388
-0.000253325
-0.00115293
0.00172126
-0.000233798
-0.000999061
0.00156857
-0.000211409
-0.000831511
0.00140028
-0.00020718
-0.000651954
0.00120856
-0.000206004
-0.00047398
0.00102703
-0.000204887
-0.000315254
0.000838659
-0.000198933
-0.000187844
0.000701546
-0.000192277
-9.80471e-05
0.00057152
-0.000172987
-3.67925e-05
0.00047339
-0.000151295
2.04969e-06
0.000402877
-0.000136466
1.68129e-05
0.000351012
-0.00011115
1.49203e-05
0.000288025
-7.99685e-05
0.000195783
-4.18551e-05
2.19823e-05
2.17785e-05
-3.60458e-05
6.16655e-05
8.54363e-06
-7.58176e-05
0.000104898
4.24896e-05
-9.23088e-05
0.00012365
0.000120719
-9.84957e-05
0.000119589
0.000205752
-0.000106733
9.17503e-05
0.000302402
-0.00012136
5.04726e-05
0.000421398
-0.000152384
7.03518e-06
0.000533227
-0.000181826
-3.94542e-05
0.000675652
-0.000209961
-0.000110761
0.00082542
-0.000220878
-0.000203435
0.000982886
-0.000223353
-0.000307798
0.00112339
-0.000220501
-0.000432455
0.00126829
-0.000212505
-0.000569344
0.0013994
-0.000212492
-0.000705893
0.00152225
-0.000207089
-0.000826935
0.0016324
-0.000204081
-0.000928301
0.00172921
-0.000192638
-0.00100273
0.00179572
-0.000163235
-0.00109279
0.00189081
-9.38323e-05
-0.00119322
0.00196225
-2.05965e-05
-0.00133789
0.00200029
8.26563e-05
-0.00141371
0.00195266
0.000103222
-0.00145809
0.00196901
0.000115574
-0.00147025
0.00189617
0.000115626
-0.00144607
0.0018572
9.65436e-05
-0.00140196
0.00179111
8.55329e-05
-0.00133896
0.00170476
7.10332e-05
-0.00126912
0.00159478
5.665e-05
-0.00117292
0.00145737
1.50036e-05
-0.0010517
0.00130927
-3.0207e-05
-0.000902689
0.00114233
-8.27795e-05
-0.000733951
0.00098997
-0.000131674
-0.000563201
0.000831504
-0.000163596
-0.000396055
0.000715505
-0.000181106
-0.000256264
0.000617659
-0.000185929
-0.00014083
0.000527719
-0.000169764
-5.76236e-05
0.000469773
-0.000150103
-6.76266e-06
0.000424037
-0.000123886
8.8868e-06
0.000356299
-8.39247e-05
0.000242298
-3.76288e-05
1.51537e-05
7.01907e-05
-6.35658e-05
6.39959e-05
7.70721e-05
-0.000117371
0.00010801
0.00013761
-0.000139134
0.000127187
0.000240734
-0.000139191
0.000117024
0.000354601
-0.000138686
8.66335e-05
0.00048289
-0.000150096
5.65053e-05
0.00063638
-0.000184853
2.71007e-05
0.000780614
-0.000217982
-1.81014e-05
0.000951913
-0.000231058
-8.00313e-05
0.0011076
-0.000220247
-0.00015169
0.0012563
-0.00020176
-0.000233448
0.00138427
-0.000179123
-0.000318828
0.00150604
-0.000152373
-0.000399662
0.00160316
-0.000122923
-0.00048064
0.00169176
-8.85344e-05
-0.000547389
0.00175123
-5.20804e-05
-0.000630124
0.00179679
1.51541e-05
-0.000730198
0.00181315
8.26421e-05
-0.000832364
0.00182922
0.00016375
-0.000932337
0.00180729
0.000254939
-0.00108205
0.00182859
0.000321421
-0.00118909
0.00172675
0.000332936
-0.00126874
0.00171785
0.000330814
-0.00132851
0.00163263
0.000323299
-0.00135648
0.0015868
0.000298367
-0.00136998
0.00152698
0.00027764
-0.00136834
0.00145857
0.000244548
-0.00135537
0.00137661
0.000205198
-0.00131609
0.00127453
0.000143568
-0.0012299
0.00116852
5.45577e-05
-0.00111301
0.00104659
-2.11503e-05
-0.000947266
0.000931818
-0.000107592
-0.000768057
0.000816279
-0.000163983
-0.00056984
0.0007205
-0.000203213
-0.000388484
0.000650608
-0.000214306
-0.00023509
0.000570403
-0.000196078
-0.000112961
0.000523264
-0.00017562
-3.273e-05
0.000482323
-0.000138517
5.21425e-06
0.0004096
-9.12458e-05
0.000283968
-3.64569e-05
1.76823e-05
0.000148247
-9.57382e-05
8.2171e-05
0.000182845
-0.000170262
0.000132892
0.000272878
-0.000185989
0.000155163
0.000395765
-0.000177302
0.000147159
0.000535547
-0.000172942
0.000102918
0.000702951
-0.000175819
9.33984e-05
0.000859602
-0.000213702
7.34706e-05
0.00102401
-0.000223467
5.50146e-05
0.00118286
-0.000212494
1.7517e-05
0.00132392
-0.000178826
-3.16496e-05
0.00144953
-0.000144061
-9.54184e-05
0.00155384
-0.000105803
-0.000163948
0.00164049
-6.59249e-05
-0.000233147
0.00169468
-2.23236e-05
-0.000303472
0.00172731
3.47805e-05
-0.000363706
0.00172603
8.5437e-05
-0.000429414
0.00171558
0.000146917
-0.000495021
0.00166428
0.000214469
-0.000595998
0.00163376
0.000296442
-0.000702323
0.00154439
0.000369225
-0.000849963
0.00154456
0.000431666
-0.000994924
0.00142354
0.000448171
-0.00108796
0.00138344
0.000427442
-0.00119602
0.00133345
0.000407241
-0.00127382
0.00129971
0.000364888
-0.00134262
0.00126656
0.000329221
-0.00139478
0.00122953
0.000281198
-0.00142905
0.00118267
0.00022821
-0.0014376
0.00112416
0.000158913
-0.00138606
0.00105913
5.78527e-05
-0.00129736
0.000976631
-1.87476e-05
-0.00115287
0.000888098
-0.000100771
-0.000964433
0.000800865
-0.000173024
-0.000739351
0.000708929
-0.000213511
-0.000504938
0.000666344
-0.000250149
-0.000321411
0.000615732
-0.000228856
-0.000160651
0.000570142
-0.000207638
-5.48543e-05
0.000536841
-0.000160315
5.08648e-07
0.000459851
-0.000105614
0.000323903
-3.94261e-05
2.77261e-05
0.000249491
-0.00012897
0.000109745
0.000318968
-0.000218142
0.000174736
0.000436137
-0.00022825
0.000200947
0.000572167
-0.000202614
0.000195637
0.000723606
-0.000182749
0.000178998
0.000901785
-0.000182195
0.000188055
0.00105426
-0.000203714
0.000187406
0.00122143
-0.000196768
0.000176783
0.00135944
-0.000165956
0.000139325
0.00148122
-0.000119836
9.39377e-05
0.00157673
-8.18124e-05
3.89483e-05
0.0016433
-3.44673e-05
-2.05516e-05
0.00168114
1.88493e-05
-8.398e-05
0.00168105
7.70582e-05
-0.000144872
0.00165859
0.000129613
-0.000208071
0.00160271
0.000186513
-0.000272919
0.00153893
0.0002415
-0.000342265
0.00144872
0.000284912
-0.000429301
0.00138358
0.000337218
-0.000538795
0.00127139
0.000382493
-0.0006637
0.00124404
0.000425428
-0.000840261
0.00116767
0.00043243
-0.000958333
0.00109384
0.000407673
-0.00110403
0.00109645
0.000382693
-0.00122275
0.00107457
0.000343859
-0.00132708
0.00106611
0.000304795
-0.00141539
0.0010537
0.000264134
-0.00148542
0.00103179
0.000220908
-0.00152213
0.00100683
0.00015404
-0.00150315
0.000961834
7.83194e-05
-0.00143897
0.000901578
1.08719e-05
-0.0013149
0.000829548
-6.55249e-05
-0.00112397
0.000762507
-0.00015257
-0.000902035
0.000695986
-0.00020899
-0.000644043
0.00065569
-0.000247338
-0.000414388
0.000646455
-0.000260378
-0.000216997
0.000603351
-0.0002306
-8.04743e-05
0.000583814
-0.000183495
-6.67594e-06
0.000504239
-0.000118186
0.000361325
-4.40984e-05
4.5705e-05
0.000362325
-0.000158539
0.000152137
0.000473137
-0.000260602
0.000245654
0.00061163
-0.00026901
0.000290022
0.000753539
-0.00022574
0.000287381
0.000917745
-0.000191499
0.000285552
0.00108154
-0.000177925
0.00028601
0.00122575
-0.000171949
0.000289274
0.00137021
-0.00015205
0.000287394
0.00148
-0.000118678
0.0002607
0.00157648
-6.8567e-05
0.000217493
0.00163419
-1.425e-05
0.000166143
0.00165556
3.90896e-05
0.000102039
0.00164923
9.60183e-05
3.4674e-05
0.00160512
0.000143292
-3.19234e-05
0.00153648
0.000188706
-0.000101756
0.00144197
0.000230581
-0.000173707
0.00134683
0.000264048
-0.000248932
0.00123799
0.000285955
-0.000326082
0.00115459
0.000306132
-0.00044384
0.00105768
0.000331469
-0.000557101
0.00100538
0.000351921
-0.000733417
0.000984134
0.000359855
-0.000888517
0.000902451
0.000346492
-0.00104706
0.000932884
0.000322106
-0.00119052
0.000919072
0.000298967
-0.00131395
0.000926312
0.000263217
-0.00142718
0.000922761
0.000244171
-0.00151949
0.000921269
0.000202827
-0.0015866
0.000902144
0.000171799
-0.0016052
0.000865522
0.000114909
-0.00155961
0.000813325
4.26677e-05
-0.00145046
0.000755675
-3.52775e-05
-0.00126396
0.000696048
-0.000120036
-0.00102891
0.000647368
-0.000186441
-0.000753031
0.000615207
-0.000235392
-0.000494038
0.000642101
-0.000254639
-0.000269655
0.000627873
-0.000248904
-0.000102582
0.000617923
-0.000201183
-1.50723e-05
0.000548985
-0.000132255
0.000397265
-5.1011e-05
6.43089e-05
0.000472503
-0.000174487
0.000196433
0.000632914
-0.000291902
0.000316439
0.000787481
-0.000295857
0.000375247
0.000930363
-0.000235633
0.000391661
0.0010829
-0.000181569
0.000393044
0.00122657
-0.000146413
0.000384028
0.00135974
-0.000124971
0.000382078
0.00147315
-0.000100989
0.000373411
0.00155456
-6.58945e-05
0.00035924
0.00160455
-1.39049e-05
0.000327672
0.00163272
3.30315e-05
0.000262622
0.001624
9.66085e-05
0.000191978
0.00157637
0.000143498
0.000118668
0.00149203
0.000186397
4.3333e-05
0.00139333
0.000218488
-3.49829e-05
0.00127871
0.000241571
-0.000113325
0.00117149
0.00025368
-0.00019482
0.00106503
0.000254447
-0.000278818
0.000984775
0.000253818
-0.000397041
0.000916407
0.000259492
-0.000523843
0.000862083
0.000270096
-0.000677221
0.000856703
0.000280808
-0.000853462
0.000791593
0.000287099
-0.00100202
0.000811192
0.000270244
-0.00115457
0.000804728
0.000266901
-0.00128171
0.000815023
0.000238426
-0.00140839
0.000814518
0.000234927
-0.00152232
0.000813717
0.000221476
-0.00160902
0.000789501
0.000199345
-0.00165348
0.000756953
0.000153029
-0.00163495
0.000716755
7.80405e-05
-0.00154475
0.000672051
-6.57775e-06
-0.00137889
0.00062601
-9.58232e-05
-0.00114376
0.000588244
-0.000176005
-0.000867147
0.000552978
-0.000214381
-0.000571442
0.000587159
-0.000240763
-0.000321506
0.00062313
-0.000245192
-0.00012892
0.000634086
-0.00020875
-2.38753e-05
0.000582889
-0.000138948
0.000429117
-5.57274e-05
8.0916e-05
0.000572069
-0.000180481
0.000242826
0.000782196
-0.000311192
0.000390111
0.00095015
-0.000309955
0.000467555
0.00108919
-0.000236275
0.000500578
0.00122046
-0.000170579
0.000500985
0.00133985
-0.000113685
0.000492252
0.00144914
-8.06737e-05
0.000478039
0.00153316
-4.57962e-05
0.000453218
0.00159056
-1.1175e-05
0.000419767
0.00161477
2.32361e-05
0.000383966
0.0015972
7.13216e-05
0.000331563
0.00154862
0.000127777
0.000260753
0.00147754
0.000169643
0.000173423
0.00137356
0.000205798
8.74686e-05
0.00125452
0.000224757
2.8053e-08
0.00113419
0.000231961
-8.71587e-05
0.00102996
0.000228722
-0.000176166
0.000934619
0.000219423
-0.000270273
0.000867325
0.000211556
-0.00037957
0.00081724
0.000208464
-0.000503743
0.000773969
0.000212287
-0.000628486
0.000755504
0.000225943
-0.00080439
0.000723489
0.000244008
-0.000946678
0.000711481
0.000241998
-0.00109343
0.000704544
0.000246939
-0.00122614
0.000705204
0.000242529
-0.00136036
0.000708325
0.000240408
-0.00149029
0.00069469
0.000248959
-0.00160053
0.000674309
0.000225431
-0.00166917
0.000646951
0.000178638
-0.00168758
0.000608858
0.000126305
-0.001628
0.00058057
3.19054e-05
-0.00148034
0.000543476
-6.51256e-05
-0.00123541
0.000516848
-0.000173532
-0.000944187
0.000487349
-0.000225597
-0.000634933
0.000516537
-0.000238632
-0.000368375
0.000582268
-0.000225695
-0.000151089
0.000637032
-0.000220233
-3.07111e-05
0.000606911
-0.000144399
0.000461198
-6.27916e-05
9.39413e-05
0.000654294
-0.000176167
0.000282715
0.000913236
-0.000319813
0.000454839
0.00109458
-0.000316558
0.000550832
0.0012224
-0.000229196
0.00059608
0.00132889
-0.000153682
0.000600972
0.00142048
-8.55233e-05
0.000590954
0.00150156
-4.23971e-05
0.000565873
0.00155863
-3.90408e-07
0.000527941
0.00159099
3.74977e-05
0.000477114
0.00158333
8.22676e-05
0.000421254
0.00154789
0.000105171
0.000354594
0.00147263
0.000142652
0.000286284
0.00136721
0.000178641
0.000205432
0.00124961
0.000204807
0.000115656
0.00113138
0.000212917
2.28313e-05
0.00101684
0.00021018
-6.80689e-05
0.000921545
0.000199313
-0.000162435
0.000840703
0.000188282
-0.000267369
0.0007896
0.000182659
-0.000368092
0.000742134
0.000175827
-0.000482236
0.000707475
0.000180638
-0.000589724
0.000669572
0.000193419
-0.000741941
0.000656947
0.000218759
-0.000871475
0.000617772
0.000223243
-0.00100678
0.000600973
0.000238879
-0.0011344
0.000593741
0.000239075
-0.00127782
0.000584402
0.000267342
-0.00141845
0.00057296
0.000262368
-0.00154302
0.000557659
0.000241221
-0.00164324
0.000538369
0.0002088
-0.00168275
0.000525201
0.000123163
-0.00165686
0.000503743
5.09354e-05
-0.00154803
0.000472176
-3.75217e-05
-0.00134036
0.000444506
-0.000135328
-0.00104305
0.000428512
-0.000238473
-0.000703686
0.000438537
-0.000261368
-0.000402213
0.000510118
-0.000229323
-0.000174384
0.000608457
-0.000199254
-3.82271e-05
0.000618308
-0.000147554
0.000488994
-6.60229e-05
0.000104678
0.000711858
-0.000162242
0.000317315
0.00101717
-0.000316567
0.000515848
0.00120913
-0.000313083
0.000631985
0.00132238
-0.000216117
0.000683548
0.00140853
-0.000131199
0.000693234
0.00147422
-6.34227e-05
0.000681664
0.00152462
-1.14967e-05
0.000649914
0.00155243
3.79537e-05
0.000600857
0.00155751
8.25423e-05
0.000535371
0.00153123
0.000117584
0.000461418
0.00147233
0.000149516
0.000379551
0.0013831
0.000171395
0.000298532
0.00127004
0.000178183
0.000213558
0.00114399
0.000190592
0.000127805
0.00102533
0.000191798
3.80384e-05
0.000921964
0.000184638
-5.23119e-05
0.000839052
0.000172843
-0.000147035
0.000768969
0.000166456
-0.000246679
0.00072484
0.000164404
-0.000345264
0.000676435
0.000164284
-0.000445954
0.000639062
0.000169102
-0.000542592
0.000587591
0.00017862
-0.000667311
0.000581084
0.000200581
-0.000775705
0.000521648
0.000204519
-0.000893886
0.000497843
0.000221312
-0.00101964
0.000478487
0.000241004
-0.00116224
0.000467469
0.000259543
-0.00130818
0.000457298
0.000261597
-0.00145172
0.000448707
0.000252493
-0.0015689
0.000447941
0.000207605
-0.00165218
0.000447053
0.000161428
-0.00166296
0.000420965
9.35631e-05
-0.00160053
0.000380448
2.92952e-05
-0.0014303
0.000341811
-6.75361e-05
-0.00115239
0.000328416
-0.000177808
-0.000798566
0.000348441
-0.000263731
-0.000453371
0.000429887
-0.000264965
-0.000197335
0.000545386
-0.000192964
-4.61445e-05
0.000614865
-0.000147747
0.000515549
-7.2698e-05
0.000108541
0.000749638
-0.000146321
0.00033999
0.00109419
-0.000308476
0.000563005
0.0012953
-0.000309185
0.000696977
0.00139569
-0.000207283
0.000754939
0.00146022
-0.000109651
0.000764608
0.00150215
-3.76045e-05
0.000749402
0.00152826
1.15719e-05
0.000707569
0.00152713
6.71241e-05
0.000650089
0.00150723
0.000107758
0.000579912
0.00145778
0.00014363
0.000494977
0.00138495
0.000172318
0.000400326
0.00128526
0.000192498
0.000303627
0.00117126
0.00019548
0.000218964
0.00104706
0.000181595
0.000134034
0.000936785
0.000173478
5.23569e-05
0.000842898
0.000160743
-3.16184e-05
0.00076915
0.000153877
-0.000121729
0.000707009
0.000152071
-0.000213255
0.000662206
0.000154159
-0.000306751
0.00061082
0.00015911
-0.00039196
0.000561472
0.0001628
-0.00048548
0.000513472
0.000167639
-0.00057501
0.000491424
0.00017919
-0.000665912
0.000427166
0.000185385
-0.000771159
0.000398276
0.000204814
-0.000886963
0.000367134
0.000227157
-0.00102052
0.000356093
0.000244928
-0.00116385
0.000347569
0.000253069
-0.00131056
0.000354239
0.000241177
-0.00146
0.000365167
0.000232207
-0.00156936
0.000354249
0.000202163
-0.00163519
0.000315648
0.000171151
-0.00161823
0.000262409
0.00010108
-0.00149341
0.000210532
6.46271e-06
-0.00124449
0.000183257
-0.000103761
-0.000894176
0.000210147
-0.000212023
-0.000510876
0.000320454
-0.000273868
-0.000219403
0.00047762
-0.000223707
-5.08482e-05
0.000594647
-0.000148337
0.000542732
-7.80321e-05
0.000114269
0.00075424
-0.000118871
0.000363851
0.00113171
-0.000287098
0.000606746
0.00134525
-0.000292836
0.000757497
0.00144029
-0.000195351
0.000820751
0.00148555
-8.8586e-05
0.000828
0.00150278
-7.88017e-06
0.000805391
0.00150139
4.94733e-05
0.00076162
0.00147824
9.26666e-05
0.000699296
0.00143672
0.000132831
0.000621
0.00137271
0.000163359
0.000530708
0.00128739
0.000187849
0.000430215
0.00118223
0.000203522
0.000325118
0.00106989
0.000206473
0.000229448
0.000956808
0.000185921
0.000146937
0.00085746
0.000161836
6.8956e-05
0.000771148
0.00014973
-7.43881e-06
0.000705861
0.000139684
-9.44611e-05
0.000648707
0.000145324
-0.00017442
0.000594225
0.000147939
-0.000259475
0.00054229
0.000153584
-0.000336147
0.000485254
0.000152889
-0.000416526
0.00043783
0.000156021
-0.000479168
0.000402202
0.000151864
-0.000558466
0.000344459
0.000162004
-0.000646897
0.000312659
0.000174048
-0.000748162
0.000272418
0.000195981
-0.000867528
0.000259203
0.000216257
-0.000999631
0.000255996
0.000223677
-0.00115575
0.000275545
0.000234809
-0.00130294
0.000277504
0.000234854
-0.00144569
0.000257088
0.000239912
-0.001554
0.00021381
0.000210154
-0.0015945
0.000148875
0.000154028
-0.00152892
7.48856e-05
7.00639e-05
-0.00132543
2.32969e-05
-4.35288e-05
-0.00100567
3.50918e-05
-0.000144706
-0.000595955
0.000152092
-0.000241348
-0.000248749
0.000387032
-0.000256617
-6.08689e-05
0.000553281
-0.000146515
0.000561917
-8.00561e-05
0.000114379
0.000737014
-9.71535e-05
0.000373509
0.0011376
-0.000265024
0.000630788
0.0013643
-0.000276333
0.00079507
0.00145672
-0.000180719
0.000865906
0.00148875
-7.40419e-05
0.000870394
0.00148067
1.76247e-05
0.000842658
0.00145724
7.18862e-05
0.000790341
0.00141154
0.000119021
0.000723216
0.00135441
0.000149438
0.00064406
0.00127854
0.000173331
0.000550475
0.00118391
0.000197066
0.000447718
0.00107998
0.000205009
0.000343699
0.000971737
0.000202167
0.000245742
0.0008697
0.000185066
0.000163519
0.000779382
0.0001603
8.80529e-05
0.000703441
0.000143173
2.12919e-05
0.000635993
0.000136628
-5.6874e-05
0.000588076
0.000138796
-0.000133752
0.000530881
0.000140221
-0.000203661
0.000470282
0.000141917
-0.000275527
0.000414675
0.000142445
-0.000342609
0.000371942
0.00013297
-0.000399042
0.000328693
0.000129942
-0.000460338
0.000275108
0.000130648
-0.000534737
0.000241149
0.000145909
-0.000623511
0.000197575
0.000163617
-0.000718365
0.000175516
0.000178541
-0.000844243
0.000183329
0.000198545
-0.000977196
0.000191636
0.000216861
-0.00112825
0.000180831
0.000247723
-0.00128596
0.000159964
0.00025484
-0.00142609
0.000111849
0.000242089
-0.00151439
4.04559e-05
0.000196715
-0.00150639
-5.47105e-05
0.000121601
-0.00136751
-0.000135965
2.03809e-05
-0.00107824
-0.000162123
-9.20525e-05
-0.000683144
-5.23207e-05
-0.000190686
-0.000282906
0.000221647
-0.000234852
-6.71091e-05
0.000501357
-0.000163871
0.000572725
-7.79176e-05
0.000127693
0.000645919
-3.65973e-05
0.000397995
0.00108592
-0.000218618
0.000667903
0.00133537
-0.000240981
0.000850545
0.00142692
-0.000152837
0.0009239
0.0014494
-3.40029e-05
0.000922491
0.00142647
5.56026e-05
0.000883519
0.00138277
0.000113443
0.000826496
0.00131824
0.000150318
0.000757168
0.00125014
0.000173593
0.000676749
0.00116877
0.000190185
0.000587587
0.00107844
0.000194629
0.000487752
0.000978916
0.000200894
0.000384932
0.000881149
0.000193408
0.000286655
0.000789303
0.000178674
0.000200238
0.000708052
0.000157746
0.000121811
0.000641118
0.00014075
4.43325e-05
0.000580896
0.000132575
-2.10522e-05
0.000522591
0.00013087
-8.13803e-05
0.00046214
0.000129068
-0.000148976
0.000412213
0.000125664
-0.00022083
0.000364821
0.000121708
-0.000277523
0.000315241
0.000113393
-0.000327991
0.000269758
0.000109402
-0.000380904
0.000219911
0.00010811
-0.00043683
0.000179804
0.00011727
-0.000512014
0.000139797
0.000132962
-0.000595297
0.000109637
0.000149162
-0.000699624
0.000113788
0.000173867
-0.000820134
0.000102359
0.000209788
-0.000964885
8.62826e-05
0.000239298
-0.0011253
5.91616e-05
0.000261215
-0.00128124
5.96251e-06
0.000261834
-0.00140451
-7.10777e-05
0.000234806
-0.00144885
-0.000183165
0.000172793
-0.00137112
-0.000292801
7.91021e-05
-0.00114243
-0.000359887
-3.09202e-05
-0.000777195
-0.000285322
-0.000132239
-0.000346114
-1.8951e-05
-0.000190483
-6.75868e-05
0.000407918
-0.000185086
0.000573732
-6.85912e-05
0.000121359
0.000538577
-1.40182e-05
0.000381122
0.00103127
-0.000205111
0.00066315
0.0012949
-0.00024156
0.000861561
0.00138683
-0.000158331
0.000948539
0.00139838
-3.59608e-05
0.000950339
0.00135528
6.93922e-05
0.000917105
0.00129079
0.000125213
0.000853375
0.00122029
0.000161679
0.00077149
0.00114901
0.000183023
0.000683955
0.00106093
0.000195374
0.000593385
0.000968241
0.000200769
0.000499567
0.000876403
0.00019633
0.000405632
0.000786456
0.000188629
0.000317253
0.000709275
0.000168406
0.00023664
0.000637878
0.000150787
0.000167061
0.000575224
0.000135472
9.83446e-05
0.000518535
0.000131077
2.67077e-05
0.000465936
0.000128291
-4.6496e-05
0.000415993
0.00011935
-0.000110914
0.000365009
0.000111621
-0.000170267
0.000318324
0.00010585
-0.000221645
0.000268294
9.83246e-05
-0.000270197
0.000222993
9.53178e-05
-0.000317748
0.000175614
9.18484e-05
-0.00036533
0.000131283
9.61024e-05
-0.000425789
8.7217e-05
0.00011304
-0.000495986
4.55131e-05
0.000134321
-0.000573654
2.53908e-05
0.000166065
-0.000673369
3.55763e-06
0.000198517
-0.00079558
-2.30409e-05
0.000231534
-0.000944055
-5.05207e-05
0.000258157
-0.00110495
-0.000104934
0.000271795
-0.00125483
-0.000181033
0.000259833
-0.00134884
-0.000302755
0.0002136
-0.0013336
-0.000441537
0.000133496
-0.00116159
-0.000568909
3.70174e-05
-0.000821635
-0.000548714
-7.65676e-05
-0.000408314
-0.000282409
-0.000149864
-6.91386e-05
0.000224346
-0.000155604
0.000555085
-5.04904e-05
0.0001527
0.000336353
4.9524e-05
0.000392141
0.000911808
-0.000119982
0.000680201
0.00119136
-0.000184517
0.000884822
0.00129018
-0.000107962
0.000981177
0.00129471
7.31163e-06
0.000976142
0.00125329
0.000107031
0.000928432
0.00117959
0.000158916
0.000860812
0.00109482
0.000193096
0.00079415
0.00101132
0.000204351
0.000726682
0.000922581
0.000205818
0.000652298
0.000842071
0.000200554
0.000569012
0.000767322
0.000192368
0.000480205
0.000697223
0.000178039
0.000390434
0.000635519
0.000163527
0.000307814
0.000581954
0.000138544
0.000229837
0.000532695
0.000120507
0.000149239
0.000484971
0.000114162
6.71372e-05
0.000430396
0.000117643
-1.02724e-05
0.00038059
0.000112812
-7.22688e-05
0.000328472
9.85325e-05
-0.00012983
0.000279933
9.59515e-05
-0.000176262
0.000228319
8.64082e-05
-0.000222064
0.000184016
8.47787e-05
-0.000262835
0.000135916
8.04689e-05
-0.000307339
8.99375e-05
8.58494e-05
-0.000353956
3.96361e-05
9.41968e-05
-0.000416284
-7.33939e-06
0.000115181
-0.000484325
-5.15395e-05
0.000144972
-0.000577488
-8.2845e-05
0.000179564
-0.000689539
-0.000127222
0.000216233
-0.000820441
-0.000178152
0.000258534
-0.000968312
-0.000251919
0.000294856
-0.00112597
-0.000335809
0.000312438
-0.00125029
-0.000472406
0.000293971
-0.00128692
-0.000642275
0.000237365
-0.00118093
-0.000832096
0.000157192
-0.000884588
-0.000884378
3.93275e-05
-0.000449012
-0.000646439
-7.15467e-05
-8.39394e-05
-3.0609e-05
-0.000110119
0.000492861
-2.17137e-05
0.000125722
0.000197961
1.26707e-05
0.000342904
0.000831556
-0.000136929
0.000633956
0.0011062
-0.000205888
0.000851469
0.00120599
-0.000133328
0.00096779
0.0011945
-1.61041e-05
0.000996652
0.00113627
8.81574e-05
0.000972925
0.00104584
0.000157477
0.00092127
0.000967003
0.000179467
0.000851817
0.000897612
0.000183159
0.000769085
0.000826134
0.000179179
0.000682573
0.000756135
0.000172448
0.000593054
0.000691795
0.000165045
0.00050513
0.000631338
0.000153809
0.000419523
0.000581286
0.00013984
0.000335939
0.000536718
0.00012882
0.000258108
0.000494005
0.000116521
0.000187796
0.000452257
0.000103025
0.000117493
0.000398691
0.000102007
4.03314e-05
0.000351001
0.00010675
-2.47705e-05
0.000292267
0.000101306
-8.43306e-05
0.000247404
9.20887e-05
-0.000135163
0.000194931
8.42203e-05
-0.000180161
0.000149028
7.99844e-05
-0.000219482
9.85462e-05
7.66913e-05
-0.000262054
5.0835e-05
8.16737e-05
-0.000306596
-3.60129e-06
8.77788e-05
-0.00035612
-5.11041e-05
9.32884e-05
-0.000406217
-0.00011736
0.000115919
-0.000462463
-0.00017579
0.000149191
-0.000534695
-0.00024344
0.00018845
-0.0006355
-0.000309154
0.000231808
-0.00076683
-0.000399749
0.00027916
-0.000931471
-0.000492835
0.000321667
-0.0010951
-0.000656387
0.000347614
-0.00120684
-0.000860921
0.000330387
-0.0011873
-0.00110997
0.000258331
-0.00100496
-0.00122033
0.000153606
-0.000581923
-0.00109344
2.39652e-05
-0.00015693
-0.000433364
-2.22401e-05
0.00029944
3.64906e-05
9.16427e-05
9.00687e-05
1.62498e-05
0.000336011
0.000709529
-0.000122341
0.00062006
0.00101109
-0.000188947
0.000855942
0.00111973
-0.000149622
0.00098424
0.00111231
-4.61105e-05
0.00101707
0.00105166
5.17755e-05
0.000976396
0.00096009
0.00012642
0.000910035
0.000873377
0.000159988
0.000849873
0.000796333
0.00016144
0.000783921