/*--------------------------------*- C++ -*----------------------------------*\
| =========                 |                                                 |
| \\      /  F ield         | OpenFOAM: The Open Source CFD Toolbox           |
|  \\    /   O peration     | Version:  v1806                                 |
|   \\  /    A nd           | Web:      www.OpenFOAM.com                      |
|    \\/     M anipulation  |                                                 |
\*---------------------------------------------------------------------------*/
FoamFile
{
    version     2.0;
    format      ascii;
    class       vectorField;
    location    "0.041";
    object      currentcloudofpoints;
}
// * * * * * * * * * * * * * * * * * * * * * * * * * * * * * * * * * * * * * //


2409
(
(0.74559 1.28579 1.00019)
(0.832228 0.815048 0.999729)
(1.2093 1.35728 0.999599)
(0.996018 1.05956 0.7355)
(0.997834 1.05959 1.26524)
(1.07498 1.08894 1.00005)
(0.5979 1.39461 0.999663)
(0.711533 0.658079 1.00077)
(1.2997 1.53771 0.999931)
(0.986179 1.05831 0.558104)
(0.981934 1.06177 1.43706)
(1.20026 1.34077 1.08736)
(1.17075 1.29871 1.16423)
(1.1218 1.23677 1.22452)
(1.06058 1.15146 1.26535)
(1.20526 1.35027 1.04362)
(1.18672 1.31984 1.12618)
(1.14688 1.26837 1.19395)
(1.09067 1.19678 1.24604)
(1.02984 1.10312 1.26932)
(0.843177 0.825699 1.05432)
(0.869746 0.862203 1.10954)
(0.906505 0.91862 1.17022)
(0.951116 0.985176 1.22219)
(0.837958 0.820643 1.02653)
(0.858104 0.844159 1.07932)
(0.888696 0.890415 1.13899)
(0.930858 0.952638 1.19369)
(0.973189 1.02216 1.24311)
(1.19969 1.34091 0.912039)
(1.16985 1.29835 0.835882)
(1.12083 1.23535 0.776824)
(1.06051 1.14982 0.7358)
(1.20507 1.35017 0.955575)
(1.18591 1.31998 0.873624)
(1.14583 1.26756 0.806619)
(1.09042 1.19478 0.755558)
(1.02833 1.10256 0.731896)
(0.951748 0.984629 0.777836)
(0.90694 0.917798 0.829885)
(0.866856 0.861457 0.888959)
(0.843783 0.826925 0.945026)
(0.973176 1.02196 0.757238)
(0.931204 0.951699 0.805826)
(0.887588 0.889427 0.860786)
(0.856203 0.844318 0.919178)
(0.839673 0.822073 0.973037)
(0.935981 1.1115 1.22115)
(0.862932 1.17053 1.17256)
(0.800827 1.22308 1.11309)
(0.759945 1.26615 1.06935)
(0.968849 1.08345 1.2375)
(0.900748 1.13973 1.19792)
(0.831378 1.19813 1.13863)
(0.779291 1.24328 1.08885)
(0.750586 1.27733 1.03625)
(0.761133 1.26629 0.931462)
(0.79989 1.22397 0.885416)
(0.862 1.17033 0.826859)
(0.933655 1.11111 0.780786)
(0.751653 1.27672 0.964636)
(0.779485 1.24458 0.90998)
(0.830522 1.19747 0.861563)
(0.898836 1.14028 0.801399)
(0.966858 1.08285 0.764563)
(0.759753 0.914814 0.999671)
(0.705884 1.01385 0.999463)
(0.679828 1.1101 0.999978)
(0.694377 1.20692 0.999749)
(0.800794 0.866743 1.00016)
(0.735785 0.965714 0.999039)
(0.694919 1.06119 0.999832)
(0.685045 1.15789 0.999889)
(0.719248 1.24619 0.999878)
(0.818867 1.34629 1.00085)
(0.910472 1.38504 1.00168)
(1.0135 1.39825 1.00022)
(1.11837 1.39232 0.999461)
(0.781421 1.31448 1.00034)
(0.864053 1.36552 1.00146)
(0.962351 1.39086 1.00098)
(1.0671 1.39422 0.999748)
(1.16528 1.379 0.999397)
(0.723341 0.670282 1.10185)
(0.743041 0.693017 1.19784)
(0.774238 0.723976 1.26992)
(0.808414 0.768661 1.32533)
(0.849915 0.825261 1.36575)
(0.888469 0.895441 1.40512)
(0.937808 0.976454 1.42963)
(0.715117 0.664002 1.05162)
(0.734514 0.681194 1.15089)
(0.75832 0.709834 1.23576)
(0.792629 0.745329 1.29775)
(0.82965 0.797087 1.34511)
(0.870081 0.858834 1.38411)
(0.914547 0.936171 1.41609)
(0.962165 1.01901 1.43448)
(1.03531 1.13962 1.43599)
(1.10022 1.21434 1.41214)
(1.16174 1.2899 1.37586)
(1.21074 1.36393 1.32738)
(1.25508 1.42918 1.25864)
(1.2795 1.48715 1.17873)
(1.29457 1.52551 1.09203)
(1.0063 1.10184 1.43603)
(1.06795 1.17639 1.42412)
(1.1338 1.25053 1.39276)
(1.18611 1.32706 1.35175)
(1.2344 1.39538 1.29392)
(1.26834 1.45802 1.21831)
(1.28771 1.50697 1.1359)
(1.29762 1.53228 1.04626)
(0.722536 0.669286 0.896966)
(0.743967 0.69322 0.803376)
(0.774325 0.72227 0.728223)
(0.805066 0.767316 0.67242)
(0.846403 0.822791 0.630962)
(0.887217 0.894907 0.594998)
(0.93692 0.975873 0.570838)
(0.716909 0.662234 0.948897)
(0.732738 0.682686 0.849064)
(0.760514 0.707319 0.763774)
(0.790345 0.745209 0.700086)
(0.826617 0.794623 0.652657)
(0.866909 0.85743 0.613051)
(0.913901 0.935709 0.585294)
(0.962938 1.01691 0.563374)
(1.29444 1.52561 0.907969)
(1.2797 1.48756 0.821202)
(1.25501 1.42874 0.741556)
(1.21097 1.36334 0.672767)
(1.16209 1.2903 0.62298)
(1.10005 1.21499 0.588179)
(1.03835 1.13872 0.564004)
(1.29747 1.53229 0.953644)
(1.28774 1.50728 0.864123)
(1.2685 1.45816 0.781644)
(1.2344 1.3946 0.7065)
(1.18651 1.32694 0.647658)
(1.1339 1.2512 0.60648)
(1.06828 1.17658 0.577222)
(1.01176 1.09931 0.560452)
(0.604566 1.3881 1.09392)
(0.625825 1.369 1.18731)
(0.664594 1.33419 1.27375)
(0.722512 1.28569 1.33678)
(0.783456 1.23469 1.36897)
(0.846552 1.18198 1.39774)
(0.916222 1.12804 1.41233)
(0.600946 1.39231 1.04771)
(0.616502 1.37894 1.14301)
(0.645545 1.35229 1.23357)
(0.695352 1.30934 1.30854)
(0.753628 1.26004 1.3543)
(0.816632 1.20827 1.37903)
(0.878489 1.15495 1.40518)
(0.952617 1.09755 1.4266)
(0.606385 1.38712 0.905378)
(0.622472 1.37084 0.814653)
(0.668401 1.33308 0.726486)
(0.71956 1.2871 0.660403)
(0.785271 1.23436 0.633072)
(0.847305 1.18238 0.607697)
(0.920907 1.12561 0.583825)
(0.604186 1.39053 0.951256)
(0.614261 1.37999 0.857941)
(0.64635 1.35245 0.767161)
(0.695278 1.3098 0.690986)
(0.753255 1.26036 0.644616)
(0.81845 1.20839 0.624076)
(0.879713 1.15399 0.598327)
(0.958302 1.09419 0.565348)
(0.633569 0.731117 1.00066)
(0.578149 0.807055 0.99998)
(0.539248 0.893412 0.999619)
(0.515153 0.989227 0.999934)
(0.510191 1.09038 1)
(0.517867 1.19292 0.999861)
(0.546312 1.29562 0.999594)
(0.670672 0.696845 1.00075)
(0.604876 0.768927 1.00041)
(0.55901 0.849585 0.999585)
(0.526039 0.940191 0.999733)
(0.512325 1.03878 0.999967)
(0.514281 1.14094 0.999931)
(0.530812 1.2436 0.999745)
(0.571835 1.34487 0.99961)
(0.665785 1.47944 0.999552)
(0.744988 1.54356 0.999849)
(0.838279 1.58747 1.00037)
(0.939953 1.6079 1.00064)
(1.03431 1.61011 1.00026)
(1.11919 1.59698 0.999841)
(1.20578 1.57281 0.99995)
(0.632602 1.43846 0.999719)
(0.706802 1.51275 0.999644)
(0.79272 1.56685 1.00007)
(0.891379 1.59817 1.00055)
(0.989057 1.6087 1.00051)
(1.07716 1.60131 0.999939)
(1.16108 1.58393 0.999879)
(1.25222 1.55395 0.999939)
(0.979369 1.06394 0.654824)
(0.988571 1.06095 0.600593)
(0.984733 1.06024 0.696785)
(0.982695 1.06184 1.34615)
(0.988978 1.05862 1.30539)
(0.985348 1.06266 1.39578)
(0.756185 0.747945 0.9988)
(0.791245 0.78257 0.9989)
(0.730492 0.694029 1.00021)
(1.25954 1.43751 0.999771)
(1.23227 1.39591 0.999732)
(1.28455 1.48531 0.9998)
(0.833484 1.48846 1.25426)
(0.84086 1.54737 1.17072)
(0.964212 1.31607 1.39696)
(1.03177 1.578 1.15689)
(0.698457 1.49947 1.07945)
(1.01003 1.23781 1.426)
(1.1979 1.55013 1.1355)
(1.11429 1.54125 1.2153)
(0.739876 1.49537 1.173)
(0.934789 1.54689 1.21417)
(0.91849 1.5859 1.11344)
(0.743468 1.40425 1.28709)
(1.02136 1.50876 1.27414)
(1.1106 1.578 1.12973)
(0.932077 1.46502 1.30999)
(1.15321 1.58383 1.06488)
(1.05695 1.31311 1.4068)
(1.07669 1.59649 1.07302)
(0.658263 1.44639 1.12703)
(0.921382 1.21756 1.40483)
(0.865294 1.30098 1.37991)
(1.01231 1.41045 1.35793)
(1.18882 1.48963 1.23866)
(0.805394 1.56272 1.08254)
(0.677943 1.41987 1.20922)
(0.924983 1.38126 1.36343)
(1.16897 1.42714 1.30731)
(1.10244 1.46791 1.30289)
(0.641484 1.45015 1.05922)
(0.974403 1.16266 1.42801)
(1.23028 1.55959 1.05925)
(0.846206 1.40542 1.33263)
(0.790466 1.32802 1.35186)
(1.11564 1.38239 1.35676)
(0.875008 1.59211 1.0497)
(1.00184 1.60154 1.0698)
(1.01894 1.19033 1.43282)
(1.04914 1.2264 1.42442)
(0.976639 1.11325 1.43311)
(1.00111 1.15259 1.43635)
(0.99209 1.20061 1.4263)
(1.07665 1.26348 1.4102)
(1.10747 1.29837 1.38946)
(1.03474 1.27583 1.41751)
(1.13817 1.33534 1.36488)
(1.1624 1.37148 1.33981)
(1.08665 1.34639 1.38171)
(1.18962 1.39469 1.31619)
(1.21268 1.42594 1.2813)
(1.14176 1.40471 1.33245)
(1.22296 1.45752 1.24696)
(1.23252 1.48633 1.20712)
(1.18204 1.45682 1.27319)
(1.23818 1.51799 1.15793)
(1.24504 1.536 1.1137)
(1.19274 1.52132 1.18897)
(1.26232 1.54257 1.07567)
(1.26553 1.54805 1.0298)
(1.21357 1.55472 1.09743)
(1.21812 1.56607 1.02966)
(0.724425 1.52228 1.03971)
(0.682748 1.49056 1.04054)
(0.670258 1.4757 1.07021)
(0.654057 1.46553 1.02944)
(0.620168 1.42336 1.03114)
(0.824 1.57532 1.04164)
(0.777442 1.55369 1.04215)
(0.754309 1.53199 1.08279)
(0.909072 1.59971 1.02565)
(0.857379 1.59009 1.02524)
(0.84127 1.57815 1.06625)
(1.01815 1.60515 1.03523)
(0.972422 1.60398 1.03518)
(0.942772 1.59575 1.06064)
(1.09756 1.59561 1.03686)
(1.05572 1.60149 1.03642)
(1.04007 1.59794 1.07183)
(1.17902 1.5777 1.03311)
(1.13593 1.58985 1.03203)
(1.11417 1.58877 1.06933)
(1.19031 1.57063 1.06287)
(0.787421 1.49318 1.21592)
(0.791453 1.52184 1.1739)
(0.837311 1.51913 1.21329)
(0.889032 1.54766 1.19342)
(0.88498 1.51845 1.2355)
(0.775312 1.53061 1.12847)
(0.82444 1.55592 1.1264)
(0.880979 1.56837 1.14205)
(0.927815 1.56791 1.16375)
(0.863595 1.57582 1.09846)
(0.991881 1.27873 1.40769)
(1.0136 1.3174 1.40231)
(0.97074 1.23001 1.41114)
(0.943587 1.26779 1.39907)
(0.989811 1.36216 1.37952)
(1.03613 1.36228 1.38301)
(0.914324 1.30898 1.3868)
(0.892843 1.25975 1.39197)
(0.944924 1.34766 1.38026)
(0.895506 1.3411 1.37225)
(0.969522 1.39593 1.3602)
(1.01698 1.58851 1.11329)
(1.05415 1.58584 1.11544)
(0.978175 1.58011 1.13702)
(0.96246 1.59212 1.09283)
(1.0684 1.52264 1.24678)
(1.02708 1.54552 1.2174)
(1.07238 1.55977 1.18663)
(1.07137 1.57671 1.14412)
(1.1126 1.56073 1.17266)
(1.09315 1.58666 1.10107)
(0.98612 1.5617 1.1872)
(0.979249 1.52799 1.2456)
(0.699798 1.47173 1.15211)
(0.678763 1.47386 1.10343)
(0.720848 1.49792 1.12737)
(0.650566 1.44843 1.09385)
(0.631931 1.41774 1.11232)
(0.642655 1.40835 1.15901)
(0.623012 1.41973 1.07713)
(0.652192 1.3946 1.1997)
(0.67143 1.37713 1.24472)
(0.668875 1.43388 1.16951)
(0.704429 1.36929 1.28233)
(0.734273 1.34362 1.31619)
(0.710609 1.41308 1.25058)
(0.787154 1.28086 1.36114)
(0.756496 1.30718 1.34435)
(0.769101 1.36505 1.32388)
(0.824311 1.26809 1.37231)
(0.855504 1.24216 1.38509)
(0.828716 1.31382 1.36489)
(0.881854 1.1999 1.40168)
(0.917829 1.17337 1.40681)
(0.946903 1.1466 1.41773)
(0.951216 1.19166 1.41186)
(0.789535 1.44626 1.27336)
(0.841016 1.44687 1.29696)
(0.796388 1.40488 1.31155)
(0.890198 1.43467 1.3223)
(0.885043 1.47618 1.28413)
(0.742855 1.45142 1.23432)
(0.933437 1.50685 1.26437)
(1.17472 1.56696 1.10062)
(0.818607 1.36649 1.34321)
(0.857086 1.35123 1.35841)
(0.886959 1.39301 1.3482)
(0.929351 1.42234 1.33961)
(0.898045 1.58856 1.08136)
(1.15302 1.56334 1.13451)
(1.1555 1.54427 1.17728)
(1.15066 1.51509 1.23054)
(1.13112 1.57954 1.09783)
(1.10906 1.50338 1.26134)
(1.06172 1.48775 1.28973)
(1.1472 1.47653 1.27289)
(0.709578 1.45848 1.19289)
(0.977468 1.48746 1.29251)
(0.973699 1.43714 1.33525)
(1.01805 1.45886 1.31947)
(1.05746 1.4391 1.33159)
(1.06514 1.39692 1.35915)
(1.1101 1.42474 1.33163)
(1.13594 1.44678 1.30684)
(0.63937 1.02044 1.31629)
(0.544288 1.10718 1.18046)
(0.591589 0.871281 1.17398)
(0.629648 0.811226 1.18416)
(0.57492 1.15327 1.24041)
(0.698232 1.08303 1.35086)
(0.67421 0.735883 1.15346)
(0.578002 1.31298 1.14459)
(0.847309 0.995448 1.39922)
(0.578996 1.06759 1.2505)
(0.648765 0.859478 1.26608)
(0.54518 1.20948 1.15017)
(0.638166 1.1316 1.31507)
(0.784502 0.919708 1.36969)
(0.705957 1.1923 1.34762)
(0.636691 1.22211 1.298)
(0.690687 0.775427 1.23661)
(0.838886 1.0917 1.39976)
(0.60577 0.792479 1.09799)
(0.520663 1.0841 1.0988)
(0.767188 1.03139 1.37496)
(0.591774 1.26362 1.22265)
(0.771953 1.14394 1.37291)
(0.527147 0.987528 1.0912)
(0.711742 0.889857 1.3272)
(0.730912 0.807328 1.30144)
(0.59108 0.958641 1.23973)
(0.653198 0.934068 1.30915)
(0.77269 0.841199 1.34244)
(0.702752 0.97788 1.34538)
(0.553454 0.952266 1.14883)
(0.548035 1.02617 1.17243)
(0.662796 0.714748 1.07275)
(0.90915 1.05275 1.41738)
(0.550299 0.895584 1.07561)
(0.548083 1.28691 1.0677)
(0.520536 1.17177 1.06534)
(0.638288 0.765782 1.12605)
(0.617813 0.802399 1.14252)
(0.650814 0.774294 1.16939)
(0.668787 0.726261 1.11362)
(0.632229 0.754592 1.08595)
(0.659553 0.793838 1.21108)
(0.682454 0.755831 1.19696)
(0.698972 0.70425 1.12853)
(0.709122 0.715107 1.17617)
(0.692931 0.693833 1.08751)
(0.716894 0.735537 1.2183)
(0.872824 0.946121 1.40293)
(0.899826 0.987516 1.41365)
(0.819027 0.87372 1.36809)
(0.840575 0.906664 1.38542)
(0.815521 0.9557 1.38365)
(0.926115 1.01516 1.42516)
(0.948707 1.05867 1.43026)
(0.879788 1.02391 1.40781)
(0.544942 1.15779 1.16754)
(0.562338 1.1816 1.19976)
(0.561144 1.13019 1.21249)
(0.570188 1.23661 1.1899)
(0.584773 1.20773 1.23486)
(0.607382 1.14274 1.28136)
(0.606025 1.1881 1.27173)
(0.638844 1.17627 1.30722)
(0.577951 1.10996 1.24653)
(0.608207 1.09957 1.28553)
(0.614063 1.24341 1.26395)
(0.564314 1.0873 1.21783)
(0.610828 0.841129 1.17937)
(0.598683 0.832215 1.13728)
(0.576998 0.844795 1.08692)
(0.570199 0.883732 1.12653)
(0.590832 0.800172 1.04935)
(0.617119 0.761809 1.0502)
(0.646541 0.722725 1.03703)
(0.564 0.851785 1.0379)
(0.562148 1.26085 1.15066)
(0.586035 1.28855 1.18664)
(0.546896 1.24817 1.11136)
(0.563958 1.30021 1.10789)
(0.532019 1.13936 1.12635)
(0.532805 1.19075 1.10957)
(0.533215 1.22875 1.06825)
(0.673012 1.16192 1.33176)
(0.673125 1.20675 1.32499)
(0.703101 1.13778 1.34722)
(0.669739 1.10735 1.334)
(0.639674 1.07612 1.31508)
(0.669861 1.05173 1.33416)
(0.609271 1.044 1.28704)
(0.812657 0.833545 1.35449)
(0.779531 0.881003 1.35578)
(0.774418 0.974608 1.37085)
(0.805819 1.01284 1.38487)
(0.743168 0.94961 1.3554)
(0.735007 1.00438 1.36007)
(0.74844 0.905667 1.34763)
(0.741517 0.866634 1.33342)
(0.70722 0.933831 1.33508)
(0.714823 1.23849 1.34257)
(0.681096 1.25375 1.3178)
(0.745072 1.2138 1.35747)
(0.778096 1.1892 1.36933)
(0.740093 1.16795 1.35881)
(0.735616 1.11338 1.36045)
(0.652654 1.27685 1.28902)
(0.629047 1.29869 1.25148)
(0.876578 1.10955 1.40653)
(0.843116 1.13724 1.39914)
(0.807413 1.11789 1.38533)
(0.810802 1.16281 1.38358)
(0.912283 1.09075 1.41395)
(0.871632 1.07213 1.40592)
(0.84113 1.0436 1.39735)
(0.804251 1.06095 1.3851)
(0.769823 1.0883 1.37241)
(0.621847 0.866873 1.22145)
(0.640592 0.836804 1.22616)
(0.593238 0.915558 1.2076)
(0.619631 0.908897 1.25396)
(0.55111 0.923348 1.11299)
(0.572299 0.911713 1.16179)
(0.574708 0.956564 1.19575)
(0.669925 0.818831 1.25102)
(0.602952 1.34097 1.16847)
(0.591841 1.35029 1.12077)
(0.577062 1.33717 1.08385)
(0.572087 1.3406 1.03412)
(0.610097 1.3155 1.20903)
(0.699864 1.03026 1.34756)
(0.672021 0.999444 1.33113)
(0.613299 0.988816 1.28261)
(0.585855 1.01271 1.24636)
(0.646285 0.977097 1.31253)
(0.620191 0.946394 1.27849)
(0.679037 0.95632 1.32671)
(0.685252 0.687228 1.03695)
(0.544738 0.894331 1.03758)
(0.531044 0.940317 1.03789)
(0.515162 1.08637 1.04919)
(0.517706 1.03503 1.04945)
(0.520862 0.987401 1.04513)
(0.53833 0.940596 1.08384)
(0.523679 1.03486 1.0959)
(0.51895 1.18207 1.03264)
(0.515276 1.1303 1.03265)
(0.520967 1.12735 1.08296)
(0.546847 1.29134 1.03399)
(0.531858 1.23935 1.03473)
(0.7324 0.752186 1.25421)
(0.770812 0.788273 1.31395)
(0.753979 0.766691 1.28646)
(0.711378 0.792558 1.27057)
(0.791429 0.805195 1.33456)
(0.752484 0.824215 1.32181)
(0.733227 1.05767 1.36189)
(0.688441 0.835093 1.284)
(0.546712 1.06624 1.17757)
(0.566352 1.04706 1.21362)
(0.572317 0.99253 1.20743)
(0.721073 0.849126 1.31399)
(0.679327 0.874035 1.29897)
(0.6504 0.89616 1.28908)
(0.682661 0.912146 1.3175)
(0.533014 1.05474 1.13804)
(0.532111 1.09569 1.14137)
(0.5398 0.969677 1.12096)
(0.537215 1.00673 1.13358)
(0.551219 0.988903 1.16117)
(0.628737 0.917026 0.722921)
(0.607952 1.12439 0.713821)
(0.627409 0.864479 0.766411)
(0.62557 0.814388 0.82408)
(0.539102 1.16508 0.843935)
(0.746001 1.04367 0.632467)
(0.559385 1.26191 0.844216)
(0.829698 1.08664 0.604866)
(0.595978 0.943058 0.764362)
(0.562107 1.09829 0.782422)
(0.736618 0.888368 0.664663)
(0.640796 1.22177 0.699842)
(0.67105 1.07421 0.662154)
(0.600679 1.01476 0.724273)
(0.708471 0.988237 0.654827)
(0.574 1.19078 0.773141)
(0.755543 1.13637 0.631233)
(0.681742 0.776557 0.772866)
(0.846629 0.995087 0.599834)
(0.668822 0.737367 0.856407)
(0.554335 0.862603 0.936021)
(0.523643 1.07214 0.888175)
(0.533012 0.953234 0.907648)
(0.60349 0.785395 0.913236)
(0.605213 1.27597 0.76468)
(0.559245 0.997575 0.812765)
(0.689128 0.839324 0.706167)
(0.578302 0.887858 0.84219)
(0.696064 1.18468 0.651901)
(0.525692 1.20325 0.929467)
(0.783621 0.935219 0.628321)
(0.661599 0.713062 0.932297)
(0.567803 1.32141 0.910654)
(0.659385 0.951449 0.680795)
(0.649333 1.15159 0.677148)
(0.907763 1.05069 0.580778)
(0.598476 0.978518 0.743286)
(0.615099 0.965647 0.722867)
(0.613056 0.930038 0.743066)
(0.628882 0.890819 0.744259)
(0.612492 0.90363 0.765112)
(0.642229 0.933724 0.699911)
(0.629032 0.983314 0.700744)
(0.657544 0.851688 0.73389)
(0.658162 0.878126 0.71356)
(0.673474 0.89535 0.693594)
(0.795506 1.01893 0.618974)
(0.789092 1.06421 0.620682)
(0.836155 1.04092 0.603449)
(0.75025 1.08997 0.632618)
(0.794386 1.11163 0.620935)
(0.814394 0.963417 0.613349)
(0.764912 0.989552 0.632445)
(0.727628 1.01586 0.643802)
(0.689665 1.03144 0.659761)
(0.709231 1.05922 0.648337)
(0.71285 1.10521 0.646599)
(0.747084 0.962709 0.644575)
(0.914243 1.08824 0.582067)
(0.950958 1.05561 0.564579)
(0.924684 1.01392 0.574431)
(0.5676 1.22681 0.80525)
(0.557325 1.17848 0.805658)
(0.549887 1.21302 0.841473)
(0.590595 1.23294 0.766855)
(0.58249 1.26987 0.801642)
(0.543539 1.23262 0.883651)
(0.532946 1.1842 0.885169)
(0.614607 1.32308 0.786239)
(0.5922 1.3161 0.823969)
(0.563463 1.29174 0.875718)
(0.596313 1.34716 0.857785)
(0.546045 1.2619 0.917041)
(0.865473 1.06841 0.595414)
(0.877599 1.02301 0.592073)
(0.803024 1.15903 0.622889)
(0.838242 1.13468 0.607352)
(0.872158 1.10597 0.595887)
(0.577953 0.970675 0.787813)
(0.581633 1.00657 0.766265)
(0.604804 0.876896 0.80309)
(0.589047 0.916427 0.801909)
(0.569405 0.942687 0.826579)
(0.871559 0.94544 0.597291)
(0.898441 0.987239 0.587105)
(0.837382 0.913653 0.611841)
(0.605401 1.06925 0.718365)
(0.583261 1.0564 0.751462)
(0.584923 1.11124 0.745965)
(0.562036 1.04708 0.796011)
(0.56879 1.1439 0.775977)
(0.55148 1.13185 0.810096)
(0.59276 1.15711 0.740937)
(0.543705 1.08635 0.831203)
(0.532162 1.1181 0.864058)
(0.541263 1.03482 0.847306)
(0.684915 0.970393 0.668872)
(0.722902 0.938344 0.661594)
(0.698699 0.920648 0.673948)
(0.761683 0.912065 0.648424)
(0.791835 0.857441 0.650094)
(0.771028 0.830419 0.670067)
(0.712909 0.864672 0.684227)
(0.74828 0.807756 0.69228)
(0.815746 0.880467 0.630322)
(0.625687 1.17262 0.705919)
(0.609422 1.20631 0.733909)
(0.625684 1.24824 0.729431)
(0.680392 1.25468 0.679305)
(0.657027 1.27602 0.71037)
(0.638312 1.30404 0.743553)
(0.668162 1.20352 0.673105)
(0.70857 1.23538 0.655657)
(0.645445 1.1864 0.687482)
(0.629663 1.13774 0.694714)
(0.672521 1.16823 0.663611)
(0.640369 1.09974 0.686039)
(0.635997 1.04495 0.69122)
(0.667087 1.0133 0.673835)
(0.727414 1.16045 0.642435)
(0.683672 1.12927 0.657861)
(0.660799 1.11285 0.669461)
(0.770871 1.18539 0.63399)
(0.74118 1.20979 0.643221)
(0.653644 0.821109 0.769399)
(0.653275 0.796293 0.797743)
(0.627013 0.839946 0.794687)
(0.646292 0.776568 0.839823)
(0.675643 0.758642 0.813633)
(0.713565 0.736309 0.787305)
(0.728387 0.751028 0.74884)
(0.706367 0.717444 0.82955)
(0.686168 0.807868 0.737851)
(0.731953 0.784363 0.717669)
(0.525331 1.13652 0.906693)
(0.602207 0.850914 0.833078)
(0.635041 0.76263 0.884777)
(0.614705 0.801018 0.867572)
(0.589854 0.836828 0.877172)
(0.587129 1.35432 0.906707)
(0.58394 1.35743 0.954624)
(0.588448 0.793987 0.956262)
(0.616812 0.757355 0.956278)
(0.646514 0.721516 0.966473)
(0.685572 0.686032 0.966428)
(0.63085 0.750186 0.92247)
(0.545783 0.876835 0.967612)
(0.565175 0.832959 0.96726)
(0.577404 0.823278 0.924364)
(0.521917 0.96934 0.953905)
(0.533261 0.920899 0.953517)
(0.543267 0.907227 0.921719)
(0.517814 1.02891 0.944314)
(0.515825 1.07989 0.944229)
(0.528109 1.01192 0.896772)
(0.521459 1.19776 0.964531)
(0.517591 1.14569 0.964518)
(0.534974 1.24867 0.963636)
(0.557789 1.30828 0.953861)
(0.692053 0.692077 0.914367)
(0.695093 0.704441 0.875988)
(0.664867 0.724991 0.893458)
(0.565796 0.875249 0.888327)
(0.556068 0.919734 0.873692)
(0.547032 0.976371 0.858154)
(0.87835 1.55261 0.821189)
(0.809758 1.49962 0.77297)
(1.12024 1.56835 0.845444)
(0.903289 1.38085 0.636552)
(0.673579 1.46295 0.881157)
(1.20804 1.54673 0.866337)
(1.00695 1.24763 0.572834)
(1.0052 1.36051 0.616704)
(0.766993 1.53022 0.868226)
(0.897334 1.48295 0.718199)
(0.798418 1.4152 0.691407)
(0.873991 1.58611 0.920808)
(0.997082 1.4698 0.682734)
(0.938383 1.30325 0.60459)
(0.98013 1.54196 0.773938)
(0.920834 1.21983 0.59444)
(1.18063 1.51186 0.783581)
(0.871268 1.27827 0.616179)
(0.703877 1.5057 0.938127)
(1.15796 1.58229 0.93398)
(1.0584 1.59944 0.915747)
(1.08032 1.5221 0.748588)
(1.08123 1.32242 0.604332)
(0.713316 1.43896 0.774102)
(0.778189 1.55736 0.945178)
(1.04237 1.57328 0.829214)
(1.13252 1.37921 0.648557)
(1.07307 1.42581 0.657586)
(0.647497 1.44935 0.941461)
(1.2332 1.55843 0.940827)
(0.978268 1.16244 0.567734)
(0.963671 1.58493 0.864225)
(0.976087 1.60571 0.93978)
(1.16023 1.44049 0.6994)
(0.721399 1.37324 0.706101)
(0.813191 1.32168 0.638846)
(1.21957 1.56538 0.970338)
(1.26694 1.54757 0.970176)
(1.2637 1.54208 0.924377)
(0.82375 1.54219 0.842384)
(0.788457 1.51679 0.819638)
(0.84495 1.52699 0.795936)
(0.85544 1.49093 0.743826)
(0.889422 1.51928 0.767693)
(0.877548 1.56893 0.87116)
(0.823807 1.55909 0.893019)
(0.939906 1.51189 0.744638)
(0.93174 1.54744 0.796261)
(0.922764 1.56846 0.841865)
(0.920771 1.584 0.89183)
(0.972658 1.56553 0.819008)
(0.686623 1.49284 0.967899)
(0.725967 1.52567 0.968909)
(0.623869 1.42256 0.969031)
(0.657724 1.46482 0.97059)
(0.676576 1.4782 0.939099)
(0.762448 1.55104 0.972242)
(0.809551 1.57336 0.972494)
(0.74186 1.53268 0.941198)
(0.857573 1.58776 0.960434)
(0.908551 1.59774 0.960297)
(0.827698 1.57309 0.932217)
(1.00616 1.60821 0.96975)
(0.958662 1.60706 0.970109)
(0.927302 1.59536 0.92955)
(1.04663 1.60401 0.958096)
(1.08868 1.59575 0.956933)
(1.01856 1.60186 0.927564)
(1.13838 1.58877 0.967353)
(1.18145 1.57673 0.966398)
(1.10732 1.58806 0.923705)
(1.19415 1.56923 0.93664)
(0.981951 1.11107 0.559779)
(0.952798 1.14477 0.576665)
(1.00467 1.15197 0.560293)
(0.648145 1.41801 0.845471)
(0.641037 1.42562 0.890797)
(0.661802 1.45608 0.910188)
(0.627811 1.41834 0.922644)
(0.66915 1.40514 0.791146)
(0.692642 1.45312 0.826096)
(0.736767 1.51869 0.902249)
(0.690286 1.48465 0.909352)
(0.72111 1.49803 0.872823)
(0.741059 1.48686 0.818995)
(1.16282 1.55619 0.85371)
(1.14915 1.54107 0.812312)
(1.1938 1.52957 0.82451)
(1.22853 1.49731 0.8036)
(1.24374 1.51682 0.843388)
(1.18211 1.56487 0.899371)
(1.22034 1.55273 0.903532)
(1.13847 1.57462 0.88899)
(1.25056 1.53481 0.887416)
(0.691104 1.38628 0.746707)
(0.721269 1.32939 0.680825)
(0.695378 1.35312 0.71543)
(0.718037 1.4064 0.737655)
(0.799719 1.27771 0.636647)
(0.766674 1.3048 0.649259)
(0.768041 1.34751 0.666195)
(0.859713 1.23091 0.613435)
(0.829312 1.25637 0.627964)
(0.843935 1.29925 0.629724)
(0.920862 1.17282 0.59204)
(0.882384 1.20124 0.601555)
(0.894869 1.24937 0.605181)
(0.953827 1.19244 0.585472)
(1.00047 1.41229 0.648212)
(0.950758 1.42459 0.657964)
(0.95477 1.37043 0.628194)
(0.921974 1.34058 0.620713)
(0.972989 1.33247 0.610812)
(0.904426 1.29106 0.610634)
(0.887939 1.32869 0.62546)
(0.858817 1.35159 0.638667)
(0.849145 1.44878 0.703437)
(0.852872 1.397 0.662302)
(0.900855 1.43171 0.672621)
(0.948305 1.47562 0.699722)
(0.805916 1.36768 0.659976)
(0.762055 1.46973 0.771147)
(0.805417 1.45705 0.729188)
(0.757329 1.42768 0.728914)
(0.976404 1.27742 0.592667)
(1.01062 1.30492 0.596543)
(1.04547 1.28539 0.58629)
(1.04472 1.34295 0.609118)
(0.929668 1.26245 0.599387)
(0.968644 1.2357 0.586672)
(0.992404 1.20572 0.572211)
(1.04757 1.23222 0.574442)
(1.09126 1.26868 0.595916)
(1.01899 1.19498 0.566043)
(1.03878 1.39202 0.636637)
(1.03609 1.44827 0.6694)
(1.07667 1.37297 0.629951)
(0.775004 1.54387 0.906614)
(0.989003 1.50483 0.726256)
(0.759771 1.39482 0.697811)
(0.970226 1.59403 0.902044)
(1.02995 1.53051 0.760292)
(1.04057 1.49622 0.71412)
(1.08085 1.47524 0.698844)
(1.05999 1.54689 0.78856)
(1.0117 1.55756 0.800965)
(1.00417 1.57943 0.846267)
(1.12246 1.48234 0.718967)
(1.17367 1.47527 0.74045)
(1.13068 1.51553 0.763048)
(1.20756 1.43156 0.72256)
(1.21927 1.46819 0.763704)
(1.09957 1.54412 0.796262)
(1.11668 1.43269 0.676649)
(1.14625 1.40923 0.67368)
(1.1024 1.40173 0.651646)
(1.18518 1.39997 0.687591)
(1.17169 1.37012 0.66267)
(1.08872 1.58354 0.880785)
(1.05038 1.58654 0.872474)
(1.01259 1.59118 0.888917)
(1.08123 1.56947 0.836486)
(1.10672 1.35026 0.626265)
(1.12099 1.30469 0.615518)
(1.14772 1.33468 0.636884)
(0.870839 1.00522 1.182)
(0.782688 0.930917 1.0767)
(0.714312 1.05387 1.05487)
(0.861717 1.08254 1.18568)
(0.69767 1.15958 1.05421)
(0.807884 1.05294 1.14622)
(0.835845 0.952493 1.13837)
(0.764382 1.02606 1.09837)
(0.745497 1.12532 1.0982)
(0.922075 1.0459 1.21186)
(0.740111 0.958441 1.03225)
(0.806803 1.13305 1.14271)
(0.742842 1.19377 1.08811)
(0.785342 0.885753 1.03367)
(0.718705 1.23073 1.04891)
(0.730384 1.25899 1.02498)
(0.738496 1.24786 1.05825)
(0.750124 1.22935 1.07773)
(0.771239 1.20728 1.09827)
(0.729628 1.2118 1.06886)
(0.812413 0.940087 1.10476)
(0.802081 0.987908 1.11819)
(0.776461 0.978522 1.08706)
(0.753355 0.992915 1.06291)
(0.741204 1.0399 1.07352)
(0.731495 1.00678 1.04189)
(0.762395 0.9446 1.05359)
(0.784892 0.908852 1.05462)
(0.76365 0.922708 1.03281)
(0.854738 0.908462 1.12311)
(0.830858 0.894255 1.09218)
(0.815975 0.879802 1.06512)
(0.81612 0.855451 1.04367)
(0.731934 1.08894 1.07289)
(0.721739 1.14148 1.07356)
(0.705396 1.10515 1.05166)
(0.686994 1.13603 1.02566)
(0.697674 1.08257 1.02782)
(0.743199 1.15883 1.09151)
(0.720072 1.17654 1.07027)
(0.693863 1.1841 1.02829)
(0.70704 1.19483 1.05115)
(0.705151 1.21987 1.02432)
(0.913697 0.994769 1.19513)
(0.936717 1.01547 1.21403)
(0.89715 1.02564 1.19603)
(0.960689 1.05131 1.23319)
(0.893517 1.06407 1.19913)
(0.866616 1.04388 1.18373)
(0.929318 1.07876 1.2157)
(0.899774 1.09708 1.20251)
(0.823363 1.00266 1.14366)
(0.787223 1.03895 1.1209)
(0.756175 1.07569 1.09583)
(0.778826 1.08876 1.11828)
(0.751185 0.937072 1.01576)
(0.726307 0.987145 1.0152)
(0.773933 0.90082 1.0164)
(0.71354 1.03508 1.02594)
(0.890843 0.96296 1.17412)
(0.853873 0.978979 1.16021)
(0.840782 1.02795 1.16565)
(0.873153 0.934605 1.15267)
(0.835554 1.06714 1.16622)
(0.863081 1.12558 1.17958)
(0.802926 1.17773 1.12511)
(0.835315 1.1514 1.15749)
(0.835692 1.10737 1.16494)
(0.774143 1.16197 1.10739)
(0.811617 0.851681 1.01669)
(0.776903 1.12827 1.11722)
(0.807595 1.09293 1.14418)
(0.835459 1.30176 1.09589)
(1.10451 1.35735 1.11317)
(1.05776 1.38748 1.05968)
(1.05067 1.31528 1.15475)
(0.968995 1.29345 1.16028)
(1.01985 1.22156 1.21094)
(1.00877 1.35314 1.12016)
(0.964386 1.38053 1.06726)
(0.944302 1.20041 1.19841)
(1.14333 1.38008 1.05446)
(0.923614 1.3361 1.11571)
(0.891852 1.26921 1.147)
(0.86606 1.35619 1.06094)
(0.797862 1.31947 1.05001)
(0.992038 1.14353 1.24211)
(1.01155 1.38399 1.06275)
(1.03386 1.37123 1.09038)
(0.987476 1.36722 1.09339)
(0.94407 1.35857 1.09247)
(0.966808 1.3451 1.11785)
(1.0571 1.35413 1.1149)
(1.07794 1.33675 1.13458)
(1.03123 1.33437 1.1363)
(1.08245 1.37266 1.08606)
(1.01041 1.30339 1.15573)
(0.989889 1.3245 1.13991)
(0.947985 1.31655 1.13755)
(0.778417 1.29244 1.0594)
(0.770359 1.30273 1.02463)
(0.817794 1.26252 1.10183)
(0.796959 1.28249 1.07983)
(0.815819 1.31018 1.07312)
(1.13787 1.3305 1.13718)
(1.15377 1.35283 1.10108)
(1.12483 1.36939 1.08457)
(1.17282 1.36296 1.07063)
(1.17771 1.37218 1.02725)
(1.03703 1.18553 1.24155)
(1.06487 1.23047 1.22152)
(1.08193 1.27554 1.18603)
(1.10859 1.3098 1.16006)
(1.03492 1.26952 1.17838)
(1.02249 1.14481 1.25591)
(0.995007 1.10048 1.25415)
(1.00578 1.18166 1.22794)
(0.904188 1.18533 1.18703)
(0.940663 1.15409 1.21232)
(0.970413 1.16981 1.21821)
(0.965423 1.12636 1.23101)
(0.918217 1.23654 1.1712)
(0.876389 1.22072 1.15806)
(0.983731 1.20798 1.20239)
(0.956256 1.2481 1.17556)
(0.930678 1.28234 1.15404)
(0.996215 1.25573 1.17809)
(0.807487 1.33387 1.02599)
(0.846409 1.2458 1.12736)
(0.864405 1.28522 1.11697)
(0.850389 1.32878 1.07897)
(0.831551 1.3372 1.05439)
(0.894512 1.34496 1.08703)
(0.879732 1.31887 1.10316)
(0.908896 1.30363 1.12994)
(1.13139 1.38693 1.02687)
(1.10151 1.38301 1.05671)
(1.08883 1.39024 1.02986)
(0.841587 1.35241 1.03096)
(0.887626 1.37234 1.03219)
(0.989173 1.3905 1.03405)
(0.937101 1.38381 1.03464)
(0.914876 1.36817 1.0635)
(1.03583 1.39353 1.02978)
(0.94446 1.21781 0.807307)
(1.12431 1.34915 0.875773)
(0.906518 1.35335 0.916824)
(1.03012 1.22506 0.78369)
(0.922672 1.30756 0.866514)
(1.02812 1.35335 0.877868)
(0.876938 1.23342 0.845979)
(0.999672 1.29173 0.832958)
(0.835191 1.29048 0.896979)
(1.07245 1.30452 0.828255)
(1.10572 1.38456 0.938625)
(0.992578 1.14671 0.761023)
(0.990745 1.38819 0.943926)
(0.820819 1.33362 0.950984)
(0.797151 1.27762 0.91639)
(0.817245 1.25742 0.893017)
(0.78184 1.30939 0.976627)
(0.790347 1.29926 0.941996)
(0.827497 1.31167 0.923004)
(0.85639 1.26252 0.876932)
(0.838367 1.22815 0.868606)
(0.869104 1.20188 0.836738)
(0.938998 1.16271 0.791489)
(0.970705 1.18085 0.786436)
(0.964189 1.1277 0.772144)
(1.01142 1.18485 0.771045)
(0.98945 1.21886 0.798354)
(0.962116 1.30027 0.851079)
(0.972418 1.25528 0.822641)
(0.93502 1.2654 0.842471)
(1.01607 1.2585 0.812406)
(0.90349 1.19318 0.815473)
(0.911366 1.22542 0.826279)
(0.900507 1.2716 0.859085)
(0.819219 1.34071 0.97557)
(0.879624 1.29817 0.884904)
(0.87152 1.32165 0.907633)
(0.915628 1.33072 0.892492)
(0.863236 1.34259 0.935367)
(0.993857 1.10166 0.748267)
(1.02273 1.14573 0.746527)
(1.04254 1.18588 0.757743)
(1.05293 1.32958 0.856259)
(1.03629 1.29767 0.831829)
(1.01529 1.32405 0.856158)
(1.05073 1.26634 0.807617)
(0.97646 1.33124 0.872455)
(1.0992 1.32776 0.851659)
(1.07662 1.35078 0.878606)
(1.14758 1.3256 0.856159)
(1.12019 1.30414 0.830199)
(1.09333 1.27044 0.802887)
(1.07093 1.23112 0.777024)
(1.06701 1.36997 0.907983)