/*--------------------------------*- C++ -*----------------------------------*\
| =========                 |                                                 |
| \\      /  F ield         | OpenFOAM: The Open Source CFD Toolbox           |
|  \\    /   O peration     | Version:  v1806                                 |
|   \\  /    A nd           | Web:      www.OpenFOAM.com                      |
|    \\/     M anipulation  |                                                 |
\*---------------------------------------------------------------------------*/
FoamFile
{
    version     2.0;
    format      ascii;
    class       volScalarField;
    location    "0.027";
    object      p;
}
// * * * * * * * * * * * * * * * * * * * * * * * * * * * * * * * * * * * * * //

dimensions      [0 2 -2 0 0 0 0];


internalField   nonuniform List<scalar> 
64000
(
-2.21327e-05
-0.0839336
-0.23932
-0.29984
-0.344224
-0.362567
-0.417773
-0.441268
-0.463801
-0.50298
-0.502813
-0.576322
-0.598687
-0.653196
-0.679802
-0.680859
-0.702564
-0.680502
-0.705565
-0.810568
-0.587281
-1.11881
-1.43436
-1.2561
-1.43997
-1.2264
-1.24143
-1.11384
-1.15368
-1.0749
-1.16138
-1.18364
-1.26623
-1.28741
-1.34995
-1.36331
-1.41384
-1.39357
-1.39074
-1.36306
-0.116685
-0.200104
-0.289296
-0.32556
-0.352753
-0.362653
-0.406149
-0.442288
-0.493221
-0.558568
-0.550566
-0.552828
-0.492244
-0.479736
-0.471532
-0.496066
-0.625235
-0.603433
-0.626185
-0.605009
-0.545812
-0.963277
-1.40045
-1.20322
-1.36836
-1.18626
-1.19682
-1.10992
-1.10684
-1.07421
-1.12573
-1.12771
-1.23385
-1.22979
-1.29817
-1.293
-1.35606
-1.36155
-1.3687
-1.35275
-0.252575
-0.287252
-0.329023
-0.357241
-0.35557
-0.375566
-0.46684
-0.467072
-0.474469
-0.410789
-0.39551
-0.448575
-0.507915
-0.698388
-0.747203
-0.781209
-0.779011
-0.748007
-0.763951
-0.753288
-0.792235
-1.19832
-1.78585
-1.63118
-1.85408
-1.72175
-1.76678
-1.70453
-1.68982
-1.63387
-1.57147
-1.5381
-1.45786
-1.44307
-1.41096
-1.34534
-1.35114
-1.34242
-1.33745
-1.32801
-0.358444
-0.37132
-0.382125
-0.415361
-0.375324
-0.308548
-0.332293
-0.323719
-0.380937
-0.496809
-0.684151
-0.854062
-0.892469
-0.891494
-0.867027
-0.89168
-0.913302
-0.888074
-0.897398
-0.894064
-0.959765
-1.39172
-2.09841
-2.00028
-2.24555
-2.15887
-2.2141
-2.18292
-2.16539
-2.12154
-2.06632
-1.92432
-1.74694
-1.52832
-1.4458
-1.28353
-1.29105
-1.26819
-1.28367
-1.28429
-0.409383
-0.418156
-0.420302
-0.450159
-0.488717
-0.412846
-0.613822
-0.66508
-0.963474
-1.11624
-1.18717
-1.17759
-1.20382
-1.24948
-1.2289
-1.25384
-1.2275
-1.19976
-1.20121
-1.22628
-1.2775
-1.71298
-2.46373
-2.39052
-2.65199
-2.57596
-2.63456
-2.60022
-2.61572
-2.57761
-2.53274
-2.45056
-2.34061
-2.1099
-1.8264
-1.27157
-1.20975
-1.32562
-1.27052
-1.28795
-0.513356
-0.532721
-0.555438
-0.612259
-0.664093
-0.711621
-1.21024
-1.22922
-1.38092
-1.45801
-1.50295
-1.53211
-1.53068
-1.51402
-1.43691
-1.51904
-1.47153
-1.39625
-1.33382
-1.30555
-1.34618
-1.77156
-2.59439
-2.55159
-2.7743
-2.73785
-2.78861
-2.802
-2.80913
-2.7993
-2.74034
-2.65052
-2.56018
-2.34652
-2.09803
-1.29574
-1.25616
-1.34744
-1.28466
-1.30397
-0.55367
-0.588221
-0.589091
-0.73482
-0.765646
-1.1491
-1.41777
-1.51603
-1.64986
-1.74516
-1.80319
-1.84801
-1.90388
-1.92815
-1.91502
-1.91998
-1.79615
-1.75398
-1.75747
-1.82672
-1.95343
-1.7549
-2.3701
-2.5976
-2.78787
-2.81386
-2.89658
-2.91977
-2.95857
-2.96248
-2.88931
-2.80371
-2.70314
-2.51147
-2.24149
-1.5145
-1.27364
-1.37142
-1.3261
-1.33033
-0.642752
-0.639672
-0.696092
-0.817291
-0.964175
-1.44521
-1.58638
-1.70886
-1.84341
-1.94827
-2.02375
-2.11369
-2.15325
-2.23829
-2.28264
-2.3414
-2.34219
-2.28653
-2.3324
-2.30363
-2.29377
-1.69662
-1.89775
-2.27645
-2.70007
-2.81241
-2.94779
-3.00313
-3.06988
-3.10508
-3.03993
-2.95647
-2.82143
-2.64749
-2.39144
-1.75529
-1.31328
-1.38411
-1.36544
-1.36731
-0.687598
-0.673239
-0.739464
-0.938562
-1.2598
-1.56246
-1.69748
-1.87402
-1.96279
-2.12364
-2.22221
-2.31592
-2.39632
-2.51608
-2.61713
-2.7399
-2.83412
-2.85953
-2.93283
-2.82119
-2.49912
-1.70406
-1.47436
-1.85229
-2.61507
-2.85494
-3.03484
-3.08019
-3.1692
-3.1879
-3.11511
-3.02737
-2.8945
-2.68974
-2.45245
-2.01936
-1.40455
-1.39286
-1.41114
-1.40738
-0.751049
-0.721007
-0.83547
-1.1475
-1.40027
-1.6655
-1.81548
-1.98573
-2.08909
-2.22204
-2.32421
-2.44565
-2.51594
-2.65201
-2.77716
-2.95348
-3.05825
-3.10156
-3.22906
-3.0016
-2.36711
-1.59009
-1.23249
-1.46166
-2.31669
-2.91372
-3.10615
-3.17437
-3.25688
-3.2734
-3.25797
-3.14088
-2.99674
-2.83937
-2.55821
-2.21525
-1.55683
-1.41928
-1.44735
-1.46842
-0.779334
-0.788246
-0.97001
-1.24839
-1.50325
-1.72556
-1.89981
-2.05959
-2.17473
-2.32233
-2.39422
-2.50148
-2.55852
-2.67549
-2.80066
-2.97998
-2.96216
-3.19974
-2.98378
-2.52932
-2.17801
-1.65876
-1.24439
-1.30931
-1.7918
-2.88955
-3.16332
-3.2704
-3.30273
-3.3096
-3.27881
-3.21822
-3.02828
-2.81838
-2.60314
-2.32777
-1.78962
-1.45715
-1.48833
-1.51771
-0.884156
-0.900291
-1.07273
-1.32031
-1.54883
-1.7732
-1.94577
-2.10381
-2.22559
-2.33593
-2.41762
-2.50668
-2.55215
-2.61121
-2.75255
-2.83729
-2.87396
-2.85669
-2.24848
-2.09568
-2.03914
-1.74472
-1.39193
-1.3674
-1.65254
-2.34023
-3.36307
-3.34068
-3.44062
-3.40129
-3.38327
-3.26045
-3.18706
-2.95993
-2.70153
-2.36876
-1.98628
-1.56431
-1.51539
-1.58795
-0.983127
-1.00083
-1.15605
-1.37609
-1.58691
-1.79663
-1.96978
-2.1162
-2.21621
-2.31736
-2.37163
-2.42513
-2.46523
-2.51881
-2.59284
-2.68858
-2.67773
-2.01314
-1.79853
-1.67484
-1.7278
-1.62921
-1.50376
-1.485
-1.61698
-1.87253
-2.94003
-3.42253
-3.4237
-3.48069
-3.39795
-3.35983
-3.1497
-3.00532
-2.73523
-2.5134
-2.05595
-1.73021
-1.5547
-1.65008
-1.05281
-1.06712
-1.20926
-1.39222
-1.59363
-1.78717
-1.96708
-2.08726
-2.18917
-2.25863
-2.29252
-2.3639
-2.36379
-2.42799
-2.40122
-2.34967
-1.94928
-1.61029
-1.42557
-1.30583
-1.29479
-1.25869
-1.38021
-1.60677
-1.69821
-1.83802
-2.11469
-3.29641
-3.38083
-3.50363
-3.52328
-3.39861
-3.24517
-3.02262
-2.79152
-2.5008
-2.23044
-1.85196
-1.62814
-1.71964
-1.1936
-1.1866
-1.30163
-1.45562
-1.64037
-1.80827
-1.96351
-2.07479
-2.13096
-2.17687
-2.22341
-2.32148
-2.32818
-2.33806
-1.8869
-1.66974
-1.29376
-1.08446
-1.08494
-1.0116
-1.04948
-1.06021
-1.07598
-1.65064
-1.76351
-1.91763
-2.1043
-2.62366
-3.49811
-3.51916
-3.51563
-3.42365
-3.22797
-3.02406
-2.7712
-2.51158
-2.21215
-1.98695
-1.75023
-1.82206
-1.10743
-1.12972
-1.24076
-1.38491
-1.55357
-1.71357
-1.87945
-1.97513
-2.07967
-2.12868
-2.18385
-2.13922
-1.80181
-1.47792
-1.19466
-1.27344
-1.15523
-1.1701
-1.1662
-1.16194
-1.16553
-1.19695
-1.11857
-1.58367
-1.85336
-1.96237
-2.08849
-2.31189
-3.03423
-3.4941
-3.49398
-3.43059
-3.24166
-3.02421
-2.76289
-2.52449
-2.24049
-2.03968
-1.8405
-1.87751
-1.33916
-1.29572
-1.36724
-1.47032
-1.62295
-1.76611
-1.91222
-2.00326
-1.99371
-1.79562
-1.56753
-1.37808
-1.24546
-1.24488
-1.2218
-1.32048
-1.28949
-1.29182
-1.35413
-1.37821
-1.42615
-1.49737
-1.42511
-1.62259
-1.94229
-2.02184
-2.15012
-2.32585
-2.52572
-3.06666
-3.2326
-3.2726
-3.0983
-2.94169
-2.72967
-2.52227
-2.31701
-2.16405
-1.97716
-2.02896
-0.915856
-0.927392
-1.02056
-1.12687
-1.28898
-1.40276
-1.58597
-1.49539
-1.4252
-1.38621
-1.41799
-1.43132
-1.37016
-1.32593
-1.28353
-1.33092
-1.29402
-1.33389
-1.3751
-1.43989
-1.49016
-1.59904
-1.6015
-1.70469
-1.97265
-2.02118
-2.13892
-2.27628
-2.39983
-2.53005
-3.02884
-3.15223
-2.99702
-2.70427
-2.4461
-2.27143
-2.14146
-2.01352
-2.03182
-2.00942
-1.52201
-1.41019
-1.44493
-1.49091
-1.60186
-1.70356
-1.77355
-1.64589
-1.66362
-1.60637
-1.56197
-1.48783
-1.4278
-1.33781
-1.30294
-1.27216
-1.32535
-1.29742
-1.37043
-1.4294
-1.46812
-1.56897
-1.60388
-1.70633
-1.96531
-2.03961
-2.13666
-2.25118
-2.37548
-2.53707
-2.60574
-2.76625
-2.9143
-2.98837
-2.92169
-2.81294
-2.57453
-2.45007
-2.12789
-2.2372
-1.15216
-1.21409
-1.28109
-1.39159
-1.51527
-1.61805
-1.70197
-1.56743
-1.57881
-1.57735
-1.59958
-1.55689
-1.4835
-1.37281
-1.30034
-1.25196
-1.25811
-1.30635
-1.35087
-1.41748
-1.48215
-1.56295
-1.59663
-1.69823
-1.90815
-2.01495
-2.12523
-2.21814
-2.3808
-2.55827
-2.66217
-2.682
-2.74545
-2.47116
-2.35576
-2.31878
-2.32088
-2.24405
-2.35396
-2.21298
-1.34649
-1.31188
-1.32903
-1.37992
-1.46512
-1.55365
-1.62981
-1.59015
-1.64797
-1.67621
-1.71487
-1.67303
-1.58415
-1.43945
-1.32197
-1.24417
-1.28699
-1.30943
-1.39866
-1.4216
-1.52067
-1.55283
-1.61519
-1.69442
-1.87321
-1.98405
-2.05976
-2.20893
-2.35988
-2.51493
-2.64242
-2.67514
-2.72189
-2.70611
-2.56053
-2.48986
-2.3539
-2.27352
-2.19326
-2.28725
-1.38544
-1.38826
-1.43024
-1.48233
-1.57051
-1.65568
-1.7167
-1.70637
-1.76484
-1.79821
-1.84128
-1.8101
-1.68609
-1.51395
-1.35145
-1.21426
-1.17061
-1.20688
-1.27948
-1.37961
-1.4831
-1.57455
-1.61331
-1.69385
-1.84545
-1.94522
-2.07201
-2.1935
-2.34782
-2.51407
-2.62936
-2.71239
-2.77725
-2.64992
-2.65324
-2.62681
-2.62532
-2.49385
-2.47864
-2.49534
-1.41241
-1.40902
-1.44213
-1.4798
-1.5684
-1.63832
-1.70829
-1.73802
-1.81013
-1.88682
-1.94545
-1.90005
-1.78001
-1.61798
-1.44153
-1.25589
-1.26281
-1.38895
-1.39781
-1.43154
-1.47936
-1.58248
-1.62934
-1.72522
-1.82412
-1.94539
-2.03833
-2.15969
-2.27369
-2.39005
-2.50892
-2.58078
-2.67493
-2.67038
-2.71594
-2.68072
-2.68575
-2.56242
-2.47054
-2.4122
-1.48953
-1.43191
-1.53114
-1.53892
-1.6377
-1.69368
-1.76096
-1.813
-1.88435
-1.97595
-2.03787
-2.01923
-1.91806
-1.81088
-1.69044
-1.59704
-1.7864
-1.78659
-1.43713
-1.49146
-1.55159
-1.59625
-1.68014
-1.76528
-1.84342
-1.95922
-2.06037
-2.18601
-2.3038
-2.43887
-2.56996
-2.66177
-2.77191
-2.76835
-2.87458
-2.83987
-2.92277
-2.77778
-2.78858
-2.67866
-1.54234
-1.46552
-1.58918
-1.5836
-1.69513
-1.7423
-1.82082
-1.8781
-1.95382
-2.05559
-2.133
-2.14806
-2.09927
-2.02576
-2.00169
-1.99923
-2.10587
-1.99657
-1.43729
-1.50916
-1.54717
-1.64606
-1.6673
-1.77859
-1.85723
-1.93974
-2.01888
-2.12215
-2.19369
-2.25636
-2.33378
-2.37728
-2.48409
-2.47467
-2.59775
-2.53454
-2.65101
-2.51178
-2.59686
-2.46448
-1.60752
-1.49388
-1.62656
-1.63403
-1.74102
-1.80225
-1.88144
-1.94136
-2.02898
-2.14191
-2.2216
-2.2668
-2.28841
-2.30641
-2.37461
-2.34615
-2.33746
-2.23772
-1.43644
-1.52269
-1.55681
-1.62812
-1.68796
-1.79206
-1.85458
-2.00911
-2.04765
-2.17847
-2.24477
-2.39441
-2.54558
-2.61919
-2.75624
-2.72447
-2.87763
-2.7503
-2.89286
-2.65548
-2.77276
-2.58392
-1.64155
-1.57409
-1.64717
-1.70263
-1.79554
-1.8556
-1.94147
-1.9808
-2.06439
-2.15238
-2.24668
-2.31375
-2.37885
-2.46165
-2.55385
-2.52654
-2.45509
-2.33095
-1.50421
-1.5594
-1.59064
-1.64499
-1.7009
-1.79137
-1.83847
-1.98331
-2.06906
-2.15364
-2.25958
-2.30219
-2.34479
-2.30891
-2.38497
-2.28937
-2.43915
-2.25571
-2.44131
-2.16833
-2.35086
-2.30871
-1.67761
-1.64468
-1.61572
-1.75871
-1.83153
-1.91922
-2.01707
-2.06304
-2.16816
-2.25996
-2.34069
-2.40735
-2.46723
-2.48674
-2.56899
-2.60362
-2.49119
-2.4184
-1.54759
-1.55261
-1.56235
-1.63444
-1.7037
-1.79008
-1.80654
-1.99617
-2.04842
-2.2002
-2.25929
-2.31188
-2.38197
-2.34498
-2.44854
-2.27324
-2.44097
-2.12676
-2.3098
-1.88504
-2.00589
-1.8245
-1.71798
-1.72339
-1.65786
-1.79031
-1.8788
-1.96717
-2.02016
-2.13168
-2.22768
-2.32608
-2.41681
-2.4893
-2.55663
-2.59939
-2.62917
-2.64551
-2.51912
-2.58623
-1.65093
-1.52747
-1.55123
-1.60329
-1.66081
-1.76973
-1.7233
-1.92449
-2.08771
-2.18182
-2.19612
-2.22442
-2.27152
-2.20277
-2.30443
-2.10763
-2.28794
-1.90467
-2.12786
-1.61904
-1.7399
-1.59028
-1.74676
-1.76096
-1.68408
-1.75962
-1.91115
-1.99398
-2.07742
-2.17467
-2.25775
-2.35126
-2.44132
-2.51789
-2.59528
-2.63352
-2.68273
-2.70422
-2.57681
-2.63502
-1.82185
-1.47957
-1.49548
-1.54193
-1.58987
-1.72047
-1.5528
-2.03347
-1.95717
-2.2093
-2.16402
-2.22946
-2.28689
-2.16193
-2.32164
-2.00575
-2.29464
-1.76299
-2.07726
-1.41683
-1.54972
-1.26715
-1.80394
-1.82055
-1.77767
-1.77046
-1.97899
-2.0129
-2.14853
-2.23253
-2.33744
-2.41606
-2.50337
-2.58372
-2.63985
-2.72263
-2.68765
-2.74866
-2.60102
-2.75027
-1.96552
-1.3899
-1.44301
-1.47358
-1.51038
-1.65977
-1.42521
-2.0615
-1.88974
-2.17601
-2.1347
-2.18714
-2.24694
-2.13618
-2.26458
-1.95568
-2.22537
-1.64266
-2.02723
-1.26901
-1.42458
-0.997185
-1.79789
-1.78194
-1.80379
-1.68222
-1.91302
-1.98825
-2.09931
-2.18586
-2.28695
-2.38227
-2.48054
-2.55847
-2.66386
-2.66638
-2.69131
-2.76762
-2.61529
-2.81517
-2.15981
-1.25279
-1.35031
-1.35985
-1.39384
-1.57192
-1.29272
-2.05125
-1.86757
-2.15859
-2.10277
-2.16388
-2.24641
-2.05504
-2.3081
-1.81854
-2.2618
-1.44262
-1.99007
-1.03022
-1.23281
-0.593244
-1.89992
-1.89465
-1.90713
-1.84544
-1.95011
-2.09772
-2.18419
-2.26925
-2.36065
-2.45206
-2.54541
-2.66367
-2.67921
-2.77433
-2.74473
-2.86092
-2.69498
-2.88849
-2.37302
-1.10703
-1.26823
-1.24978
-1.2802
-1.47277
-1.17497
-1.98438
-1.93301
-2.12897
-2.13603
-2.14237
-2.26515
-2.02025
-2.27259
-1.80719
-2.25458
-1.38081
-1.94131
-0.854156
-1.05238
-0.176755
-1.80176
-1.77674
-1.79673
-1.76971
-1.71762
-1.94699
-2.00087
-2.10174
-2.2061
-2.31346
-2.43858
-2.51643
-2.62998
-2.72676
-2.72896
-2.84346
-2.69789
-2.85824
-2.46222
-0.908984
-1.10094
-1.05766
-1.0907
-1.30097
-1.01158
-1.84766
-1.95134
-2.1267
-2.21525
-2.12059
-2.28817
-1.94605
-2.32325
-1.61138
-2.3041
-1.10908
-1.88734
-0.330459
-0.70273
0.578863
-1.964
-2.01701
-1.95248
-2.0123
-1.94135
-2.05235
-2.13341
-2.21117
-2.31051
-2.39263
-2.49949
-2.62512
-2.71783
-2.85037
-2.87238
-3.02873
-2.84039
-2.96352
-2.61312
-0.767387
-0.9831
-0.906004
-0.930255
-1.13241
-0.893082
-1.73672
-2.03349
-2.2171
-2.25289
-2.16374
-2.38014
-1.90319
-2.42063
-1.54218
-2.37964
-1.10285
-1.91058
-0.0975151
-0.273399
1.44013
-1.83183
-1.72896
-1.80981
-1.72725
-1.72383
-1.78413
-1.82705
-1.92121
-2.02418
-2.15091
-2.30678
-2.44861
-2.5963
-2.75343
-2.78569
-3.02075
-2.84819
-2.90602
-2.56622
-0.564754
-0.748804
-0.603999
-0.647681
-0.856452
-0.716649
-1.56317
-2.05306
-2.2344
-2.36128
-2.16487
-2.37619
-1.80121
-2.41477
-1.35659
-2.25301
-0.690536
-1.68958
0.813784
0.735999
3.44381
-1.9684
-2.08376
-1.93977
-2.08405
-1.924
-1.99531
-2.0225
-2.04092
-2.15403
-2.25148
-2.39568
-2.54603
-2.69577
-2.87128
-2.93234
-3.1492
-2.99902
-3.05679
-2.61505
-0.5281
-0.535531
-0.384608
-0.390993
-0.609976
-0.600981
-1.48132
-2.10563
-2.29942
-2.4938
-2.20227
-2.56405
-1.77481
-2.62054
-1.24804
-2.61165
-0.640838
-1.81259
1.2435
1.7248
5.3965
-2.35341
-1.86001
-1.97591
-1.59337
-1.70941
-1.58187
-1.65389
-1.7116
-1.84128
-1.96156
-2.14591
-2.32324
-2.53133
-2.7535
-2.89189
-3.11726
-3.04712
-3.05503
-2.3929
-0.382751
-0.132743
0.0538724
0.0193147
-0.234066
-0.459615
-1.39698
-2.12066
-2.34972
-2.58351
-2.19867
-2.55995
-1.68447
-2.4883
-1.0116
-2.33676
-0.00518565
-1.1672
2.80848
4.23146
10.4569
-2.12571
-2.46256
-2.19469
-2.23432
-1.75769
-1.81316
-1.76927
-1.80529
-1.90883
-2.01296
-2.16591
-2.34427
-2.56287
-2.82479
-3.01865
-3.28776
-3.2652
-3.20378
-2.31947
-0.447754
0.118955
0.387046
0.323995
0.00132389
-0.393111
-1.36384
-2.10543
-2.41136
-2.70879
-2.20181
-2.63676
-1.66482
-2.65299
-1.19028
-2.55336
-0.319551
-1.1727
3.74835
5.7091
14.1535
-4.68896
-1.92767
-2.29045
-1.74577
-1.66894
-1.49194
-1.58757
-1.62724
-1.75969
-1.87346
-2.05526
-2.24207
-2.4787
-2.77322
-3.06983
-3.38651
-3.40975
-3.23768
-2.11927
-0.36683
0.460761
0.795891
0.641869
0.19758
-0.39435
-1.41523
-2.21762
-2.49278
-2.80834
-2.18403
-2.6039
-1.51259
-2.51472
-0.988547
-2.40247
0.103563
0.310799
7.22483
12.796
26.8018
-0.104712
-0.200162
-0.284026
-0.311459
-0.343593
-0.370343
-0.419501
-0.444251
-0.480019
-0.512577
-0.525436
-0.600598
-0.635959
-0.672581
-0.697905
-0.699107
-0.718765
-0.679871
-0.771662
-0.777674
-0.671914
-1.10183
-1.56994
-1.36806
-1.54317
-1.37737
-1.40441
-1.33019
-1.30961
-1.25124
-1.28195
-1.27304
-1.33966
-1.32392
-1.38123
-1.38573
-1.446
-1.43243
-1.42478
-1.3872
-0.224378
-0.266426
-0.328782
-0.330858
-0.357644
-0.368372
-0.403237
-0.449239
-0.464171
-0.541179
-0.520166
-0.557181
-0.467323
-0.467004
-0.469669
-0.564165
-0.633457
-0.606997
-0.619609
-0.58875
-0.670795
-1.05998
-1.5577
-1.42324
-1.57982
-1.45478
-1.49306
-1.44899
-1.43487
-1.36518
-1.32691
-1.30197
-1.32436
-1.2813
-1.34044
-1.32454
-1.3806
-1.37632
-1.38261
-1.36853
-0.292514
-0.327111
-0.349778
-0.37193
-0.363178
-0.359901
-0.431545
-0.445941
-0.496
-0.426745
-0.423475
-0.469189
-0.539164
-0.666845
-0.797751
-0.843645
-0.82602
-0.772893
-0.773921
-0.751253
-0.914395
-1.34069
-1.96381
-1.89655
-2.08475
-1.99207
-2.0507
-2.01809
-2.01586
-1.9388
-1.8382
-1.64308
-1.54664
-1.50145
-1.42818
-1.34482
-1.37165
-1.35365
-1.34907
-1.33276
-0.383377
-0.370978
-0.410983
-0.376799
-0.369988
-0.325498
-0.371255
-0.3371
-0.389482
-0.504155
-0.681517
-0.857262
-0.905061
-0.929487
-0.998496
-0.99925
-0.971855
-0.919194
-0.90633
-0.896926
-1.10652
-1.60413
-2.30667
-2.29551
-2.48492
-2.41868
-2.46365
-2.43936
-2.42089
-2.34689
-2.27068
-2.09829
-1.83287
-1.5607
-1.46449
-1.27759
-1.2569
-1.27748
-1.28243
-1.283
-0.428008
-0.430404
-0.438443
-0.454667
-0.484052
-0.367308
-0.436296
-0.672719
-0.95552
-1.14691
-1.2258
-1.25294
-1.25088
-1.29685
-1.36477
-1.34553
-1.29124
-1.23352
-1.20102
-1.14499
-1.30968
-1.84101
-2.59551
-2.60429
-2.79229
-2.75377
-2.78241
-2.7911
-2.7623
-2.70122
-2.63379
-2.52768
-2.41127
-2.11944
-1.7341
-1.26728
-1.22316
-1.29869
-1.26717
-1.28513
-0.539294
-0.551281
-0.57261
-0.58507
-0.684791
-0.599332
-1.09949
-1.30647
-1.43484
-1.51344
-1.55342
-1.58528
-1.55738
-1.59693
-1.61399
-1.65708
-1.5364
-1.42528
-1.33297
-1.25201
-1.35478
-1.82648
-2.6843
-2.7524
-2.93768
-2.90335
-2.9334
-2.94292
-2.96414
-2.86245
-2.82502
-2.74479
-2.61627
-2.40686
-2.03222
-1.31661
-1.27515
-1.32689
-1.29008
-1.30227
-0.570506
-0.595739
-0.617467
-0.7672
-0.807103
-1.03016
-1.44927
-1.59541
-1.70903
-1.79443
-1.84322
-1.89578
-1.90843
-2.0421
-1.99249
-1.99345
-1.90298
-1.80457
-1.74349
-1.73804
-1.83186
-1.74195
-2.34797
-2.7219
-2.9203
-2.94752
-3.01191
-3.01949
-3.01491
-3.02245
-2.92169
-2.833
-2.72759
-2.53474
-2.20833
-1.4793
-1.28989
-1.34713
-1.31959
-1.32777
-0.700346
-0.704369
-0.748579
-0.89239
-0.93481
-1.43124
-1.61109
-1.77533
-1.88407
-1.99196
-2.07384
-2.16613
-2.23384
-2.31765
-2.35481
-2.39642
-2.39734
-2.387
-2.38889
-2.29425
-2.08667
-1.54097
-1.78765
-2.2674
-2.81038
-2.94934
-3.07673
-3.09807
-3.1267
-3.05557
-3.03824
-2.94287
-2.83957
-2.65553
-2.37949
-1.71256
-1.35474
-1.39631
-1.36652
-1.37678
-0.702522
-0.745693
-0.831042
-1.05057
-1.30593
-1.5327
-1.68066
-1.89505
-2.03159
-2.16306
-2.2761
-2.34189
-2.46401
-2.58302
-2.67727
-2.80049
-2.91261
-3.01231
-3.06854
-2.78438
-2.21473
-1.43784
-1.32214
-1.76573
-2.64599
-2.9768
-3.14212
-3.20805
-3.15431
-3.15751
-3.09248
-3.00946
-2.8783
-2.6817
-2.42815
-1.94312
-1.41029
-1.39207
-1.40488
-1.40731
-0.775843
-0.78225
-0.890114
-1.28324
-1.4222
-1.68315
-1.81442
-2.07189
-2.11118
-2.31461
-2.3486
-2.4768
-2.60636
-2.75877
-2.88268
-3.0483
-3.18759
-3.3233
-3.31476
-2.84024
-2.09127
-1.34551
-1.07426
-1.35752
-2.2348
-2.98982
-3.23593
-3.30874
-3.31626
-3.2321
-3.22636
-3.17604
-3.06303
-2.89976
-2.59173
-2.16817
-1.56183
-1.44636
-1.46428
-1.47457
-0.812951
-0.842149
-1.06714
-1.36742
-1.57492
-1.73414
-1.91869
-2.07378
-2.19572
-2.35767
-2.40572
-2.51359
-2.66079
-2.83552
-2.9606
-3.11463
-3.21196
-3.29742
-2.92433
-2.41593
-1.93721
-1.41285
-1.09491
-1.18629
-1.71677
-2.8365
-3.22505
-3.35927
-3.31605
-3.34805
-3.2665
-3.1231
-3.00888
-2.84028
-2.63012
-2.33383
-1.71085
-1.47596
-1.49886
-1.51639
-0.924513
-0.974282
-1.186
-1.4355
-1.61812
-1.82159
-1.92706
-2.12984
-2.20733
-2.34621
-2.42748
-2.55265
-2.66207
-2.85167
-2.94199
-3.06688
-3.10409
-2.75205
-2.21457
-1.93913
-1.76314
-1.4869
-1.24893
-1.22146
-1.55691
-2.27178
-3.33591
-3.34497
-3.57238
-3.5488
-3.44428
-3.29672
-3.12816
-2.97876
-2.78815
-2.38814
-1.93656
-1.55428
-1.55403
-1.59052
-1.04861
-1.09863
-1.27993
-1.47559
-1.66269
-1.84678
-2.00248
-2.12285
-2.23396
-2.34542
-2.41175
-2.51422
-2.6687
-2.77867
-2.86515
-2.96293
-2.65335
-1.96667
-1.60516
-1.46089
-1.48859
-1.4381
-1.38679
-1.35423
-1.49906
-1.8303
-2.85232
-3.43749
-3.53411
-3.54743
-3.5756
-3.44914
-3.26337
-3.0222
-2.72195
-2.64206
-2.06427
-1.65935
-1.58509
-1.65299
-1.13813
-1.17309
-1.32062
-1.49296
-1.68037
-1.85095
-2.00545
-2.11321
-2.19835
-2.28381
-2.31769
-2.49874
-2.47451
-2.62961
-2.74002
-2.48344
-1.81069
-1.36474
-1.13189
-1.05176
-1.11149
-1.14977
-1.38098
-1.48874
-1.60592
-1.74632
-1.97516
-3.17986
-3.45056
-3.7089
-3.65733
-3.5278
-3.33774
-3.12004
-2.8353
-2.54431
-2.33729
-1.82991
-1.62661
-1.7498
-1.24389
-1.26671
-1.39397
-1.54788
-1.71901
-1.8681
-2.00409
-2.10393
-2.17631
-2.21766
-2.24397
-2.32777
-2.26364
-2.43676
-2.07571
-1.60829
-1.18406
-0.970327
-0.879009
-0.83232
-0.834149
-0.823989
-1.13418
-1.57044
-1.708
-1.91386
-2.26397
-2.9153
-3.78201
-3.74687
-3.68741
-3.5487
-3.33032
-3.10472
-2.79921
-2.59179
-2.23915
-2.03829
-1.66524
-1.83573
-1.20758
-1.22592
-1.34612
-1.49192
-1.66836
-1.77071
-1.9455
-2.02692
-2.10683
-2.13252
-2.10988
-2.08295
-1.6732
-1.50604
-1.25217
-1.21708
-1.09209
-1.0491
-1.00506
-0.966446
-0.932704
-0.888057
-1.01697
-1.58944
-1.79309
-1.90208
-2.08273
-2.39898
-3.02815
-3.68824
-3.67619
-3.55684
-3.33785
-3.09694
-2.80816
-2.54779
-2.29172
-2.09939
-1.83557
-1.84958
-1.33102
-1.31719
-1.39844
-1.50924
-1.67079
-1.78274
-1.94084
-2.01268
-1.99438
-1.79984
-1.53204
-1.34361
-1.17288
-1.23544
-1.17511
-1.2228
-1.21558
-1.21672
-1.22555
-1.225
-1.24225
-1.24345
-1.24689
-1.6323
-1.85797
-1.97459
-2.09107
-2.25767
-2.48578
-2.96212
-3.38642
-3.40225
-3.1989
-2.98708
-2.72481
-2.5031
-2.19646
-2.12521
-1.97345
-2.00043
-1.03306
-1.07759
-1.15298
-1.27381
-1.37099
-1.4916
-1.6332
-1.57185
-1.4662
-1.39032
-1.34259
-1.31476
-1.24145
-1.23284
-1.26341
-1.26885
-1.26704
-1.3006
-1.32144
-1.36356
-1.40593
-1.46897
-1.4771
-1.68748
-1.84633
-1.95768
-2.08862
-2.22314
-2.34341
-2.54494
-2.87226
-3.11017
-3.0428
-2.81295
-2.57082
-2.34024
-2.14386
-2.00847
-2.04126
-2.01525
-1.44012
-1.40199
-1.43945
-1.52167
-1.58222
-1.70895
-1.7823
-1.63347
-1.63021
-1.53796
-1.47428
-1.38363
-1.3215
-1.28014
-1.24683
-1.27798
-1.28511
-1.27781
-1.34503
-1.37364
-1.4392
-1.50122
-1.54196
-1.71259
-1.86951
-1.98039
-2.08263
-2.20012
-2.33023
-2.46218
-2.59282
-2.74217
-2.77033
-2.76732
-2.57441
-2.41185
-2.28999
-2.18777
-2.14445
-2.20141
-1.3059
-1.29489
-1.36194
-1.45788
-1.53683
-1.65481
-1.71557
-1.55713
-1.53535
-1.52413
-1.53335
-1.47812
-1.40598
-1.3068
-1.24974
-1.20999
-1.25113
-1.28042
-1.30027
-1.3746
-1.42925
-1.50167
-1.5383
-1.71194
-1.82032
-1.97251
-2.08065
-2.20422
-2.3395
-2.49529
-2.59189
-2.64628
-2.73518
-2.49675
-2.30127
-2.22913
-2.13194
-2.11464
-2.15731
-2.25327
-1.33262
-1.29321
-1.33176
-1.38702
-1.48743
-1.55926
-1.63288
-1.57276
-1.60337
-1.61922
-1.647
-1.59225
-1.49294
-1.35456
-1.22466
-1.16121
-1.19651
-1.23794
-1.3464
-1.34438
-1.45209
-1.49122
-1.56739
-1.67283
-1.82417
-1.94942
-2.05552
-2.19142
-2.34924
-2.49861
-2.62208
-2.66691
-2.71113
-2.68154
-2.52136
-2.45316
-2.33206
-2.19541
-2.13708
-2.20302
-1.44294
-1.39157
-1.43736
-1.47707
-1.57858
-1.63212
-1.69663
-1.6839
-1.73115
-1.75992
-1.79177
-1.74615
-1.60918
-1.40554
-1.21256
-1.0866
-1.09109
-1.17398
-1.26166
-1.37199
-1.42272
-1.50764
-1.5876
-1.67735
-1.80605
-1.92166
-2.03589
-2.16718
-2.32241
-2.48247
-2.60575
-2.68217
-2.75963
-2.67176
-2.66404
-2.64502
-2.63058
-2.47885
-2.42319
-2.47986
-1.39671
-1.39064
-1.43742
-1.4757
-1.5652
-1.61811
-1.68955
-1.71866
-1.79277
-1.87418
-1.93627
-1.89906
-1.75375
-1.48449
-1.20879
-1.07066
-1.15348
-1.27878
-1.32491
-1.35215
-1.4551
-1.51043
-1.59296
-1.68699
-1.79491
-1.90897
-2.01409
-2.13223
-2.2539
-2.37661
-2.50228
-2.57863
-2.67327
-2.68782
-2.77082
-2.75988
-2.78444
-2.60401
-2.52051
-2.46523
-1.48985
-1.45441
-1.51845
-1.53675
-1.62548
-1.6657
-1.743
-1.79254
-1.8723
-1.9744
-2.05738
-2.06003
-1.96264
-1.71123
-1.52073
-1.53942
-1.71893
-1.67644
-1.41258
-1.41789
-1.47814
-1.536
-1.63959
-1.70488
-1.81542
-1.91709
-2.02666
-2.14586
-2.2646
-2.38668
-2.51571
-2.60229
-2.72094
-2.73626
-2.8727
-2.85544
-2.97201
-2.81022
-2.80275
-2.71056
-1.53126
-1.47774
-1.57508
-1.58953
-1.67763
-1.73752
-1.7985
-1.86628
-1.95109
-2.06168
-2.15918
-2.20751
-2.19771
-2.11308
-2.06068
-2.08781
-2.10997
-1.88279
-1.42249
-1.4126
-1.47375
-1.5763
-1.63235
-1.75396
-1.82576
-1.90011
-1.98428
-2.07481
-2.15006
-2.21586
-2.30313
-2.34835
-2.46144
-2.4551
-2.60445
-2.53705
-2.6834
-2.5174
-2.6084
-2.45861
-1.599
-1.51164
-1.60773
-1.63473
-1.73499
-1.79212
-1.87094
-1.94487
-2.03205
-2.14213
-2.24014
-2.31573
-2.37105
-2.40979
-2.45329
-2.4105
-2.36415
-2.03906
-1.44215
-1.41983
-1.46383
-1.54864
-1.63901
-1.75343
-1.83457
-1.93296
-2.03416
-2.10665
-2.20264
-2.33192
-2.4774
-2.53553
-2.67711
-2.6378
-2.80838
-2.66714
-2.82743
-2.58822
-2.70943
-2.55971
-1.64776
-1.58543
-1.63308
-1.69789
-1.78341
-1.85988
-1.94369
-2.02619
-2.11329
-2.21236
-2.30686
-2.38695
-2.46367
-2.53452
-2.61227
-2.56739
-2.50615
-2.22849
-1.4934
-1.43222
-1.44848
-1.55188
-1.64561
-1.76594
-1.81496
-1.97344
-1.99316
-2.10484
-2.20181
-2.28268
-2.33743
-2.31271
-2.39655
-2.28949
-2.45322
-2.2437
-2.44554
-2.15084
-2.27647
-2.23905
-1.68932
-1.6496
-1.63511
-1.75298
-1.8354
-1.9081
-2.02161
-2.10437
-2.1998
-2.29063
-2.37498
-2.44865
-2.51758
-2.56705
-2.62966
-2.63505
-2.55521
-2.381
-1.59289
-1.46539
-1.45935
-1.52691
-1.62112
-1.73792
-1.77759
-1.92792
-2.01834
-2.20504
-2.23976
-2.29678
-2.37463
-2.3388
-2.45146
-2.26324
-2.4592
-2.11994
-2.34034
-1.88644
-2.04814
-1.80458
-1.72869
-1.72667
-1.67257
-1.78925
-1.89804
-1.98101
-2.04644
-2.18024
-2.27319
-2.36884
-2.45216
-2.52342
-2.58914
-2.63508
-2.67486
-2.68558
-2.60058
-2.52572
-1.69933
-1.48652
-1.45677
-1.52524
-1.58303
-1.70545
-1.68532
-1.89831
-2.0749
-2.18532
-2.20282
-2.2522
-2.2879
-2.19655
-2.32737
-2.10567
-2.31854
-1.92437
-2.19716
-1.64717
-1.7579
-1.48329
-1.75668
-1.76252
-1.69814
-1.75816
-1.92038
-2.00097
-2.09476
-2.20197
-2.2927
-2.39005
-2.48057
-2.55465
-2.62862
-2.67613
-2.72683
-2.75665
-2.67058
-2.67013
-1.76579
-1.463
-1.38372
-1.4704
-1.5051
-1.64355
-1.56752
-1.96691
-2.01548
-2.19379
-2.19793
-2.1947
-2.29734
-2.19065
-2.33633
-2.03193
-2.36903
-1.81886
-2.23468
-1.52975
-1.65778
-1.24334
-1.81195
-1.8282
-1.78353
-1.78407
-1.98789
-2.06346
-2.16765
-2.27414
-2.34077
-2.44608
-2.54073
-2.62135
-2.68897
-2.74699
-2.77858
-2.81898
-2.72384
-2.7785
-1.96229
-1.40826
-1.36552
-1.39241
-1.41327
-1.57182
-1.45432
-1.98748
-1.9854
-2.15778
-2.18208
-2.15035
-2.27006
-2.11509
-2.34543
-1.9662
-2.31262
-1.75709
-2.24062
-1.46665
-1.63413
-1.08429
-1.80495
-1.79407
-1.79273
-1.70611
-1.90772
-2.0077
-2.11838
-2.19983
-2.31525
-2.38949
-2.50213
-2.58091
-2.67442
-2.72171
-2.79188
-2.85624
-2.72627
-2.85836
-2.1258
-1.31007
-1.24512
-1.27182
-1.28045
-1.47196
-1.308
-1.97186
-1.96814
-2.18039
-2.15494
-2.1435
-2.22416
-2.09031
-2.31241
-1.90194
-2.38601
-1.54969
-2.31301
-1.31214
-1.61293
-0.833813
-1.90441
-1.90264
-1.90027
-1.86115
-1.94356
-2.11969
-2.20973
-2.29428
-2.40102
-2.48534
-2.60044
-2.66532
-2.73574
-2.80409
-2.80604
-2.93139
-2.80268
-2.98977
-2.35086
-1.20307
-1.14037
-1.15329
-1.1607
-1.36213
-1.18822
-1.90908
-2.01083
-2.22016
-2.20623
-2.12825
-2.28278
-1.99033
-2.366
-1.80898
-2.40627
-1.58361
-2.28115
-1.28496
-1.64703
-0.57874
-1.81072
-1.77431
-1.82397
-1.72335
-1.74427
-1.92918
-2.02939
-2.11899
-2.22644
-2.34314
-2.46822
-2.56874
-2.67711
-2.74237
-2.80319
-2.88821
-2.8137
-2.93831
-2.40893
-1.0269
-0.963744
-0.951778
-0.967218
-1.17746
-1.01629
-1.78607
-1.99263
-2.22925
-2.24719
-2.13903
-2.30188
-1.94031
-2.35267
-1.65176
-2.42163
-1.29536
-2.38145
-0.817804
-1.4663
0.00405568
-1.96719
-2.01205
-1.95847
-2.05384
-1.88175
-2.06925
-2.16288
-2.24313
-2.34212
-2.44152
-2.56863
-2.67805
-2.76941
-2.91477
-2.9704
-3.15068
-2.96653
-3.0834
-2.54461
-0.964231
-0.838267
-0.784514
-0.799463
-1.0013
-0.896922
-1.67172
-2.05143
-2.27226
-2.35824
-2.18783
-2.39927
-1.90786
-2.46314
-1.58225
-2.49371
-1.26535
-2.38098
-0.849192
-1.08978
0.743127
-1.82275
-1.76714
-1.82702
-1.73622
-1.78844
-1.68114
-1.88448
-1.94052
-2.0738
-2.18854
-2.35272
-2.47982
-2.6389
-2.80598
-2.82583
-3.13047
-2.96382
-3.01502
-2.54383
-0.794336
-0.582887
-0.481427
-0.495976
-0.713957
-0.722262
-1.51809
-2.05086
-2.2895
-2.43437
-2.20368
-2.45267
-1.82611
-2.45836
-1.36856
-2.43709
-0.82736
-2.06918
0.0611678
-0.443982
2.60683
-1.95881
-2.10692
-1.96992
-2.12133
-1.97348
-1.98942
-2.07285
-2.11368
-2.22721
-2.33016
-2.46133
-2.62191
-2.77627
-2.96902
-3.05346
-3.35279
-3.14521
-3.2377
-2.60474
-0.736397
-0.393988
-0.256581
-0.262757
-0.488972
-0.615722
-1.452
-2.10312
-2.36252
-2.56674
-2.24343
-2.62021
-1.84471
-2.66133
-1.37718
-2.70453
-0.864137
-2.14789
0.429865
0.513535
4.70293
-2.28857
-1.83308
-1.98963
-1.63432
-1.74921
-1.59128
-1.71588
-1.75039
-1.91205
-2.02157
-2.2286
-2.40281
-2.63005
-2.86821
-3.09713
-3.28254
-3.27921
-3.26572
-2.52437
-0.595356
-0.124477
0.12022
0.119475
-0.15694
-0.426863
-1.33056
-2.11287
-2.39275
-2.68013
-2.22601
-2.6259
-1.70171
-2.58449
-1.12399
-2.55219
-0.393051
-1.47394
2.14706
3.54813
10.4826
-1.90312
-2.43159
-2.24122
-2.30867
-1.97777
-1.82968
-1.88887
-1.89494
-2.00471
-2.09939
-2.25965
-2.45431
-2.69267
-2.96697
-3.16817
-3.52864
-3.53426
-3.44202
-2.478
-0.627522
0.122139
0.435532
0.395545
0.0694617
-0.382549
-1.31666
-2.09947
-2.46915
-2.81304
-2.23976
-2.69429
-1.65299
-2.6901
-1.19527
-2.6975
-0.627296
-1.43033
3.00071
6.3733
17.4904
-4.54824
-1.82862
-2.18237
-1.67308
-1.64426
-1.4954
-1.61281
-1.65228
-1.80899
-1.926
-2.10487
-2.29855
-2.56339
-2.8919
-3.24675
-3.55762
-3.67929
-3.47201
-2.31176
-0.514138
0.456563
0.864167
0.735128
0.315278
-0.311766
-1.34044
-2.23483
-2.53919
-2.92281
-2.22876
-2.66594
-1.4742
-2.54247
-0.95989
-2.36195
-0.0176227
0.415454
7.1837
16.0862
34.6786
-0.219951
-0.254599
-0.300964
-0.315457
-0.340758
-0.362972
-0.412389
-0.443847
-0.469836
-0.513055
-0.534917
-0.60129
-0.654128
-0.704968
-0.677576
-0.704052
-0.74494
-0.716007
-0.7295
-0.677186
-0.642866
-1.19779
-1.61885
-1.47621
-1.62784
-1.46792
-1.48723
-1.37522
-1.33343
-1.21876
-1.23573
-1.18665
-1.25729
-1.25344
-1.3377
-1.37781
-1.44632
-1.42759
-1.42648
-1.38206
-0.276545
-0.295486