/*--------------------------------*- C++ -*----------------------------------*\
| =========                 |                                                 |
| \\      /  F ield         | OpenFOAM: The Open Source CFD Toolbox           |
|  \\    /   O peration     | Version:  v1806                                 |
|   \\  /    A nd           | Web:      www.OpenFOAM.com                      |
|    \\/     M anipulation  |                                                 |
\*---------------------------------------------------------------------------*/
FoamFile
{
    version     2.0;
    format      ascii;
    class       vectorField;
    location    "0.022";
    object      currentcloudofpoints;
}
// * * * * * * * * * * * * * * * * * * * * * * * * * * * * * * * * * * * * * //


2409
(
(0.717616 1.14985 0.99999)
(0.921546 0.750937 0.999992)
(1.11756 1.34668 0.99988)
(1.0055 1.03929 0.720639)
(1.00556 1.03923 1.2794)
(1.03271 1.05628 1)
(0.512213 1.23911 0.999856)
(0.821512 0.561638 1.00005)
(1.16272 1.53888 0.999986)
(0.97799 1.02306 0.530885)
(0.977931 1.02325 1.46902)
(1.11284 1.33061 1.09014)
(1.09666 1.28581 1.17075)
(1.07103 1.21705 1.23279)
(1.03968 1.13126 1.2703)
(1.11553 1.33923 1.04498)
(1.10535 1.30855 1.13067)
(1.08409 1.25181 1.20191)
(1.05561 1.17442 1.25194)
(1.02275 1.08496 1.27512)
(0.925504 0.765237 1.07831)
(0.935447 0.807864 1.15164)
(0.952795 0.871951 1.21475)
(0.976958 0.95091 1.2589)
(0.923939 0.758147 1.03895)
(0.931102 0.786874 1.11422)
(0.944048 0.840413 1.18291)
(0.965396 0.911956 1.23659)
(0.991052 0.99514 1.2692)
(1.11272 1.33068 0.909838)
(1.09668 1.28566 0.829438)
(1.07101 1.21669 0.767536)
(1.03973 1.13112 0.729857)
(1.11543 1.33922 0.954857)
(1.10531 1.30861 0.869416)
(1.08409 1.25148 0.798371)
(1.05559 1.17416 0.748335)
(1.02274 1.08496 0.724903)
(0.976948 0.950912 0.741126)
(0.952897 0.871921 0.78523)
(0.935146 0.807644 0.848296)
(0.925595 0.765342 0.921427)
(0.991041 0.99522 0.73097)
(0.965361 0.911817 0.76317)
(0.944079 0.840435 0.817303)
(0.930763 0.786626 0.885447)
(0.924311 0.758531 0.960974)
(0.920599 1.0715 1.25895)
(0.842056 1.10123 1.21423)
(0.777754 1.12555 1.1499)
(0.733348 1.14297 1.07801)
(0.963872 1.05529 1.26791)
(0.88144 1.08668 1.23752)
(0.810826 1.11334 1.1811)
(0.755659 1.13408 1.11306)
(0.725124 1.14653 1.03892)
(0.733421 1.14317 0.922026)
(0.777035 1.12591 0.849817)
(0.841471 1.10136 0.785209)
(0.920446 1.07146 0.741394)
(0.725448 1.14649 0.961157)
(0.755146 1.13453 0.886713)
(0.810274 1.11341 0.818626)
(0.881029 1.08675 0.762245)
(0.963824 1.05535 0.732455)
(0.835977 0.800077 1.00001)
(0.766683 0.872695 0.999637)
(0.72068 0.961166 0.999951)
(0.701608 1.05613 1)
(0.879936 0.775897 1.00006)
(0.802031 0.836719 0.999758)
(0.744327 0.917481 0.99973)
(0.71129 1.00874 1.00003)
(0.70923 1.10275 0.999991)
(0.762448 1.23444 0.999791)
(0.83132 1.30179 0.999799)
(0.920596 1.34433 0.999972)
(1.01987 1.35793 0.999948)
(0.740391 1.19147 0.999938)
(0.797122 1.26795 0.999742)
(0.875959 1.32355 0.999943)
(0.971753 1.35059 0.999986)
(1.06843 1.35316 0.999883)
(0.825242 0.570338 1.08861)
(0.836909 0.593701 1.17484)
(0.858268 0.632834 1.25329)
(0.88165 0.68897 1.3224)
(0.904289 0.758219 1.38138)
(0.924519 0.839039 1.42798)
(0.949577 0.928992 1.45726)
(0.823868 0.565672 1.04433)
(0.831691 0.582104 1.13173)
(0.848064 0.613127 1.21429)
(0.871135 0.660615 1.2876)
(0.894006 0.72373 1.35167)
(0.915066 0.798459 1.4047)
(0.937176 0.884029 1.44243)
(0.964049 0.976145 1.46325)
(1.00904 1.11814 1.46376)
(1.04459 1.21024 1.43984)
(1.08163 1.29696 1.39852)
(1.11313 1.37599 1.34096)
(1.13846 1.44296 1.26753)
(1.15242 1.49526 1.18357)
(1.16014 1.52807 1.09359)
(0.993426 1.07079 1.46623)
(1.02676 1.1642 1.45183)
(1.06381 1.25329 1.41926)
(1.09788 1.33645 1.36994)
(1.12687 1.40931 1.30463)
(1.14616 1.46928 1.22541)
(1.15654 1.51206 1.13864)
(1.16159 1.53382 1.04685)
(0.825307 0.570616 0.911127)
(0.836674 0.593519 0.82526)
(0.858243 0.632187 0.74622)
(0.880982 0.68773 0.676249)
(0.903699 0.757391 0.617693)
(0.924341 0.838917 0.572167)
(0.949567 0.929001 0.542964)
(0.824421 0.566176 0.955649)
(0.831242 0.582051 0.868099)
(0.848149 0.612694 0.785604)
(0.870797 0.659789 0.71151)
(0.893302 0.722573 0.647099)
(0.914616 0.797954 0.594826)
(0.937164 0.884038 0.557942)
(0.964007 0.976061 0.536788)
(1.16014 1.52815 0.906388)
(1.15247 1.49535 0.816408)
(1.13847 1.4427 0.73259)
(1.11315 1.37581 0.659046)
(1.08166 1.29707 0.601215)
(1.04451 1.2103 0.560137)
(1.00914 1.11805 0.536168)
(1.16158 1.53385 0.95312)
(1.15656 1.51217 0.861331)
(1.14622 1.46923 0.774616)
(1.12686 1.40897 0.69553)
(1.09792 1.33648 0.629838)
(1.06379 1.25333 0.580675)
(1.02672 1.16424 0.548114)
(0.993578 1.0706 0.533628)
(0.521046 1.23265 1.08626)
(0.550108 1.21506 1.16883)
(0.597542 1.19045 1.24571)
(0.658975 1.16079 1.31534)
(0.728006 1.12832 1.37547)
(0.804246 1.09451 1.42317)
(0.890088 1.0597 1.45283)
(0.516575 1.23631 1.04322)
(0.535676 1.22373 1.12786)
(0.573815 1.20249 1.20732)
(0.629415 1.1752 1.27999)
(0.69398 1.14445 1.34538)
(0.766507 1.11128 1.39933)
(0.846398 1.07717 1.43723)
(0.935211 1.04186 1.46235)
(0.521811 1.23223 0.913937)
(0.548641 1.21581 0.830691)
(0.598648 1.19012 0.754999)
(0.658325 1.16096 0.684014)
(0.728244 1.12824 0.624733)
(0.804693 1.09421 0.578019)
(0.889954 1.05956 0.546925)
(0.517783 1.23562 0.956716)
(0.534918 1.22408 0.872046)
(0.57358 1.20275 0.792667)
(0.629636 1.1751 0.720093)
(0.693767 1.14453 0.654308)
(0.766872 1.11107 0.601373)
(0.846533 1.07691 0.563418)
(0.935177 1.04167 0.537263)
(0.725844 0.60862 1.00007)
(0.647591 0.670213 1.00008)
(0.584379 0.74668 0.999986)
(0.536618 0.835237 0.99993)
(0.50643 0.932699 0.999957)
(0.492796 1.03506 1.00004)
(0.495817 1.13879 0.999966)
(0.773725 0.585289 1.00006)
(0.686559 0.638873 1.00009)
(0.616384 0.707863 1.00003)
(0.560648 0.790141 0.99994)
(0.521812 0.883197 0.999916)
(0.500006 0.983097 1.00001)
(0.494963 1.08627 1.00002)
(0.504848 1.18855 0.999908)
(0.546089 1.32939 0.999885)
(0.599902 1.40504 0.999942)
(0.672586 1.46569 1.00003)
(0.761679 1.51084 1.00014)
(0.860241 1.54129 1.00011)
(0.961932 1.55785 1.00002)
(1.06381 1.55817 0.999982)
(0.529101 1.28436 0.999868)
(0.572854 1.36736 0.999935)
(0.63603 1.43538 0.999968)
(0.717094 1.48814 1.00012)
(0.811234 1.52578 1.00012)
(0.91139 1.5485 1.00006)
(1.01341 1.55878 0.99999)
(1.11342 1.54727 0.999983)
(0.990697 1.03104 0.628156)
(0.986016 1.02661 0.578243)
(0.997538 1.03524 0.675653)
(0.990956 1.03105 1.37188)
(0.997802 1.03513 1.32443)
(0.986043 1.02682 1.42169)
(0.876027 0.65353 0.999875)
(0.899281 0.702923 0.99989)
(0.852031 0.60236 1.00004)
(1.14255 1.44023 0.999937)
(1.12959 1.3927 0.999901)
(1.15393 1.48907 0.999962)
(0.703817 1.36933 1.24536)
(0.692692 1.42294 1.17453)
(0.875107 1.25279 1.40794)
(0.868159 1.50782 1.16179)
(0.571869 1.3532 1.0807)
(0.950489 1.19373 1.44492)
(1.06138 1.53523 1.13657)
(0.971662 1.50126 1.21504)
(0.617335 1.35302 1.17075)
(0.78154 1.44692 1.21663)
(0.747967 1.48232 1.11998)
(0.649008 1.27256 1.2658)
(0.88004 1.44238 1.2713)
(0.958636 1.5355 1.13346)
(0.800711 1.37811 1.302)
(1.00596 1.55566 1.0667)
(0.970899 1.28456 1.41551)
(0.913676 1.54321 1.07671)
(0.554513 1.29429 1.12256)
(0.868259 1.14736 1.43729)
(0.783664 1.21296 1.38735)
(0.897153 1.35698 1.35599)
(1.06018 1.48217 1.24086)
(0.64967 1.43391 1.08738)
(0.585675 1.27076 1.19467)
(0.816224 1.30492 1.36033)
(1.05296 1.42368 1.31234)
(0.974156 1.43736 1.3005)
(0.535416 1.29705 1.05797)
(0.939056 1.1094 1.46004)
(1.09191 1.54941 1.05985)
(0.736525 1.30346 1.31803)
(0.707729 1.21882 1.33823)
(1.01493 1.37013 1.3635)
(0.703744 1.47919 1.05318)
(0.827248 1.52423 1.07354)
(0.979772 1.15628 1.45511)
(0.996604 1.20286 1.44403)
(0.958698 1.06654 1.46523)
(0.973941 1.11415 1.4628)
(0.944915 1.15147 1.45224)
(1.0077 1.24795 1.4286)
(1.02602 1.29092 1.40809)
(0.96082 1.23932 1.43021)
(1.04836 1.33356 1.38134)
(1.0636 1.37226 1.35202)
(0.993691 1.32756 1.39017)
(1.08302 1.39935 1.32646)
(1.09613 1.43216 1.28969)
(1.03395 1.39694 1.3381)
(1.09964 1.46153 1.25377)
(1.10616 1.48747 1.21182)
(1.05776 1.4527 1.2767)
(1.10688 1.51452 1.1602)
(1.11071 1.5303 1.11513)
(1.06082 1.50964 1.18904)
(1.12608 1.5382 1.07666)
(1.1276 1.54347 1.03011)
(1.07657 1.54231 1.09817)
(1.07794 1.55384 1.02987)
(0.586178 1.37937 1.0404)
(0.558755 1.3418 1.04048)
(0.553474 1.32539 1.06951)
(0.540717 1.31354 1.02895)
(0.523776 1.26826 1.02901)
(0.661167 1.45018 1.04384)
(0.624903 1.41944 1.04371)
(0.610975 1.39328 1.08418)
(0.732792 1.495 1.02685)
(0.688119 1.47254 1.0266)
(0.67655 1.45681 1.07039)
(0.843662 1.5327 1.03697)
(0.794527 1.51758 1.03677)
(0.765916 1.5013 1.06351)
(0.937675 1.55028 1.03857)
(0.887115 1.5418 1.03827)
(0.870844 1.53317 1.07522)
(1.03508 1.55733 1.03359)
(0.983999 1.55681 1.03319)
(0.959874 1.54889 1.07181)
(1.04919 1.553 1.06345)
(0.660838 1.36111 1.20792)
(0.654866 1.38806 1.17296)
(0.69847 1.39655 1.21013)
(0.73733 1.43488 1.19558)
(0.742472 1.40852 1.23156)
(0.63359 1.39412 1.12939)
(0.671078 1.42868 1.13083)
(0.720192 1.45319 1.14746)
(0.765075 1.46496 1.16803)
(0.698366 1.4584 1.1038)
(0.913885 1.22326 1.42553)
(0.923497 1.26881 1.41112)
(0.9102 1.17033 1.43986)
(0.871838 1.19999 1.42241)
(0.886745 1.30513 1.38221)
(0.935155 1.32111 1.38573)
(0.829226 1.23283 1.39761)
(0.826177 1.18 1.41287)
(0.846069 1.27873 1.38411)
(0.79993 1.25917 1.374)
(0.856662 1.33082 1.35797)
(0.847922 1.51582 1.11735)
(0.890929 1.52537 1.11945)
(0.808959 1.49409 1.14083)
(0.787971 1.50294 1.09703)
(0.926171 1.47065 1.24362)
(0.874623 1.4759 1.21694)
(0.919831 1.50395 1.18819)
(0.913436 1.521 1.14801)
(0.965186 1.51892 1.17424)
(0.936111 1.53916 1.10487)
(0.825241 1.4771 1.18972)
(0.831368 1.44474 1.24413)
(0.585809 1.32354 1.14674)
(0.563074 1.32411 1.10176)
(0.594639 1.35301 1.12578)
(0.544953 1.29577 1.09041)
(0.537736 1.26352 1.10462)
(0.552699 1.25474 1.14602)
(0.528231 1.26499 1.07225)
(0.56794 1.24283 1.18176)
(0.591951 1.23065 1.22068)
(0.570207 1.28243 1.15869)
(0.623497 1.23158 1.25587)
(0.654921 1.21658 1.29062)
(0.617561 1.27163 1.23022)
(0.718237 1.17344 1.35699)
(0.683345 1.18987 1.3268)
(0.679641 1.24552 1.30185)
(0.755821 1.17065 1.38113)
(0.794423 1.1535 1.40523)
(0.746111 1.21578 1.36268)
(0.835722 1.12104 1.43033)
(0.879295 1.10364 1.44461)
(0.914911 1.08457 1.45616)
(0.904633 1.12846 1.44752)
(0.676432 1.32115 1.25603)
(0.720951 1.33663 1.28197)
(0.693234 1.28801 1.29171)
(0.768511 1.34091 1.31026)
(0.752862 1.37376 1.2737)
(0.634 1.31303 1.21867)
(0.791727 1.41307 1.25968)
(1.03385 1.54591 1.10148)
(0.722232 1.26128 1.32819)
(0.761058 1.25813 1.35271)
(0.77667 1.30418 1.33915)
(0.809069 1.34167 1.33141)
(0.72585 1.48081 1.08651)
(1.01061 1.53616 1.13551)
(1.01714 1.51905 1.17674)
(1.01654 1.49291 1.229)
(0.982332 1.5453 1.10017)
(0.973825 1.46922 1.25821)
(0.927024 1.43927 1.28569)
(1.0184 1.46007 1.2719)
(0.601624 1.31219 1.1831)
(0.84042 1.41041 1.28699)
(0.849636 1.36727 1.32891)
(0.889453 1.39986 1.31409)
(0.936015 1.39698 1.32853)
(0.957238 1.36411 1.36034)
(0.995539 1.40412 1.33232)
(1.01424 1.43118 1.30728)
(0.65578 0.882667 1.29943)
(0.532905 0.94663 1.15521)
(0.636805 0.723328 1.15479)
(0.692038 0.672544 1.16496)
(0.555027 0.997075 1.20997)
(0.694582 0.958715 1.35138)
(0.758707 0.614451 1.1347)
(0.518859 1.15565 1.12621)
(0.860918 0.920613 1.43266)
(0.578918 0.913156 1.22236)
(0.70319 0.72439 1.24599)
(0.512411 1.04923 1.12808)
(0.623099 0.990394 1.29169)
(0.823405 0.828625 1.38914)
(0.669569 1.06652 1.33715)
(0.598336 1.07836 1.26751)
(0.765665 0.651198 1.21574)
(0.826085 1.00721 1.43196)
(0.677033 0.654839 1.08524)
(0.516386 0.925074 1.0851)
(0.775712 0.930373 1.40004)
(0.545366 1.1086 1.19356)
(0.744108 1.0375 1.3929)
(0.546134 0.832382 1.07879)
(0.761005 0.774145 1.32607)
(0.798693 0.697471 1.29095)
(0.616342 0.807474 1.21551)
(0.692156 0.802104 1.29451)
(0.832427 0.745751 1.34624)
(0.729489 0.859052 1.34874)
(0.577265 0.797812 1.13007)
(0.55319 0.867663 1.14946)
(0.758019 0.595395 1.06232)
(0.900882 0.987705 1.45463)
(0.591301 0.74593 1.06656)
(0.499368 1.12912 1.05901)
(0.498409 1.01294 1.05633)
(0.717663 0.634176 1.10992)
(0.684964 0.663639 1.12521)
(0.725316 0.643363 1.15005)
(0.758868 0.605089 1.09852)
(0.71716 0.624761 1.07397)
(0.7284 0.661627 1.19046)
(0.762385 0.632625 1.17563)
(0.79257 0.59263 1.11184)
(0.798343 0.60416 1.15487)
(0.792137 0.582999 1.07546)
(0.802102 0.622706 1.19578)
(0.893777 0.879675 1.4309)
(0.906664 0.924919 1.44523)
(0.865061 0.793491 1.38539)
(0.876257 0.833726 1.40874)
(0.842479 0.874339 1.41139)
(0.925736 0.95833 1.4566)
(0.940065 1.00559 1.46311)
(0.881288 0.954263 1.44325)
(0.522902 0.997189 1.14183)
(0.533792 1.02266 1.16932)
(0.544244 0.971475 1.18262)
(0.529072 1.0785 1.161)
(0.55097 1.05237 1.20186)
(0.589251 0.993286 1.25074)
(0.576978 1.03738 1.23867)
(0.611042 1.03411 1.27965)
(0.56719 0.954695 1.2162)
(0.601345 0.951203 1.25701)
(0.571945 1.09305 1.23043)
(0.556152 0.929482 1.18868)
(0.664445 0.697522 1.15992)
(0.657458 0.688744 1.12036)
(0.634757 0.699618 1.07593)
(0.614474 0.73446 1.11078)
(0.662589 0.66255 1.04276)
(0.701443 0.631314 1.04289)
(0.741869 0.601727 1.03123)
(0.6201 0.707802 1.0335)
(0.516557 1.10191 1.12729)
(0.532269 1.13192 1.16016)
(0.506598 1.08883 1.09378)
(0.509338 1.14231 1.0928)
(0.515508 0.979285 1.10626)
(0.505605 1.03089 1.0925)
(0.499683 1.07016 1.05777)
(0.647039 1.02844 1.31403)
(0.63475 1.07217 1.30187)
(0.682496 1.01254 1.34391)
(0.659736 0.974397 1.321)
(0.640021 0.936282 1.29529)
(0.676145 0.920651 1.32471)
(0.617652 0.897413 1.26082)
(0.869676 0.75194 1.3639)
(0.82861 0.787314 1.36738)
(0.799003 0.879434 1.3946)
(0.817793 0.925626 1.41606)
(0.776085 0.843928 1.36889)
(0.75308 0.894585 1.3744)
(0.793082 0.801638 1.35725)
(0.79636 0.760124 1.33593)
(0.745453 0.816636 1.3371)
(0.664638 1.11352 1.32627)
(0.629755 1.11934 1.29085)
(0.699234 1.09752 1.3561)
(0.736314 1.0829 1.38408)
(0.70761 1.05186 1.36464)
(0.719883 0.998123 1.3718)
(0.599069 1.13406 1.25657)
(0.571963 1.14907 1.21952)
(0.857902 1.03358 1.44207)
(0.815262 1.05094 1.42738)
(0.78537 1.02228 1.41291)
(0.774398 1.06612 1.40809)
(0.895625 1.02379 1.45373)
(0.863525 0.99762 1.44247)
(0.843259 0.964016 1.4319)
(0.801233 0.968833 1.41593)
(0.760038 0.983889 1.39624)
(0.669885 0.723361 1.2004)
(0.697573 0.698245 1.20569)
(0.627172 0.765157 1.18538)
(0.659742 0.765261 1.23099)
(0.584426 0.771636 1.09849)
(0.607486 0.760061 1.14243)
(0.597265 0.802331 1.17276)
(0.734232 0.687679 1.23094)
(0.53473 1.18513 1.14767)
(0.520628 1.19394 1.10642)
(0.511193 1.18041 1.0728)
(0.506761 1.18385 1.02957)
(0.54875 1.16152 1.1815)
(0.71205 0.908645 1.35023)
(0.693126 0.87074 1.3236)
(0.6361 0.844286 1.25791)
(0.59838 0.859847 1.21902)
(0.67394 0.842208 1.29703)
(0.653894 0.804029 1.2555)
(0.711826 0.830666 1.32081)
(0.79013 0.578506 1.03123)
(0.588055 0.746366 1.0334)
(0.564398 0.789706 1.03331)
(0.512048 0.928926 1.04251)
(0.52758 0.87976 1.04266)
(0.541756 0.833812 1.03945)
(0.568933 0.788443 1.07276)
(0.531695 0.878094 1.08202)
(0.495851 1.02402 1.0282)
(0.50289 0.972405 1.02817)
(0.507731 0.968421 1.07073)
(0.49773 1.13407 1.02957)
(0.496927 1.08157 1.02962)
(0.812768 0.642274 1.23453)
(0.841347 0.69314 1.3068)
(0.829304 0.665316 1.27233)
(0.782864 0.674228 1.25322)
(0.857734 0.71727 1.33464)
(0.816394 0.72153 1.31834)
(0.735389 0.944518 1.37563)
(0.750656 0.710822 1.26829)
(0.543292 0.906711 1.15241)
(0.56638 0.889982 1.18592)
(0.585515 0.837084 1.18227)
(0.77997 0.735716 1.30861)
(0.733107 0.748605 1.28606)
(0.698093 0.762853 1.27058)
(0.726958 0.788109 1.30998)
(0.534672 0.895912 1.1176)
(0.524488 0.935629 1.12053)
(0.561688 0.814898 1.1045)
(0.54986 0.849896 1.1144)
(0.565607 0.832455 1.13985)
(0.669562 0.776495 0.744721)
(0.593761 0.975636 0.742233)
(0.676858 0.721888 0.786936)
(0.687738 0.67311 0.841891)
(0.51681 1.00366 0.866342)
(0.751535 0.935231 0.61344)
(0.515657 1.10231 0.864994)
(0.81905 1.00117 0.570307)
(0.623418 0.792021 0.787195)
(0.551806 0.940154 0.810891)
(0.784873 0.778716 0.656552)
(0.601171 1.07862 0.730445)
(0.670888 0.942037 0.67213)
(0.615349 0.865958 0.749331)
(0.730323 0.868804 0.648157)
(0.545032 1.03379 0.803457)
(0.731881 1.02627 0.614553)
(0.7553 0.651525 0.794529)
(0.860606 0.921245 0.566839)
(0.753456 0.613706 0.873992)
(0.608114 0.718925 0.943393)
(0.522419 0.912298 0.902873)
(0.561912 0.798407 0.918319)
(0.676796 0.652056 0.924205)
(0.555177 1.12261 0.793864)
(0.570759 0.839469 0.835556)
(0.751956 0.716549 0.722758)
(0.620548 0.735343 0.85883)
(0.664319 1.05653 0.665677)
(0.496625 1.04473 0.939362)
(0.818458 0.843224 0.606576)
(0.756593 0.596744 0.941395)
(0.506421 1.16476 0.922334)
(0.694018 0.819581 0.693786)
(0.629265 1.01221 0.700322)
(0.899405 0.98674 0.545601)
(0.619739 0.828704 0.768269)
(0.642528 0.820782 0.74684)
(0.646683 0.784055 0.766132)
(0.673671 0.749112 0.765958)
(0.650427 0.756644 0.787014)
(0.681816 0.79776 0.719065)
(0.654745 0.842237 0.721523)
(0.714789 0.71882 0.755052)
(0.710772 0.746252 0.733683)
(0.723123 0.767935 0.70813)
(0.805437 0.928176 0.589877)
(0.785636 0.968064 0.591418)
(0.839522 0.961362 0.568995)
(0.741669 0.980687 0.6139)
(0.775793 1.01355 0.591954)
(0.839617 0.881933 0.586021)
(0.784631 0.889221 0.61016)
(0.741455 0.902087 0.631061)
(0.700832 0.905383 0.660333)
(0.711998 0.938708 0.643053)
(0.70206 0.984121 0.643249)
(0.774345 0.856123 0.627737)
(0.894727 1.02323 0.546074)
(0.939366 1.00501 0.536939)
(0.925035 0.957864 0.543694)
(0.530734 1.06776 0.833938)
(0.53091 1.01846 0.834673)
(0.516862 1.05242 0.865555)
(0.550775 1.0779 0.798632)
(0.535328 1.11233 0.829049)
(0.506523 1.07315 0.901871)
(0.50694 1.02401 0.902653)
(0.552506 1.16904 0.811891)
(0.533071 1.15857 0.847517)
(0.511147 1.13343 0.893445)
(0.527324 1.18995 0.876285)
(0.50245 1.10391 0.930613)
(0.859101 0.994147 0.558832)
(0.88042 0.95414 0.556724)
(0.768491 1.06026 0.596111)
(0.811824 1.04771 0.574166)
(0.854186 1.03054 0.559127)
(0.597121 0.815304 0.811275)
(0.593433 0.852189 0.792567)
(0.648622 0.728231 0.822688)
(0.622202 0.763464 0.822626)
(0.596248 0.786752 0.846897)
(0.893554 0.879968 0.56906)
(0.906565 0.925301 0.554853)
(0.87337 0.840794 0.588755)
(0.605058 0.920399 0.745756)
(0.584067 0.902534 0.780222)
(0.57272 0.957421 0.776487)
(0.56188 0.889235 0.823152)
(0.548739 0.986453 0.807075)
(0.534451 0.971506 0.838426)
(0.569492 1.00423 0.77285)
(0.537127 0.925889 0.856456)
(0.5201 0.95731 0.884461)
(0.546895 0.875326 0.869086)
(0.712704 0.844202 0.67145)
(0.757292 0.823546 0.652363)
(0.739548 0.799184 0.675528)
(0.802608 0.811053 0.632205)
(0.845979 0.768242 0.637232)
(0.833985 0.7336 0.666149)
(0.769048 0.747632 0.689646)
(0.81787 0.702894 0.699964)
(0.862206 0.800325 0.611975)
(0.598006 1.0269 0.736355)
(0.573381 1.05576 0.767175)
(0.578771 1.10015 0.762498)
(0.630733 1.11958 0.707801)
(0.601182 1.13398 0.742898)
(0.577306 1.15609 0.774619)
(0.633312 1.06742 0.698344)
(0.661816 1.10861 0.674922)
(0.615429 1.0452 0.715283)
(0.612031 0.993784 0.721567)
(0.647067 1.03437 0.683123)
(0.633194 0.958534 0.707767)
(0.643884 0.903549 0.711113)
(0.683099 0.880779 0.683581)
(0.698669 1.04127 0.640335)
(0.667949 0.999083 0.66887)
(0.650403 0.97694 0.68627)
(0.730311 1.0772 0.619863)
(0.696696 1.09249 0.645357)
(0.716119 0.686442 0.790621)
(0.721315 0.662147 0.818238)
(0.682465 0.697339 0.814159)
(0.720404 0.643168 0.857793)
(0.754393 0.632451 0.834004)
(0.796579 0.622747 0.809478)
(0.80767 0.642152 0.770403)
(0.795546 0.603661 0.84961)
(0.754518 0.683775 0.758564)
(0.805989 0.675161 0.734434)
(0.510327 0.977171 0.921091)
(0.654357 0.703681 0.850294)
(0.715013 0.632688 0.899129)
(0.682383 0.662475 0.882802)
(0.64914 0.692968 0.891123)
(0.514424 1.19837 0.918044)
(0.510469 1.20174 0.960983)
(0.66239 0.660848 0.962107)
(0.701769 0.630426 0.962052)
(0.741458 0.60268 0.970748)
(0.789681 0.579382 0.970685)
(0.716372 0.624211 0.932722)
(0.596391 0.732639 0.971642)
(0.628136 0.694283 0.971657)
(0.642649 0.684741 0.933757)
(0.549186 0.816509 0.959044)
(0.573146 0.771999 0.958866)
(0.585223 0.758002 0.930673)
(0.529863 0.873347 0.951121)
(0.514602 0.922408 0.951356)
(0.542819 0.854554 0.910516)
(0.494806 1.03997 0.969672)
(0.50215 0.987849 0.969654)
(0.496864 1.09134 0.969556)
(0.501573 1.15178 0.960988)
(0.791507 0.583835 0.92623)
(0.789862 0.592412 0.892337)
(0.755314 0.605296 0.907586)
(0.614519 0.726928 0.900856)
(0.591594 0.766257 0.888463)
(0.566791 0.818865 0.876612)
(0.723734 1.43823 0.81842)
(0.679251 1.37259 0.779736)
(0.972212 1.52878 0.843155)
(0.797348 1.29761 0.642409)
(0.561878 1.31297 0.883677)
(1.07246 1.53415 0.865258)
(0.941735 1.19996 0.557643)
(0.903685 1.30996 0.612687)
(0.62796 1.39255 0.865254)
(0.762506 1.38383 0.725615)
(0.693014 1.29734 0.709232)
(0.705227 1.47267 0.916276)
(0.865233 1.40017 0.68928)
(0.853623 1.23467 0.591018)
(0.827047 1.45752 0.772919)
(0.864123 1.14839 0.56514)
(1.04949 1.49929 0.782973)
(0.795977 1.19197 0.601184)
(0.57283 1.36027 0.937055)
(1.01126 1.55557 0.932596)
(0.89172 1.53768 0.910833)
(0.938494 1.47321 0.74996)
(0.993271 1.30293 0.593553)
(0.612111 1.29581 0.787145)
(0.626426 1.42345 0.942247)
(0.883434 1.50528 0.82443)
(1.0325 1.37251 0.639904)
(0.957164 1.39204 0.658222)
(0.537809 1.29771 0.94375)
(1.09498 1.54885 0.940283)
(0.936701 1.11045 0.540532)
(0.795406 1.49317 0.857644)
(0.799769 1.51845 0.935468)
(1.04031 1.43433 0.695656)
(0.637289 1.23923 0.730414)
(0.730081 1.21929 0.64593)
(1.07947 1.5535 0.970191)
(1.12913 1.54328 0.96995)
(1.12761 1.53803 0.923395)
(0.675601 1.4154 0.841687)
(0.653566 1.38285 0.822436)
(0.701447 1.40571 0.798771)
(0.72141 1.37818 0.752681)
(0.743968 1.41139 0.771975)
(0.714461 1.45586 0.867356)
(0.666623 1.43297 0.890403)
(0.794914 1.42073 0.748879)
(0.775855 1.44773 0.795545)
(0.759578 1.46583 0.837624)
(0.750473 1.48266 0.886987)
(0.811443 1.4759 0.815235)
(0.559815 1.34484 0.968357)
(0.586408 1.38299 0.968412)
(0.525247 1.26845 0.971661)
(0.542201 1.31365 0.971739)
(0.555379 1.32908 0.940308)
(0.613174 1.41441 0.971052)
(0.649468 1.44483 0.971019)
(0.599454 1.39205 0.939563)
(0.688894 1.4694 0.958223)
(0.733397 1.492 0.957959)
(0.665635 1.44806 0.929253)
(0.829935 1.53015 0.967577)
(0.780657 1.51485 0.967862)
(0.752685 1.49528 0.925664)
(0.875863 1.53971 0.955564)
(0.926805 1.54728 0.955177)
(0.846089 1.52765 0.923089)
(0.986722 1.55674 0.966515)
(1.03767 1.5571 0.966086)
(0.951748 1.54562 0.921479)
(1.05329 1.55252 0.93626)
(0.957558 1.06698 0.534702)
(0.91365 1.085 0.544038)
(0.972901 1.11463 0.537221)
(0.555563 1.26473 0.856707)
(0.542101 1.27257 0.898542)
(0.550051 1.30529 0.91367)
(0.530183 1.26494 0.928756)
(0.580453 1.25569 0.808791)
(0.586474 1.30458 0.835104)
(0.600271 1.37633 0.901183)
(0.567567 1.33673 0.910345)
(0.594677 1.35289 0.874198)
(0.620061 1.34493 0.825554)
(1.02292 1.53219 0.853494)
(1.01119 1.51503 0.812597)
(1.06092 1.5169 0.824089)
(1.10077 1.49584 0.799948)
(1.11252 1.51418 0.840821)
(1.04202 1.54547 0.898953)
(1.08367 1.54158 0.902809)
(0.991801 1.5423 0.887776)
(1.11632 1.53005 0.885825)
(0.605715 1.2432 0.77042)
(0.648424 1.19994 0.707226)
(0.618288 1.21461 0.742784)
(0.625239 1.26753 0.758672)
(0.729588 1.17363 0.635567)
(0.694111 1.1903 0.664869)
(0.684263 1.22936 0.687713)
(0.800639 1.14303 0.589651)
(0.762285 1.16009 0.613437)
(0.763807 1.20533 0.624222)
(0.877249 1.10397 0.556898)
(0.834124 1.12138 0.571872)
(0.829944 1.17019 0.582606)
(0.901364 1.12941 0.554165)
(0.885084 1.35508 0.650694)
(0.831435 1.34913 0.665558)
(0.850365 1.30367 0.62759)
(0.826318 1.26608 0.616864)
(0.878525 1.27258 0.601821)
(0.82472 1.2134 0.596065)
(0.797141 1.24487 0.621906)
(0.763641 1.2586 0.644332)
(0.727655 1.34089 0.717057)
(0.745804 1.29745 0.675749)
(0.780897 1.34094 0.683639)
(0.814393 1.39167 0.707622)
(0.711838 1.25858 0.676843)
(0.645608 1.33435 0.783173)
(0.686995 1.33513 0.744302)
(0.653637 1.29629 0.748626)
(0.898194 1.21713 0.575257)
(0.923774 1.25556 0.58483)
(0.967616 1.25221 0.574582)
(0.949593 1.30687 0.603067)
(0.858928 1.19153 0.577823)
(0.903545 1.17386 0.56255)
(0.939579 1.15498 0.549744)
(0.992356 1.20628 0.556717)
(1.01901 1.25703 0.576121)
(0.97583 1.15939 0.546031)
(0.930908 1.35068 0.63545)
(0.911044 1.39584 0.67387)
(0.976559 1.34756 0.625652)
(0.627419 1.4081 0.903793)
(0.847028 1.42884 0.731168)
(0.665027 1.26841 0.719741)
(0.797641 1.50567 0.896585)
(0.882916 1.46434 0.761631)
(0.902179 1.43651 0.719223)
(0.949005 1.43367 0.703107)
(0.911074 1.489 0.78755)
(0.855352 1.48133 0.798314)
(0.839819 1.49898 0.841006)
(0.990878 1.45565 0.721328)
(1.04637 1.46688 0.738859)
(0.995079 1.487 0.765059)
(1.08963 1.43698 0.714442)
(1.09468 1.47009 0.757939)
(0.955687 1.50098 0.796307)
(0.999272 1.41385 0.675865)
(1.03666 1.4033 0.667722)
(0.995672 1.38283 0.648369)
(1.07679 1.40413 0.677616)
(1.07254 1.37346 0.649757)
(0.932005 1.53289 0.877348)
(0.887536 1.52166 0.867586)
(0.843893 1.51487 0.883761)
(0.927816 1.51633 0.83356)
(1.01332 1.33771 0.616372)
(1.03713 1.29981 0.597089)
(1.05723 1.3347 0.620456)
(0.891688 0.945749 1.22943)
(0.845192 0.830524 1.10969)
(0.757516 0.918479 1.08021)
(0.861457 1.01873 1.23174)
(0.716888 1.01672 1.06479)
(0.825555 0.967299 1.19444)
(0.8769 0.878925 1.18284)
(0.799361 0.91728 1.14201)
(0.759639 1.01059 1.13828)
(0.92773 1.00279 1.25782)
(0.808033 0.832153 1.04853)
(0.804985 1.04529 1.18978)
(0.739427 1.07368 1.11386)
(0.863128 0.78691 1.04836)
(0.711324 1.08978 1.05294)
(0.714094 1.11976 1.02647)
(0.722383 1.11628 1.06531)
(0.736406 1.10807 1.09561)
(0.758641 1.0995 1.13145)
(0.725549 1.08166 1.08307)
(0.861883 0.855232 1.14499)
(0.838812 0.898182 1.1624)
(0.822733 0.874438 1.12567)
(0.802209 0.874706 1.09476)
(0.778895 0.917862 1.11052)
(0.783605 0.875767 1.06421)
(0.826916 0.831135 1.07887)
(0.854508 0.808781 1.07872)
(0.835798 0.809546 1.04844)
(0.906712 0.844109 1.16634)
(0.891805 0.819769 1.12931)
(0.8862 0.798337 1.09336)
(0.895003 0.776136 1.06289)
(0.758826 0.965151 1.10859)
(0.738637 1.01381 1.10068)
(0.737899 0.968157 1.07207)
(0.718978 0.989464 1.03204)
(0.739947 0.940629 1.03965)
(0.749575 1.04216 1.12584)
(0.728071 1.04528 1.08892)
(0.709173 1.03662 1.03231)
(0.713948 1.0532 1.05874)
(0.706151 1.07312 1.0263)
(0.935275 0.948979 1.24275)
(0.952645 0.977176 1.25779)
(0.909857 0.97452 1.24366)
(0.966862 1.02091 1.26769)
(0.894896 1.01101 1.24518)
(0.876537 0.98236 1.23098)
(0.924237 1.03716 1.25842)
(0.891202 1.04532 1.2454)
(0.851516 0.923616 1.18918)
(0.812814 0.942644 1.16767)
(0.779934 0.964296 1.1401)
(0.793555 0.98909 1.16549)
(0.822411 0.816238 1.02418)
(0.788169 0.852914 1.02389)
(0.849879 0.793624 1.02408)
(0.763029 0.896403 1.03966)
(0.923141 0.909925 1.22116)
(0.884388 0.912858 1.20604)
(0.858663 0.95663 1.21236)
(0.915425 0.876149 1.1981)
(0.843558 0.993078 1.21312)
(0.85208 1.06002 1.2232)
(0.791977 1.08532 1.16932)
(0.823783 1.07316 1.20172)
(0.833665 1.03206 1.21079)
(0.772969 1.05947 1.15038)
(0.8932 0.769287 1.02418)
(0.782706 1.02799 1.1634)
(0.81523 1.0064 1.1922)
(0.785782 1.20707 1.11164)
(1.01747 1.32667 1.11933)
(0.964496 1.34486 1.06189)
(0.980459 1.28054 1.1735)
(0.906495 1.24078 1.18665)
(0.979863 1.19404 1.23676)
(0.926695 1.30474 1.1294)
(0.88008 1.3173 1.06851)
(0.907514 1.15585 1.23476)
(1.04743 1.3516 1.05613)
(0.853601 1.26604 1.12767)
(0.843717 1.19482 1.17909)
(0.800115 1.26282 1.06104)
(0.750957 1.20441 1.05139)
(0.969914 1.11944 1.26443)
(0.922255 1.3316 1.06524)
(0.946064 1.32533 1.09565)
(0.903695 1.31136 1.09871)
(0.867181 1.29179 1.0981)
(0.889937 1.28586 1.12864)
(0.973322 1.31527 1.12387)
(0.999257 1.30365 1.14646)
(0.954351 1.29287 1.15123)
(0.991899 1.33585 1.09033)
(0.943904 1.26074 1.17982)
(0.917013 1.27334 1.15789)
(0.880381 1.25409 1.15707)
(0.742148 1.17345 1.0646)
(0.734265 1.17685 1.02541)
(0.781907 1.16606 1.13046)
(0.759567 1.17469 1.09425)
(0.768383 1.20568 1.08119)
(1.05685 1.30663 1.14447)
(1.06484 1.32933 1.10517)
(1.03282 1.33935 1.08804)
(1.08035 1.34184 1.07294)
(1.08256 1.35013 1.02824)
(1.00933 1.16283 1.25404)
(1.02445 1.20526 1.23484)
(1.02537 1.24829 1.2016)
(1.03761 1.2829 1.17183)
(0.980678 1.23713 1.20409)
(1.00409 1.12502 1.26736)
(0.987693 1.07948 1.27205)
(0.975101 1.15671 1.25104)
(0.874587 1.12869 1.22499)
(0.914371 1.11364 1.24759)
(0.939491 1.13743 1.24946)
(0.945487 1.09532 1.26155)
(0.875985 1.17549 1.20662)
(0.84333 1.14777 1.19641)
(0.944258 1.17457 1.23544)
(0.907532 1.198 1.20991)
(0.874953 1.21802 1.18304)
(0.944387 1.21678 1.21037)
(0.756577 1.21949 1.02565)
(0.811137 1.15982 1.16394)
(0.81535 1.20081 1.14441)
(0.793227 1.23478 1.08628)
(0.775707 1.23342 1.05598)
(0.827345 1.26415 1.09361)
(0.820016 1.23623 1.1191)
(0.849087 1.23064 1.15313)
(1.03375 1.35504 1.02792)
(1.00682 1.34752 1.05892)
(0.99285 1.35136 1.03114)
(0.781105 1.2488 1.0301)
(0.815669 1.28263 1.0306)
(0.9004 1.3314 1.03451)
(0.855758 1.30999 1.03378)
(0.840264 1.29005 1.06447)
(0.942733 1.34483 1.03078)
(0.904124 1.16949 0.77205)
(1.03921 1.32151 0.86972)
(0.834504 1.27675 0.911556)
(0.98992 1.19693 0.761363)
(0.85916 1.24041 0.844046)
(0.946275 1.30932 0.868894)
(0.839302 1.16076 0.807648)
(0.935629 1.24657 0.806722)
(0.787792 1.19753 0.877951)
(1.00528 1.27261 0.812745)
(1.01131 1.34922 0.937021)
(0.971256 1.12275 0.736404)
(0.901851 1.3303 0.942262)
(0.766344 1.22674 0.948893)
(0.760335 1.1703 0.90051)
(0.782426 1.16161 0.8641)
(0.742084 1.18779 0.974919)
(0.749982 1.18452 0.935711)
(0.777198 1.21205 0.913785)
(0.814259 1.17891 0.844049)
(0.80864 1.14311 0.829384)
(0.840499 1.13104 0.796427)
(0.91262 1.12043 0.755834)
(0.938514 1.14602 0.754236)
(0.946127 1.09694 0.73918)
(0.980794 1.15969 0.748507)
(0.947877 1.18287 0.767233)
(0.89723 1.24406 0.82525)
(0.920216 1.20786 0.789827)
(0.882663 1.20501 0.808879)
(0.963776 1.22148 0.784932)
(0.872735 1.13537 0.778179)
(0.871815 1.16517 0.789746)
(0.849818 1.2003 0.826289)
(0.764354 1.23063 0.974345)
(0.824166 1.21833 0.861773)
(0.811799 1.23669 0.895077)
(0.847457 1.25858 0.878324)
(0.800767 1.25143 0.9308)
(0.988375 1.08117 0.728428)
(1.00479 1.12669 0.733055)
(1.01444 1.16412 0.745265)
(0.977102 1.29094 0.841567)
(0.971175 1.25936 0.810176)
(0.94144 1.27844 0.838056)
(0.997838 1.23489 0.787442)