/*--------------------------------*- C++ -*----------------------------------*\
| =========                 |                                                 |
| \\      /  F ield         | OpenFOAM: The Open Source CFD Toolbox           |
|  \\    /   O peration     | Version:  v1806                                 |
|   \\  /    A nd           | Web:      www.OpenFOAM.com                      |
|    \\/     M anipulation  |                                                 |
\*---------------------------------------------------------------------------*/
FoamFile
{
    version     2.0;
    format      ascii;
    class       surfaceScalarField;
    location    "0.022";
    object      phi;
}
// * * * * * * * * * * * * * * * * * * * * * * * * * * * * * * * * * * * * * //

dimensions      [0 3 -1 0 0 0 0];
oriented        oriented;


internalField   nonuniform List<scalar> 
187200
(
7.50226e-06
6.36387e-07
-8.13938e-06
3.45874e-05
-1.1493e-05
-1.5592e-05
5.45435e-05
-7.35275e-06
-1.26031e-05
7.46743e-05
-8.1485e-06
-1.19822e-05
9.33608e-05
-6.10818e-06
-1.25783e-05
0.000110226
-3.98447e-06
-1.28804e-05
0.000126222
-1.91072e-06
-1.40861e-05
0.000139613
2.43934e-06
-1.58304e-05
0.000152985
3.80203e-06
-1.71732e-05
0.00015618
1.18973e-05
-1.50932e-05
0.000161121
1.19063e-05
-1.68469e-05
0.000157382
1.9359e-05
-1.56199e-05
0.000142117
2.58222e-05
-1.05574e-05
0.000108307
3.87499e-05
-4.94008e-06
6.07731e-05
4.00398e-05
7.49374e-06
1.18275e-05
2.83518e-05
2.05938e-05
-5.09271e-05
3.32113e-05
2.9543e-05
-0.000122892
5.81621e-05
1.38023e-05
-0.000210615
9.59597e-05
-8.23694e-06
-0.000352767
0.000143013
-8.60386e-07
-0.000507624
0.000180318
-2.5461e-05
-0.000677069
0.000234894
-6.54496e-05
-0.000757221
0.00025657
-0.000176418
-0.000790491
0.000310678
-0.000277408
-0.000760824
0.00033845
-0.000368117
-0.000688525
0.000371411
-0.000443711
-0.000579417
0.000393171
-0.000502278
-0.000441762
0.000402003
-0.000539657
-0.000282348
0.000392338
-0.000551753
-0.000120157
0.000368532
-0.000530722
-8.19917e-07
0.000335324
-0.000454661
7.66565e-05
0.000292348
-0.000369825
0.000102274
0.000229719
-0.000255337
8.98178e-05
0.000171309
-0.000158852
5.94135e-05
0.000120884
-9.04798e-05
3.38438e-05
8.17146e-05
-5.61448e-05
1.44442e-05
5.57419e-05
-3.63419e-05
3.44842e-06
4.1288e-05
-3.0292e-05
-2.69305e-06
3.02544e-05
-2.4113e-05
1.70479e-05
-1.97407e-05
1.283e-05
3.7568e-07
-1.25692e-05
4.87582e-05
-2.44277e-05
-2.29933e-05
8.5228e-05
-1.92201e-05
-2.46023e-05
0.000115253
-1.23277e-05
-2.58456e-05
0.000140464
-3.80415e-06
-2.75153e-05
0.000152293
1.60396e-05
-3.18534e-05
0.000158602
2.94141e-05
-3.76338e-05
0.000156657
4.79297e-05
-4.35453e-05
0.000145798
6.82121e-05
-5.35512e-05
0.000126996
8.99764e-05
-5.92774e-05
8.9041e-05
0.000124042
-7.4181e-05
3.17895e-05
0.000168029
-9.14188e-05
-4.9872e-05
0.0002043
-9.68167e-05
-0.000154609
0.000249691
-0.000106204
-0.000299265
0.00031222
-0.000127525
-0.000492319
0.000388958
-0.000167553
-0.000697491
0.000466381
-0.000227997
-0.000901135
0.000551267
-0.000289462
-0.00107856
0.000637517
-0.000364131
-0.00123732
0.000742095
-0.000440328
-0.00134379
0.000822382
-0.000535592
-0.00143079
0.000938003
-0.000616103
-0.00144819
0.0010075
-0.00073353
-0.00141358
0.00109188
-0.00081581
-0.00131549
0.00113396
-0.00089359
-0.00116113
0.00116497
-0.00094792
-0.000964109
0.00116929
-0.000973144
-0.000736314
0.00114239
-0.000968178
-0.000511305
0.0010884
-0.000921068
-0.000286854
0.000995428
-0.000851347
-9.86568e-05
0.000872348
-0.000725221
6.11922e-05
0.000733427
-0.000600927
0.000135528
0.000592847
-0.000437462
0.000158759
0.000460251
-0.000312173
0.000141067
0.000343468
-0.000204892
0.000108014
0.000256208
-0.000141439
7.42285e-05
0.000189847
-0.000100319
4.66611e-05
0.000146517
-7.76618e-05
1.93119e-05
0.000113842
-5.62384e-05
7.12978e-05
-3.49376e-05
1.95802e-05
-5.80555e-06
-1.33989e-05
5.78399e-05
-3.14393e-05
-3.12479e-05
9.76767e-05
-1.93597e-05
-3.96971e-05
0.000123069
3.97939e-06
-4.16996e-05
0.000141949
2.55167e-05
-4.81999e-05
0.00014514
6.80017e-05
-5.51536e-05
0.000139503
9.99494e-05
-6.48983e-05
0.000122759
0.0001505
-8.58267e-05
9.64962e-05
0.000206337
-0.000111862
4.18599e-05
0.00027932
-0.000134707
-4.64294e-05
0.000360718
-0.000148386
-0.000157851
0.000445382
-0.000165932
-0.000326989
0.000553449
-0.000180011
-0.000518133
0.000656735
-0.000215901
-0.000723741
0.000769598
-0.000251771
-0.000915228
0.000876059
-0.000295615
-0.0010946
0.000987607
-0.00034185
-0.00125987
0.00111062
-0.000394083
-0.00140282
0.00123072
-0.000450257
-0.00151871
0.00136086
-0.000502878
-0.00160254
0.00147179
-0.000565578
-0.00164801
0.00158157
-0.000598092
-0.00163935
0.00165538
-0.000656554
-0.00158054
0.00171762
-0.000684544
-0.00147358
0.00173872
-0.000711726
-0.00132386
0.00173423
-0.00071899
-0.00114453
0.00169411
-0.000704149
-0.000945286
0.00161513
-0.000671986
-0.000736998
0.00150594
-0.000625829
-0.000528828
0.00135561
-0.000568354
-0.000352208
0.00119543
-0.000499702
-0.000202655
0.00100604
-0.000422165
-8.46987e-05
0.000816643
-0.000341751
-2.79124e-06
0.00064865
-0.000270306
3.32915e-05
0.000504604
-0.000197218
4.55294e-05
0.000397973
-0.000154003
4.55858e-05
0.000311499
-0.000121708
3.72257e-05
0.000253883
-9.90061e-05
1.73271e-05
0.000203277
-6.9536e-05
0.000125762
-3.71365e-05
2.01196e-05
-4.64715e-06
-2.12779e-05
5.87989e-05
-2.27215e-05
-4.73971e-05
9.84266e-05
3.65991e-06
-6.26472e-05
0.000124802
4.25463e-05
-6.49423e-05
0.000133716
9.31229e-05
-7.65194e-05
0.000122869
0.00017014
-9.1291e-05
0.000103052
0.000233813
-0.000114048
6.92471e-05
0.000329107
-0.000144802
1.04046e-05
0.000436937
-0.000171758
-7.62618e-05
0.000552386
-0.000186401
-0.000198804
0.000680857
-0.000197598
-0.000359093
0.00081065
-0.000204979
-0.000527059
0.000941642
-0.000220226
-0.00069247
0.00106289
-0.000240742
-0.000856357
0.00119592
-0.000262437
-0.00101578
0.00131848
-0.000283001
-0.00116502
0.00143881
-0.000301963
-0.00129321
0.00155685
-0.00031804
-0.00140012
0.00166716
-0.000329533
-0.0014862
0.0017743
-0.000327357
-0.00154397
0.00185713
-0.00032757
-0.00158669
0.00192727
-0.000302975
-0.00157877
0.00195704
-0.000309586
-0.00153455
0.00196731
-0.000293906
-0.00145338
0.00194122
-0.000283672
-0.00134309
0.00189031
-0.000266366
-0.00121434
0.00180914
-0.000243776
-0.00107183
0.00169592
-0.000223303
-0.000919761
0.00155591
-0.000202035
-0.000761965
0.00139161
-0.000193794
-0.000593179
0.00121888
-0.000192238
-0.000430782
0.00104266
-0.000199016
-0.000296409
0.000874858
-0.000192587
-0.000178648
0.000719498
-0.00018861
-9.21881e-05
0.000585323
-0.000167179
-3.12126e-05
0.000487478
-0.00015048
5.85617e-06
0.000406058
-0.000131627
2.2243e-05
0.000346969
-0.000109472
1.53738e-05
0.000285599
-7.54528e-05
0.000177695
-3.65597e-05
2.03366e-05
1.18308e-05
-3.68147e-05
6.48453e-05
1.27842e-05
-8.00143e-05
0.000103131
6.14399e-05
-9.6066e-05
0.000129512
0.000120234
-0.000104068
0.000124969
0.000206223
-0.000108557
0.000108332
0.00031123
-0.000124454
7.2358e-05
0.000422488
-0.000152701
2.92155e-05
0.000559103
-0.000186853
-3.41774e-05
0.000697598
-0.000197269
-0.000122825
0.000845154
-0.000204121
-0.000235557
0.000996546
-0.000202958
-0.000374585
0.00114393
-0.000194248
-0.000522034
0.00128269
-0.000193599
-0.000670357
0.00140329
-0.000192076
-0.000799493
0.00150999
-0.000184929
-0.000920273
0.00160944
-0.000170181
-0.00103047
0.00169955
-0.000150549
-0.00112332
0.0017765
-0.000126796
-0.00120839
0.0018334
-8.11691e-05
-0.0012811
0.00188237
-3.53693e-05
-0.00133634
0.0019073
5.07773e-06
-0.00140086
0.0019327
5.90832e-05
-0.0014127
0.00189683
7.20569e-05
-0.00140092
0.00186236
9.31684e-05
-0.00136228
0.00181392
8.86676e-05
-0.00130845
0.00174968
8.6795e-05
-0.00124097
0.00166392
7.77387e-05
-0.00116792
0.00155796
6.48965e-05
-0.00107981
0.00143105
3.67543e-05
-0.000966672
0.00128787
-9.3957e-06
-0.000831656
0.00113901
-5.51414e-05
-0.000679783
0.000988062
-9.72795e-05
-0.000519899
0.000852409
-0.000137435
-0.000372181
0.00072863
-0.00015685
-0.000246595
0.000626944
-0.000167208
-0.000139631
0.000544785
-0.00016427
-5.89765e-05
0.000473928
-0.000148524
-9.61356e-06
0.000417895
-0.00012029
8.97344e-06
0.000347428
-8.04153e-05
0.000219947
-3.32786e-05
2.05802e-05
5.42874e-05
-6.3037e-05
6.31094e-05
8.74797e-05
-0.000117225
0.000119685
0.000147663
-0.000142799
0.000140183
0.00023571
-0.000135974
0.000127554
0.000354759
-0.000135907
0.000106161
0.000484564
-0.000151942
7.8191e-05
0.000636678
-0.000186219
4.51386e-05
0.000794824
-0.000202669
-1.44529e-05
0.000955232
-0.000198042
-9.23818e-05
0.00110919
-0.000186104
-0.000184436
0.00125676
-0.000168158
-0.000281053
0.00138679
-0.000146249
-0.000376614
0.00150083
-0.000122583
-0.000480485
0.00160223
-9.50719e-05
-0.000593342
0.00168269
-5.98429e-05
-0.0007115
0.00173125
-3.65295e-06
-0.000805941
0.00174994
4.40498e-05
-0.000887211
0.00176866
8.91044e-05
-0.000964234
0.00177242
0.000138004
-0.00104032
0.00176498
0.000193473
-0.00110008
0.00173933
0.000227733
-0.00117529
0.00174467
0.000263234
-0.00121666
0.00166958
0.000268616
-0.0012498
0.00161239
0.000283118
-0.00126241
0.00154882
0.000277704
-0.00126566
0.0014863
0.000266634
-0.0012573
0.001415
0.000240562
-0.00124392
0.00133571
0.000208873
-0.00121282
0.00124159
0.00015836
-0.00114065
0.00114351
7.21803e-05
-0.00103593
0.00103302
1.27008e-06
-0.00089654
0.000920702
-7.20328e-05
-0.000732639
0.000814555
-0.000126049
-0.000555562
0.000721157
-0.000169603
-0.000386549
0.000641993
-0.000184063
-0.000231261
0.000578934
-0.000189438
-0.000111538
0.000524702
-0.000170497
-3.43327e-05
0.000474833
-0.000134144
3.96083e-06
0.000397586
-8.84515e-05
0.000256125
-3.22177e-05
3.0362e-05
0.000119838
-9.59125e-05
9.41427e-05
0.000189481
-0.000165781
0.000161681
0.000268786
-0.00018866
0.000175253
0.000387481
-0.000165344
0.000162747
0.000527099
-0.000159833
0.000147134
0.000679547
-0.00017937
0.000130528
0.000850935
-0.000197652
0.000103165
0.00101347
-0.000191285
5.55661e-05
0.00116973
-0.000166903
-6.47236e-06
0.00131125
-0.000140023
-7.74146e-05
0.00143585
-0.000108152
-0.000153854
0.00153758
-7.43476e-05
-0.000232486
0.00161856
-3.90919e-05
-0.000310813
0.00167006
1.04978e-05
-0.000382423
0.00169288
6.14198e-05
-0.000460639
0.00169511
0.000114365
-0.000555581
0.0016747
0.000170184
-0.000647111
0.00163886
0.000221334
-0.000735721
0.00158792
0.000273114
-0.000820905
0.00153441
0.000315751
-0.000902688
0.00147739
0.000343714
-0.00098876
0.0014597
0.000371042
-0.00105833
0.00137673
0.000362417
-0.00112781
0.0013243
0.000357572
-0.001183
0.00126588
0.000338128
-0.00123579
0.00122863
0.000310464
-0.00127689
0.00118706
0.000269045
-0.00130903
0.00114097
0.000226877
-0.00132059
0.00108528
0.000167868
-0.0012851
0.00102442
8.36058e-05
-0.00120523
0.000949746
3.40142e-06
-0.00108319
0.000866792
-6.81304e-05
-0.000916005
0.00078423
-0.000136862
-0.000722265
0.000712004
-0.000184587
-0.000516985
0.000654919
-0.000218206
-0.000326203
0.000607681
-0.000219529
-0.000168904
0.000570204
-0.000202801
-5.99386e-05
0.000523742
-0.000157875
-3.33249e-06
0.000441799
-0.000100818
0.000287541
-3.47495e-05
3.11161e-05
0.000215203
-0.000126481
0.000128141
0.000309424
-0.000216968
0.000205186
0.000418382
-0.000226641
0.000228866
0.00055743
-0.000193628
0.000221374
0.000711408
-0.000176817
0.000212545
0.000870993
-0.000182618
0.000207467
0.00103744
-0.000181427
0.000192537
0.00118914
-0.000160735
0.000156591
0.00133104
-0.000125363
0.000107938
0.0014463
-8.6398e-05
5.19277e-05
0.00154125
-4.93891e-05
-1.28729e-05
0.00160589
-3.50543e-06
-8.09856e-05
0.00164052
4.61458e-05
-0.0001496
0.00164407
9.46044e-05
-0.000224676
0.00161929
0.000148659
-0.000300624
0.0015696
0.000201454
-0.000381479
0.00150109
0.00025447
-0.000477109
0.00143248
0.000302013
-0.00057401
0.00134951
0.000335302
-0.000674196
0.00128309
0.000351512
-0.000773518
0.00121921
0.000357509
-0.000855246
0.00118217
0.000359267
-0.00094123
0.00111939
0.00034333
-0.00104149
0.00109332
0.000331238
-0.00113748
0.0010496
0.000312265
-0.00122374
0.00102918
0.000285714
-0.00129665
0.00101604
0.000243926
-0.00135596
0.000990143
0.000210135
-0.00139598
0.000961239
0.000164066
-0.00139485
0.000918161
0.000105131
-0.00134193
0.000863682
3.31396e-05
-0.00123774
0.00079905
-3.64476e-05
-0.0010735
0.000735306
-0.000115322
-0.000873615
0.000684088
-0.000171965
-0.000647617
0.000645221
-0.000216299
-0.000418573
0.0006244
-0.000245764
-0.000221563
0.000599908
-0.000226714
-8.31538e-05
0.000565858
-0.000180526
-9.74574e-06
0.000483614
-0.000115223
0.000316654
-3.88583e-05
5.3318e-05
0.000314469
-0.000152584
0.000174074
0.000445713
-0.000257045
0.000266449
0.00058728
-0.000261273
0.000301964
0.000733926
-0.000212012
0.000305114
0.000887077
-0.000178819
0.000298604
0.00104229
-0.000164785
0.000293192
0.00119257
-0.000149716
0.000287259
0.00132112
-0.000126048
0.000271957
0.00143484
-8.84968e-05
0.000231062
0.00152612
-3.89247e-05
0.000179328
0.00157974
1.32417e-05
0.00011629
0.00160006
6.88658e-05
4.89268e-05
0.00159471
0.000113177
-2.21061e-05
0.00155449
0.000160613
-9.8919e-05
0.00148905
0.000207052
-0.000178975
0.00140137
0.000248289
-0.000277898
0.00131259
0.000287417
-0.000378852
0.00121508
0.000318356
-0.000490448
0.0011313
0.000329809
-0.000598951
0.0010682
0.000323396
-0.000696068
0.00100547
0.00031085
-0.000780937
0.000968274
0.000298761
-0.000877449
0.000932901
0.000282997
-0.000984336
0.000924279
0.000275929
-0.00110833
0.000911306
0.000262288
-0.0012146
0.000887601
0.000247849
-0.00131096
0.000889255
0.000223146
-0.0013881
0.000875981
0.000191309
-0.00145215
0.000854336
0.00017095
-0.00148268
0.00081632
0.000132368
-0.00145723
0.000769075
6.91583e-05
-0.00136533
0.000715457
-8.31148e-06
-0.00120386
0.000660594
-8.67572e-05
-0.000990618
0.000621997
-0.000151147
-0.000747105
0.000607401
-0.000205695
-0.000501677
0.000612829
-0.000233857
-0.000276582
0.00061833
-0.000243517
-0.000107365
0.000596148
-0.000199507
-1.66497e-05
0.000521791
-0.000128892
0.000344472
-4.44679e-05
6.85912e-05
0.000413515
-0.000167637
0.000208768
0.000597554
-0.000292018
0.000327314
0.000756112
-0.000287379
0.000384489
0.000897339
-0.000220588
0.000399802
0.00103991
-0.000168151
0.000396024
0.00117848
-0.00013241
0.000385913
0.00130891
-0.000106234
0.000376249
0.0014176
-8.68191e-05
0.000359411
0.00149572
-4.40362e-05
0.000336642
0.0015438
5.08775e-06
0.000293667
0.00156784
5.4882e-05
0.000222157
0.00155946
0.000112111
0.000150266
0.00151069
0.00015591
7.30616e-05
0.00143414
0.000197551
-1.20097e-05
0.00134087
0.000233259
-0.000104195
0.00123163
0.000261924
-0.000213651
0.00113561
0.000286439
-0.000328302
0.00103345
0.000296279
-0.000447997
0.000963456
0.00028754
-0.000547238
0.000902514
0.000264923
-0.000644686
0.00085714
0.000245782
-0.00074296
0.000832075
0.000234473
-0.000848556
0.000813751
0.000224746
-0.000950503
0.000799877
0.000226349
-0.0010737
0.000807602
0.000226904
-0.00119486
0.000784987
0.000223768
-0.00129765
0.000778368
0.000213679
-0.00139461
0.000770658
0.000202283
-0.00148091
0.000743706
0.000196929
-0.00153094
0.000704721
0.000161635
-0.0015326
0.000664457
0.000106274
-0.00146368
0.000625409
2.11317e-05
-0.00132135
0.000587269
-6.90135e-05
-0.00110536
0.000553767
-0.000147752
-0.000849575
0.000541679
-0.000190069
-0.000577729
0.000559492
-0.00021851
-0.000322664
0.000606838
-0.000243572
-0.000130992
0.000610991
-0.000206515
-2.33711e-05
0.000553065
-0.000138896
0.000369315
-4.82139e-05
8.32247e-05
0.000503346
-0.000173056
0.000248808
0.00074366
-0.000311689
0.000395144
0.000913867
-0.000304092
0.000472242
0.00104402
-0.000223785
0.000499709
0.00116711
-0.000154661
0.000497819
0.00128152
-0.00010115
0.000485611
0.0013879
-6.67769e-05
0.000466831
0.0014674
-3.10179e-05
0.000435347
0.00152155
5.64583e-06
0.000395203
0.00154477
3.91763e-05
0.000355314
0.00152719
8.05293e-05
0.000297325
0.00148071
0.00013674
0.000223727
0.00140857
0.00017572
0.000135037
0.00131195
0.000210888
4.30994e-05
0.0011976
0.000235202
-6.66475e-05
0.00108753
0.000253848
-0.000180273
0.000987421
0.000261812
-0.000304129
0.000899867
0.000257437
-0.000410895
0.000837399
0.000232823
-0.00050898
0.000793276
0.000207324
-0.000608663
0.000761774
0.000195048
-0.000707189
0.000740371
0.00019023
-0.000807501
0.000726521
0.000187542
-0.00091163
0.000705983
0.000198023
-0.0010185
0.000703504
0.000210966
-0.00114641
0.000692024
0.000220875
-0.00126142
0.000663498
0.000229879
-0.00137687
0.000651656
0.000234456
-0.00148151
0.00062961
0.000218734
-0.0015573
0.000598877
0.000181627
-0.00158901
0.000569974
0.000126202
-0.00154672
0.000539173
4.3941e-05
-0.00142248
0.000505336
-4.23111e-05
-0.00120445
0.000477299
-0.000141561
-0.000928235
0.000464568
-0.000199102
-0.00063927
0.000494817
-0.000224289
-0.000373689
0.000555125
-0.000213868
-0.000155615
0.000611838
-0.000218921
-2.94637e-05
0.000572199
-0.000145286
0.000393722
-5.38709e-05
9.36083e-05
0.000579049
-0.000169312
0.000285105
0.000872108
-0.000319945
0.00045829
0.00105194
-0.000311256
0.000553921
0.00117009
-0.000221697
0.000593027
0.00127011
-0.000142109
0.000594931
0.00135466
-7.50496e-05
0.000581862
0.00143174
-3.07714e-05
0.000554039
0.00148478
1.04434e-05
0.000509162
0.00151194
5.44954e-05
0.000455569
0.00150588
9.24818e-05
0.000394967
0.00146865
0.000119142
0.000327516
0.00139859
0.000149564
0.000255803
0.00129837
0.000181916
0.000172305
0.00118857
0.000206876
7.28111e-05
0.00107597
0.000221126
-4.56685e-05
0.000972061
0.000233948
-0.00016723
0.000876311
0.000232672
-0.00027997
0.000800103
0.000212504
-0.000382434
0.00075401
0.000185852
-0.00047747
0.000718219
0.000170093
-0.000569281
0.000688743
0.000164843
-0.000659322
0.000663934
0.000166478
-0.000747532
0.000645488
0.000169244
-0.000848123
0.000620151
0.000186423
-0.000948685
0.0005967
0.000207366
-0.0010648
0.000587852
0.000220282
-0.00119643
0.000554138
0.000240998
-0.00131681
0.000523664
0.000248364
-0.00144079
0.000518306
0.000235285
-0.00154127
0.000495644
0.000203719
-0.00160389
0.000481069
0.000151521
-0.00159055
0.000461581
6.42522e-05
-0.0014976
0.000421999
-9.61439e-06
-0.00131476
0.000392815
-9.83539e-05
-0.00103255
0.000384332
-0.000201979
-0.000708947
0.000413784
-0.000242566
-0.000406548
0.000480226
-0.0002275
-0.000175385
0.000576494
-0.000195818
-3.59586e-05
0.000580899
-0.000148127
0.000413621
-5.58595e-05
0.00010184
0.00063626
-0.000159051
0.000315775
0.000978548
-0.000320375
0.00051454
0.00116725
-0.000314082
0.000628619
0.00127091
-0.000214897
0.000676038
0.00134692
-0.000124233
0.000679342
0.00140562
-5.426e-05
0.000665445
0.00145081
-5.17173e-06
0.000629643
0.00147402
4.65555e-05
0.00057765
0.00147576
8.8172e-05
0.000511866
0.00144939
0.000122273
0.000436467
0.0013934
0.000150657
0.000355366
0.00130787
0.000171821
0.00026965
0.00120156
0.000182521
0.000182456
0.0010828
0.000192962
7.99464e-05
0.000975998
0.000202482
-2.91417e-05
0.000872087
0.000209062
-0.000144869
0.000791913
0.000200124
-0.000257333
0.000738211
0.000174355
-0.000353165
0.000692635
0.000157209
-0.000438349
0.000655319
0.000148083
-0.000518089
0.00062192
0.000146563
-0.000595149
0.000588509
0.000152484
-0.000669504
0.000561173
0.00015867
-0.000761771
0.000533033
0.000179385
-0.000859251
0.000498539
0.000195641
-0.000961849
0.000473507
0.000216942
-0.00109504
0.000450277
0.000237049
-0.00122748
0.000408809
0.000247297
-0.00135046
0.000398581
0.000242706
-0.00147331
0.000401857
0.00021664
-0.00157071
0.000394408
0.00018406
-0.00160198
0.000360034
0.000132814
-0.00155241
0.000316541
5.58851e-05
-0.00140455
0.000274943
-2.99808e-05
-0.00114489
0.000261859
-0.00013719
-0.00080177
0.000301517
-0.000230853
-0.000461127
0.000398014
-0.000258431
-0.000198842
0.000502499
-0.00018829
-4.20811e-05
0.000573959
-0.00014982
0.000432978
-6.14388e-05
0.000107443
0.000672793
-0.000143975
0.000340439
0.00105944
-0.00031389
0.000559211
0.0012586
-0.000310115
0.000689301
0.0013508
-0.000209979
0.000746096
0.00140272
-0.000112587
0.00075133
0.00143492
-3.45335e-05
0.000734619
0.00145104
1.64821e-05
0.000689558
0.00144775
7.13299e-05
0.000632298
0.00142531
0.000107709
0.000560609
0.00138012
0.000140955
0.000475998
0.00131106
0.000166944
0.000380966
0.00121876
0.000184148
0.000281068
0.00111339
0.000188063
0.000181259
0.000997269
0.000185341
7.67407e-05
0.000892794
0.000187722
-2.95229e-05
0.000791493
0.000186858
-0.000138312
0.000732433
0.00016827
-0.000232624
0.000682155
0.000150368
-0.00031459
0.000635296
0.000139305
-0.000389331
0.00059355
0.000136511
-0.000456185
0.000554011
0.000134763
-0.000519909
0.000511495
0.000140738
-0.000579188
0.000472184
0.000148269
-0.000659429
0.000444348
0.000168926
-0.000746029
0.000400099
0.00018504
-0.000844668
0.000369265
0.000202881
-0.000957365
0.000341392
0.000221582
-0.00110339
0.000313895
0.000240939
-0.00122606
0.00028315
0.000238104
-0.00137699
0.000312651
0.000240137
-0.00149159
0.000288666
0.000220342
-0.0015686
0.000242754
0.000194284
-0.00156903
0.000179931
0.000137042
-0.00147031
0.000122087
5.41384e-05
-0.00124242
9.36142e-05
-5.96446e-05
-0.000906724
0.000134863
-0.000169044
-0.000520869
0.000263129
-0.000250969
-0.000223891
0.000429609
-0.000224089
-4.83236e-05
0.000541092
-0.0001427
0.00045021
-6.55563e-05
0.00010838
0.000688737
-0.000124324
0.000354803
0.00111052
-0.000297505
0.000593132
0.00132212
-0.000301855
0.000740797
0.00140661
-0.000203473
0.000804119
0.00143858
-9.91814e-05
0.000807019
0.00144736
-1.53407e-05
0.000784389
0.00143393
3.9733e-05
0.000738802
0.00141054
8.28061e-05
0.000677759
0.00137079
0.000115557
0.000596492
0.00130989
0.000151498
0.000502814
0.0012313
0.000173442
0.000401973
0.00113176
0.000187837
0.00030487
0.0010196
0.000190896
0.000206603
0.000909921
0.000185616
0.000103369
0.000817364
0.000178663
-1.84741e-05
0.000740994
0.000172343
-0.000114935
0.000679383
0.000149511
-0.000196423
0.000627738
0.000135905
-0.00026881
0.000577928
0.000129755
-0.00033256
0.000529819
0.000127482
-0.000389079
0.000485596
0.000124935
-0.00044246
0.000437776
0.0001271
-0.000491683
0.000387848
0.000133558
-0.000558701
0.000359475
0.000151891
-0.00063443
0.00031373
0.000162098
-0.000722784
0.000275618
0.000182
-0.000823599
0.000231357
0.000210851
-0.000949197
0.000200456
0.000239037
-0.00108521
0.000164383
0.000254779
-0.00122525
0.000191371
0.000261318
-0.00136983
0.000168796
0.000264456
-0.0014821
0.000114945
0.000240074
-0.00153405
4.23419e-05
0.000189541
-0.00148733
-3.53517e-05
0.000110715
-0.00131495
-8.95279e-05
1.0763e-05
-0.00101202
-6.93185e-05
-9.87452e-05
-0.000606689
6.08439e-05
-0.000203048
-0.000249071
0.000317168
-0.000245178
-5.82545e-05
0.000487285
-0.000137009
0.000457776
-6.58203e-05
0.000113065
0.000662212
-8.65407e-05
0.000368731
0.00112345
-0.000268588
0.000618709
0.001352
-0.000279855
0.000780293
0.00143183
-0.000186812
0.000851996
0.00144818
-8.13065e-05
0.000852897
0.0014344
1.20583e-05
0.000826223
0.00139967
6.09374e-05
0.000774115
0.00136188
0.000100766
0.000705215
0.00131053
0.00012917
0.000624147
0.00123879
0.000152174
0.000532086
0.00114925
0.000174106
0.00043669
0.00104535
0.000181805
0.000337208
0.000939277
0.000179808
0.000229437
0.000841902
0.00017579
0.0001179
0.000752786
0.000176116
1.01205e-05
0.000684794
0.00016398
-7.64798e-05
0.000622626
0.000143357
-0.000148597
0.000570209
0.000129647
-0.000214178
0.000519108
0.000124401
-0.000270698
0.000465677
0.000120661
-0.000321393
0.000418939
0.000117353
-0.000367609
0.000369042
0.00011495
-0.000411485
0.000313596
0.000118127
-0.000464465
0.000283224
0.000129229
-0.000525929
0.000237693
0.000137501
-0.000599693
0.000190569
0.000158813
-0.000698155
0.000138998
0.000190821
-0.000802874
8.73912e-05
0.000217783
-0.00094163
5.14986e-05
0.00025164
-0.00107226
4.39858e-05
0.000278015
-0.00121397
2.25329e-05
0.000287969
-0.00135435
-1.5453e-05
0.000270778
-0.00144957
-9.43068e-05
0.000231875
-0.00145874
-0.000190812
0.000164629
-0.00134504
-0.00027399
7.07587e-05
-0.00108628
-0.0002875
-4.05701e-05
-0.000707037
-0.000176964
-0.00014144
-0.000299359
0.00011425
-0.00020476
-6.47321e-05
0.000410881
-0.000158224
0.00045576
-6.27157e-05
0.000106227
0.000606231
-5.02452e-05
0.000363057
0.00111002
-0.000243408
0.000627275
0.00135298
-0.000265197
0.000807948
0.00143156
-0.000180396
0.000884393
0.00143451
-6.27733e-05
0.000885722
0.00140541
2.76541e-05
0.000852422
0.00134996
8.30079e-05
0.000794017
0.00130224
0.000118046
0.000728821
0.00123413
0.00014159
0.000657532
0.00115047
0.000159604
0.000570234
0.00106318
0.000173377
0.000468736
0.000968549
0.000178299
0.00036238
0.000876165
0.000169468
0.000258664
0.000784131
0.000161486
0.000157615
0.000693785
0.00016005
5.66039e-05
0.000625606
0.0001602
-2.89935e-05
0.000564781
0.000143443
-9.68767e-05
0.000508884
0.000129208
-0.000155383
0.000458425
0.00011919
-0.00020959
0.000404607
0.000115277
-0.000255937
0.000354499
0.000110787
-0.000300094
0.000306743
0.000106456
-0.000343363
0.000251542
0.000105323
-0.000386144
0.000216771
0.000109234
-0.000440694
0.00017468
0.000117562
-0.000506655
0.000117801
0.000138729
-0.000584602
5.42742e-05
0.00016267
-0.000678504
-8.25239e-07
0.000182118
-0.000786965
-5.3733e-05
0.000213693
-0.000922133
-8.11739e-05
0.000260328
-0.00107162
-0.000113111
0.000285133
-0.00121698
-0.000166613
0.000296524
-0.00133039
-0.000253689
0.000272793
-0.00138586
-0.000355679
0.000220334
-0.00133206
-0.00046954
0.000141746
-0.00112885
-0.000536038
4.5332e-05
-0.000773614
-0.000459788
-7.24141e-05
-0.000361696
-0.000150092
-0.000147576
-6.67376e-05
0.000280333
-0.000164411
0.000438426
-4.9404e-05
0.000118149
0.000489833
-1.75072e-06
0.000369398
0.00105523
-0.000196459
0.000639868
0.00131864
-0.00023613
0.000829682
0.00140278
-0.000161035
0.000911378
0.00139823
-4.54167e-05
0.000916284
0.00135533
4.51814e-05
0.000884683
0.00128151
0.000100058
0.00084045
0.00121522
0.000131253
0.000781978
0.00114172
0.000150881
0.000701288
0.00106611
0.000165053
0.000601556
0.000987928
0.00017498
0.000492992
0.000901944
0.000175169
0.000386405
0.000812386
0.000170366
0.000289766
0.000724546
0.000156224
0.00019853
0.00064376
0.000141261
0.000106485
0.000573741
0.000143909
2.57478e-05
0.000503851
0.000141667
-4.55157e-05
0.000450543
0.000129604
-0.000100946
0.000398279
0.000115577
-0.000152646
0.000347016
0.000109291
-0.00019701
0.000295681
0.000103182
-0.000240631
0.000251139
9.92232e-05
-0.000284508
0.000199818
9.5601e-05
-0.000322205
0.000159393
9.50749e-05
-0.000368993
0.000119221
0.000102246
-0.000422355
5.41046e-05
0.000117059
-0.000495417
-2.97511e-06
0.000130311
-0.000575401
-6.39094e-05
0.000143067
-0.000675891
-0.00012391
0.000170667
-0.000776321
-0.000187343
0.0002066
-0.000905647
-0.000243225
0.000259439
-0.00104372
-0.000314336
0.000285795
-0.00119729
-0.000394937
0.000294813
-0.00129125
-0.00053038
0.000268671
-0.00129227
-0.000683075
0.000214547
-0.00115637
-0.000800417
0.000128483
-0.000845673
-0.00079243
2.19441e-05
-0.000426057
-0.000484392
-8.53166e-05
-7.78263e-05
5.62476e-05
-0.000124146
0.000390618
-3.00186e-05
0.000124592
0.000356655
8.58614e-06
0.000344931
0.000996666
-0.000161773
0.000622951
0.00126174
-0.00022112
0.000825336
0.0013497
-0.000149308
0.00092616
0.00133284
-3.54408e-05
0.00095525
0.00127026
5.59758e-05
0.000925067
0.00119565
0.000116043
0.000873253
0.00112885
0.000138178
0.000796231
0.00106396
0.000154781
0.000708255
0.000989434
0.000164651
0.000615563
0.00091047
0.000170149
0.000518512
0.000829186
0.000169811
0.000419306
0.000745467
0.000166124
0.000326284
0.000666551
0.000151016
0.000241763
0.000592374
0.000135907
0.000165804
0.000525628
0.000124073
8.21417e-05
0.000460261
0.000127252
9.96689e-06
0.000395773
0.000126946
-4.75132e-05
0.000341042
0.000114718
-9.89895e-05
0.000296354
0.000102138
-0.000145894
0.000246608
9.59777e-05
-0.000188273
0.000203091
9.04268e-05
-0.000231878
0.000156191
8.72318e-05
-0.000269805
0.000112798
8.45212e-05
-0.000309946
6.67098e-05
9.26517e-05
-0.000363473
5.69376e-06
0.000101938
-0.000422784
-5.06175e-05
0.000106954
-0.000491208
-0.000112165
0.00011668
-0.000573652
-0.00017625
0.000134784
-0.000680566
-0.000245581
0.000165152
-0.000796457
-0.00032773
0.000200397
-0.000919837
-0.000442797
0.000251841
-0.00103535
-0.000557206
0.000277787
-0.0011447
-0.000706563
0.000285524
-0.00120711
-0.000872728
0.00025207
-0.00113845
-0.00104878
0.000179691
-0.000913177
-0.00110353
8.58298e-05
-0.000495822
-0.000884518
-1.72292e-05
-0.000107712
-0.00026362
-6.82435e-05
0.000266691
1.62131e-05
9.03761e-05
0.000262065
4.21347e-06
0.000332756
0.000903795
-0.000149509
0.000609855
0.0011882
-0.000203565
0.000822592
0.0012857
-0.000148739
0.000928611
0.00126856
-4.17393e-05
0.000952755
0.00119871
4.7407e-05
0.000911869
0.00112257
0.000113958
0.000862213
0.00104103
0.000137474
0.000799805
0.000974791
0.000151581
0.000724709
0.000904896
0.000159634
0.000640065
0.000832954
0.000162161
0.000549672
0.000759429
0.00016015
0.000456911
0.00068384
0.000154388
0.000367352
0.000611745
0.000144365
0.000283355
0.000542118
0.000134252
0.000210291
0.000480156
0.000118537
0.000142695
0.000418073
0.000109785
7.11076e-05
0.00035796
0.000109401
1.55168e-06
0.000300955
0.000109643
-4.96454e-05
0.000249557
9.79938e-05
-9.90198e-05
0.000205014
9.09689e-05
-0.000140731
0.000161064
8.37369e-05
-0.000184703
0.000119596
8.05668e-05
-0.0002217
7.10691e-05
7.87257e-05
-0.000262046
2.04408e-05
8.66142e-05
-0.000312554
-3.36489e-05
8.98511e-05
-0.000363401
-9.21135e-05
9.23422e-05
-0.000424031
-0.000152069
0.000100535
-0.000495175
-0.000217962
0.000112856
-0.000577467
-0.000294832
0.000131543
-0.000680877
-0.000388613
0.000164292
-0.000820847
-0.0005016
0.000198774
-0.000963428
-0.0006599
0.000245274
-0.00107415
-0.00086374
0.000267896
-0.00112599
-0.00107892
0.000258027
-0.00109523
-0.0012981
0.000218575
-0.000913494
-0.00141292
0.000127657
-0.000568586
-0.00126678
3.73541e-05
-0.00013948
-0.000662923
-2.98011e-05
7.62804e-05
5.09313e-05
6.92363e-05
0.000195996
-3.16742e-06
0.000310624
0.000795878
-0.000133471
0.000579473
0.00110307
-0.000183716
0.000803716
0.00121211
-0.000150651
0.00092334
0.00119744
-4.85036e-05
0.000959748
0.00112358
3.87262e-05
0.000935831
0.00104129
0.000105201
0.000889555
0.000958024
0.000129285