/*--------------------------------*- C++ -*----------------------------------*\
| =========                 |                                                 |
| \\      /  F ield         | OpenFOAM: The Open Source CFD Toolbox           |
|  \\    /   O peration     | Version:  v1806                                 |
|   \\  /    A nd           | Web:      www.OpenFOAM.com                      |
|    \\/     M anipulation  |                                                 |
\*---------------------------------------------------------------------------*/
FoamFile
{
    version     2.0;
    format      ascii;
    class       surfaceScalarField;
    location    "0.0845";
    object      phi;
}
// * * * * * * * * * * * * * * * * * * * * * * * * * * * * * * * * * * * * * //

dimensions      [0 3 -1 0 0 0 0];
oriented        oriented;


internalField   nonuniform List<scalar> 
187200
(
7.29775e-06
2.58881e-06
-9.88784e-06
5.2153e-05
-2.25962e-05
-2.22591e-05
7.43532e-05
-1.02747e-05
-1.19253e-05
9.36245e-05
-9.47251e-06
-9.79866e-06
0.000109336
-5.84985e-06
-9.86105e-06
0.000126337
-5.01562e-06
-1.19853e-05
0.000141477
-7.60397e-07
-1.43794e-05
0.000158297
5.66815e-07
-1.73863e-05
0.000171689
5.20188e-06
-1.85947e-05
0.000184083
6.50039e-06
-1.88938e-05
0.000196009
7.74418e-06
-1.96711e-05
0.000203957
1.26845e-05
-2.06325e-05
0.000195544
2.19924e-05
-1.358e-05
0.000167987
3.61052e-05
-8.54829e-06
0.000123506
4.46904e-05
-2.09999e-07
8.51962e-05
2.93006e-05
9.00829e-06
3.22038e-05
3.18816e-05
2.11104e-05
-1.94242e-05
4.55026e-05
6.12533e-06
-0.000116408
9.92053e-05
-2.22177e-06
-0.00025104
0.000138011
-3.37842e-06
-0.0005063
0.000227406
2.78535e-05
-0.000692528
0.000235869
-4.96411e-05
-0.000825565
0.000282586
-0.000149549
-0.000870393
0.000307872
-0.000263044
-0.000854905
0.00033869
-0.000354178
-0.000785722
0.000367331
-0.000436513
-0.000675012
0.000392299
-0.000503009
-0.000535612
0.000408204
-0.000547605
-0.000369084
0.000401322
-0.00056785
-0.000203764
0.000385563
-0.000550883
-7.04132e-05
0.00034395
-0.000477301
1.67026e-05
0.000298612
-0.000385728
5.14235e-05
0.000236758
-0.000271479
4.63297e-05
0.000174459
-0.000169365
2.37548e-05
0.000120536
-9.79613e-05
3.45133e-06
8.09164e-05
-6.06126e-05
-7.17193e-06
5.50146e-05
-4.43913e-05
-1.11083e-05
4.25794e-05
-3.86432e-05
-9.92515e-06
3.29276e-05
-3.41106e-05
2.31045e-05
-3.30303e-05
3.85309e-06
1.68493e-05
-1.81135e-05
4.49035e-05
-3.20428e-05
-3.16037e-05
8.66079e-05
-2.46771e-05
-2.73018e-05
0.000117373
-1.43573e-05
-2.58803e-05
0.00013947
-3.13551e-06
-2.48109e-05
0.000156322
7.1105e-06
-2.89775e-05
0.000164117
2.65844e-05
-3.51389e-05
0.000167813
3.81003e-05
-4.12295e-05
0.000161349
6.31844e-05
-5.15185e-05
0.000144331
8.18193e-05
-5.83018e-05
0.000102685
0.000124876
-7.54867e-05
3.94572e-05
0.000166283
-9.03707e-05
-4.50189e-05
0.000203212
-9.67442e-05
-0.00014703
0.000245728
-0.000107612
-0.00027032
0.000300468
-0.000132487
-0.000451065
0.000374428
-0.000164384
-0.000626472
0.00045028
-0.000242993
-0.000811787
0.000532666
-0.000301849
-0.000977088
0.000635486
-0.000370981
-0.00113558
0.00073699
-0.000440487
-0.00129144
0.000864359
-0.000481094
-0.00139111
0.000940359
-0.000604816
-0.00145185
0.00104634
-0.000703017
-0.00144395
0.00108972
-0.000789753
-0.00136375
0.00113438
-0.00087589
-0.00122157
0.00115826
-0.000933112
-0.00102935
0.00116477
-0.000964696
-0.000801701
0.00114251
-0.000961956
-0.000563759
0.0010841
-0.000920724
-0.000335669
0.00100415
-0.000846677
-0.000141427
0.000877971
-0.000728264
1.80513e-05
0.000734526
-0.000595392
0.000106841
0.000580284
-0.000432317
0.000133948
0.000452061
-0.000304709
0.000122774
0.000332984
-0.000201273
9.48373e-05
0.000247019
-0.000138166
6.34051e-05
0.000185378
-9.89312e-05
3.87095e-05
0.000145497
-7.82229e-05
1.44759e-05
0.000115943
-5.87817e-05
8.03095e-05
-4.27296e-05
1.89307e-05
1.0443e-05
-1.25244e-05
5.76848e-05
-3.58764e-05
-3.49206e-05
9.86618e-05
-2.52699e-05
-4.03841e-05
0.000128363
-2.47384e-06
-4.15845e-05
0.000144147
2.87244e-05
-4.76439e-05
0.000149549
5.87062e-05
-5.69968e-05
0.000140988
0.00010023
-6.50852e-05
0.000124372
0.000137634
-8.29179e-05
9.65202e-05
0.000198673
-0.000107636
4.01886e-05
0.000266251
-0.000128101
-4.32692e-05
0.00034904
-0.000140706
-0.000147855
0.00043329
-0.000162422
-0.000303082
0.000537404
-0.000178966
-0.000480111
0.00064515
-0.000222394
-0.00067768
0.000754357
-0.000256321
-0.000860889
0.000865012
-0.000307375
-0.00102061
0.000973783
-0.000363781
-0.00116282
0.00109521
-0.000420329
-0.00129561
0.00124003
-0.000471755
-0.00142675
0.00138744
-0.000519314
-0.00155377
0.00152582
-0.000534432
-0.00162368
0.00161026
-0.000599993
-0.00164687
0.00171656
-0.000647033
-0.00161599
0.0017354
-0.000676556
-0.00152471
0.00175809
-0.000714983
-0.0013863
0.00174595
-0.000726104
-0.00121077
0.00170581
-0.000716566
-0.00101018
0.00162586
-0.00068394
-0.000797513
0.00150755
-0.000636112
-0.000577446
0.00135833
-0.000574245
-0.000387296
0.0011811
-0.000493278
-0.000226306
0.000999573
-0.000426038
-0.000106882
0.000798589
-0.000337729
-2.35616e-05
0.000637142
-0.000268402
2.03041e-05
0.000488444
-0.000199326
3.64687e-05
0.000382997
-0.000152143
3.88587e-05
0.000304371
-0.000121383
3.11181e-05
0.000253493
-0.000100256
1.40406e-05
0.000204776
-7.17563e-05
0.000137075
-4.27256e-05
2.11012e-05
7.09373e-06
-1.7752e-05
5.92481e-05
-2.69947e-05
-4.70287e-05
9.93622e-05
-6.40078e-06
-5.89832e-05
0.000120941
4.1927e-05
-6.59796e-05
0.000125373
9.61147e-05
-7.18215e-05
0.000114499
0.000154586
-8.50064e-05
9.45857e-05
0.000229715
-0.000109571
5.73873e-05
0.000310209
-0.000135377
1.46721e-06
0.000421698
-0.000167106
-8.10969e-05
0.000535425
-0.00018661
-0.000198987
0.000669006
-0.000202076
-0.000344237
0.000799579
-0.000221039
-0.000504106
0.0009313
-0.000234029
-0.000658367
0.00105011
-0.000250703
-0.000808915
0.00117758
-0.000272675
-0.000949587
0.00130585
-0.000300165
-0.00107831
0.0014312
-0.000328701
-0.00119172
0.00155418
-0.000345553
-0.00129763
0.00169703
-0.000351093
-0.00140229
0.00182825
-0.000336145
-0.00152099
0.00192653
-0.000282012
-0.00158562
0.00196582
-0.000290933
-0.00160716
0.0020278
-0.000289696
-0.00158532
0.00199108
-0.00027751
-0.00151431
0.00196896
-0.000281885
-0.0014124
0.00191311
-0.00026906
-0.00128646
0.00183122
-0.000251355
-0.00114409
0.00171537
-0.000231877
-0.000990121
0.00156373
-0.000210147
-0.000822894
0.00139709
-0.000205991
-0.000643811
0.00120685
-0.000204829
-0.000466776
0.00102592
-0.000203376
-0.000309871
0.000839398
-0.000197715
-0.000183817
0.000701765
-0.000190677
-9.55347e-05
0.000571281
-0.00017112
-3.50943e-05
0.000472565
-0.000150009
3.10263e-06
0.000401285
-0.000135111
1.75698e-05
0.00034904
-0.000110015
1.53046e-05
0.000285793
-7.87524e-05
0.000192775
-4.03957e-05
2.15834e-05
2.14751e-05
-3.59649e-05
6.08655e-05
9.57969e-06
-7.58563e-05
0.000103437
4.28198e-05
-9.17918e-05
0.000121622
0.000121962
-9.82203e-05
0.000117131
0.000206591
-0.000105985
8.87949e-05
0.000303963
-0.00012104
4.69916e-05
0.000423458
-0.00015194
4.31397e-06
0.00053486
-0.000181973
-4.26808e-05
0.00067807
-0.000209378
-0.000115781
0.000828027
-0.000219501
-0.000210261
0.000984704
-0.000221218
-0.000316862
0.00112414
-0.000217964
-0.000444298
0.00126817
-0.00020943
-0.000582557
0.0013976
-0.000209228
-0.000720052
0.00151843
-0.000203358
-0.000841636
0.00162689
-0.000199462
-0.000944325
0.00172046
-0.000186565
-0.00101965
0.00178585
-0.000156347
-0.00110947
0.00187679
-8.99471e-05
-0.00120549
0.00194629
-2.20122e-05
-0.00134252
0.00198678
7.67802e-05
-0.00141472
0.0019376
0.000100417
-0.00145363
0.00195465
0.000112052
-0.00146325
0.00188573
0.000114971
-0.00143703
0.0018456
9.71482e-05
-0.00139212
0.00178096
8.72405e-05
-0.00132835
0.00169445
7.29948e-05
-0.00125816
0.00158651
5.8681e-05
-0.00116219
0.00145022
1.75369e-05
-0.00104153
0.00130404
-2.76126e-05
-0.0008937
0.00113863
-7.96103e-05
-0.000726326
0.000987486
-0.000128944
-0.000557866
0.000830688
-0.000159749
-0.00039294
0.000714826
-0.000177988
-0.000254433
0.000616329
-0.000183555
-0.000139698
0.000525703
-0.000167872
-5.71829e-05
0.000467377
-0.000148607
-6.51223e-06
0.000421143
-0.000122774
8.88571e-06
0.000353097
-8.27018e-05
0.000237958
-3.6297e-05
1.45688e-05
6.99446e-05
-6.30381e-05
6.31398e-05
7.76096e-05
-0.0001166
0.000107212
0.000137429
-0.000138681
0.000126026
0.000241581
-0.000138433
0.000115781
0.000355349
-0.000138512
8.38809e-05
0.000485424
-0.000149562
5.51927e-05
0.000637405
-0.000185259
2.33506e-05
0.000783321
-0.00021662
-2.38876e-05
0.00095373
-0.000228421
-8.75862e-05
0.00110833
-0.000216604
-0.000160328
0.00125553
-0.000198085
-0.00024341
0.00138239
-0.000175168
-0.000329612
0.00150245
-0.000148088
-0.000411624
0.00159811
-0.000118495
-0.000493312
0.00168438
-8.42624e-05
-0.000560851
0.0017418
-4.73686e-05
-0.000646789
0.00178515
2.12416e-05
-0.000749238
0.00180175
8.65474e-05
-0.000850497
0.00181287
0.000165179
-0.000945393
0.00179138
0.000249804
-0.00108669
0.00181364
0.000314433
-0.00118984
0.00171323
0.000327524
-0.00126381
0.00170269
0.000325927
-0.0013202
0.0016213
0.00032082
-0.00134613
0.00157368
0.000297836
-0.00135847
0.00151491
0.000278394
-0.00135609
0.00144613
0.000245938
-0.00134292
0.00136606
0.000207269
-0.00130448
0.00126498
0.000146796
-0.00121927
0.00116095
5.78857e-05
-0.0011036
0.00104051
-1.75541e-05
-0.000939649
0.000926732
-0.000103195
-0.000761898
0.000812756
-0.000159818
-0.000566376
0.00071702
-0.000197716
-0.000386936
0.000647553
-0.000210663
-0.000234374
0.000566853
-0.000193713
-0.000112646
0.000519559
-0.00017391
-3.25966e-05
0.000478182
-0.000137088
5.22641e-06
0.000405235
-8.99609e-05
0.000278252
-3.50677e-05
1.75769e-05
0.000147386
-9.50181e-05
8.23134e-05
0.000182667
-0.000169793
0.000132102
0.000272624
-0.000184983
0.000153731
0.000395798
-0.000175846
0.000145078
0.000534643
-0.000170642
9.96778e-05
0.000704499
-0.000173675
8.99014e-05
0.000858073
-0.000210891
6.90242e-05
0.00102412
-0.000219925
4.97198e-05
0.00118083
-0.000207794
1.04481e-05
0.00132148
-0.000173875
-4.11476e-05
0.00144642
-0.000139295
-0.000106719
0.0015493
-0.000101332
-0.000176261
0.00163422
-6.22235e-05
-0.000246948
0.00168644
-1.76492e-05
-0.000317655
0.00171673
3.83635e-05
-0.000379019
0.00171446
8.87015e-05
-0.000445172
0.00170159
0.000149716
-0.000511581
0.00165137
0.00021679
-0.000612909
0.00161812
0.000296075
-0.000718165
0.00153194
0.000364705
-0.000857312
0.00152928
0.000423508
-0.000998153
0.00141244
0.000441636
-0.00108504
0.00136792
0.000421664
-0.00118854
0.00132093
0.000403865
-0.00126342
0.00128529
0.000363271
-0.00133023
0.00125294
0.000328781
-0.00138119
0.00121526
0.000281831
-0.00141505
0.00117004
0.000229877
-0.00142403
0.00111235
0.000161619
-0.00137367
0.0010493
6.12922e-05
-0.00128644
0.000967715
-1.44375e-05
-0.00114481
0.0008807
-9.55963e-05
-0.000958278
0.000794806
-0.000168582
-0.000735967
0.000703578
-0.000208868
-0.000503596
0.000661462
-0.000246281
-0.000320814
0.000610963
-0.000226893
-0.000160476
0.000564998
-0.000205776
-5.48493e-05
0.000531574
-0.000159019
5.32718e-07
0.000454232
-0.000104381
0.000316893
-3.81084e-05
2.749e-05
0.000247984
-0.000128088
0.000109832
0.000317727
-0.000217402
0.000174712
0.000435222
-0.000227479
0.000200765
0.000570935
-0.00020119
0.000193276
0.000722846
-0.000180715
0.000178299
0.000900067
-0.00018059
0.000185448
0.0010517
-0.000200776
0.000182681
0.00121976
-0.000192871
0.000168731
0.00135601
-0.000161228
0.000129647
0.00147615
-0.000115592
8.26045e-05
0.00157134
-7.78732e-05
2.65423e-05
0.00163486
-2.94974e-05
-3.44489e-05
0.00167117
2.40403e-05
-9.86433e-05
0.00166948
8.11616e-05
-0.00016051
0.00164501
0.000133582
-0.000224381
0.00158879
0.000189544
-0.000289703
0.00152316
0.000243757
-0.000359907
0.00143501
0.000286564
-0.000448887
0.0013681
0.000339001
-0.000555571
0.00125879
0.00037983
-0.000674425
0.00122805
0.000420081
-0.000845097
0.0011562
0.000426912
-0.000957943
0.0010778
0.000402966
-0.00109797
0.00108172
0.000379242
-0.00121268
0.00105814
0.000341861
-0.0013143
0.00105055
0.00030401
-0.00140066
0.00103756
0.000264053
-0.00146944
0.00101693
0.000221895
-0.00150638
0.000992123
0.000157165
-0.00148965
0.000948416
8.41594e-05
-0.00142666
0.000890218
1.44985e-05
-0.00130531
0.000819811
-6.04618e-05
-0.00111642
0.000754325
-0.000148404
-0.000897803
0.000689136
-0.000204176
-0.000642461
0.000649122
-0.000243003
-0.000413681
0.000640397
-0.000258213
-0.000216582
0.000596815
-0.000228916
-8.01975e-05
0.000577397
-0.000182207
-6.49585e-06
0.000497483
-0.000116953
0.000353058
-4.26621e-05
4.58125e-05
0.000359428
-0.000157256
0.000152328
0.000471356
-0.000260144
0.000245734
0.000610117
-0.000268301
0.000289336
0.000751674
-0.000224341
0.000285326
0.000915969
-0.000189112
0.000282911
0.00107814
-0.00017566
0.0002808
0.0012228
-0.000168994
0.000283972
0.0013661
-0.000149508
0.000279117
0.00147549
-0.000114626
0.000249264
0.00156956
-6.35572e-05
0.000205665
0.00162441
-9.4738e-06
0.000152886
0.00164372
4.3913e-05
8.69435e-05
0.0016371
0.000100018
1.88117e-05
0.00159019
0.00014742
-4.84306e-05
0.00151996
0.000192296
-0.000118577
0.00142506
0.000233875
-0.00019087
0.00132834
0.000267105
-0.000265385
0.0012208
0.000288724
-0.000343267
0.00113696
0.000309018
-0.00045923
0.0010419
0.000332856
-0.00057036
0.000988259
0.000350922
-0.000739829
0.000969006
0.00035666
-0.000889971
0.000884753
0.00034319
-0.00104174
0.000914586
0.000318904
-0.00118068
0.000900324
0.000296751
-0.00130065
0.000908556
0.000261964
-0.00141144
0.000904708
0.000243647
-0.00150233
0.000903935
0.000203884
-0.00156953
0.000885173
0.000174147
-0.00158946
0.000850234
0.00011811
-0.00154599
0.000799813
4.69321e-05
-0.00143907
0.000744401
-3.15125e-05
-0.00125526
0.000686071
-0.000115552
-0.001023
0.000638982
-0.000182103
-0.000750245
0.000607456
-0.00023109
-0.000492713
0.000635007
-0.000252143
-0.000268937
0.000620537
-0.000247498
-0.00010211
0.000610513
-0.000199942
-1.47709e-05
0.000541205
-0.000131061
0.000387804
-4.95176e-05
6.40738e-05
0.000468309
-0.000172954
0.000196394
0.000630299
-0.000291264
0.00031626
0.000785366
-0.000295114
0.000373924
0.000927954
-0.000233944
0.000389193
0.00108007
-0.000179371
0.000388533
0.00122236
-0.000143559
0.000379006
0.00135539
-0.000123063
0.000375461
0.00146732
-9.7683e-05
0.000367068
0.00154662
-6.2739e-05
0.000350587
0.0015959
-9.86313e-06
0.000314921
0.00162249
3.75936e-05
0.000246064
0.00161081
0.000101773
0.00017627
0.00155878
0.000148111
0.000101801
0.0014743
0.000190358
2.584e-05
0.00137364
0.000222275
-5.26845e-05
0.00125832
0.00024527
-0.000131188
0.00114937
0.000257476
-0.000211593
0.00104293
0.000258278
-0.000295749
0.000963048
0.000258069
-0.000412094
0.000895277
0.000262963
-0.000537509
0.00084176
0.000271914
-0.000683989
0.000835709
0.000279776
-0.000855104
0.000771322
0.000284547
-0.000997266
0.000788705
0.000268043
-0.00114461
0.000783191
0.000264472
-0.00126802
0.000794458
0.000237516
-0.00139179
0.000794343
0.000234132
-0.00150415
0.000794165
0.000222128
-0.00159061
0.000770815
0.000200824
-0.00163623
0.000739996
0.000155853
-0.00161977
0.000701603
8.1754e-05
-0.00153212
0.000659156
-2.40528e-06
-0.00136948
0.000615658
-9.22258e-05
-0.00113745
0.000579208
-0.000172257
-0.000864005
0.00054513
-0.000211124
-0.000569892
0.000578733
-0.000237839
-0.000320445
0.000615384
-0.000244295
-0.000128067
0.000625599
-0.000207464
-2.34103e-05
0.000574231
-0.000137683
0.000418455
-5.40615e-05
8.04e-05
0.000566946
-0.000179038
0.000242307
0.000779279
-0.000310887
0.000389017
0.000948055
-0.000309399
0.000465485
0.00108635
-0.000234862
0.000496818
0.00121695
-0.000168209
0.000494862
0.00133531
-0.000110998
0.000485342
0.00144365
-7.87389e-05
0.000469331
0.00152622
-4.28897e-05
0.000443129
0.00158155
-8.72735e-06
0.000408224
0.00160365
2.7161e-05
0.000373511
0.00158252
7.46742e-05
0.000317747
0.00153346
0.000133108
0.000242628
0.00146002
0.000173876
0.000154103
0.00135218
0.000210643
6.79664e-05
0.00123176
0.000228015
-1.93681e-05
0.00111009
0.000235558
-0.000106215
0.00100371
0.000232509
-0.000194681
0.000907751
0.000223641
-0.000290448
0.000841959
0.000216856
-0.000395547
0.000788498
0.000211878
-0.000516362
0.000747639
0.000214935
-0.000634874
0.000728494
0.000225728
-0.000805048
0.000699695
0.000241801
-0.000941577
0.000685304
0.000239931
-0.00108304
0.000679936
0.000244713
-0.00121179
0.000681737
0.000241478
-0.00134353
0.000684927
0.000241151
-0.00147202
0.00067316
0.000249502
-0.00158177
0.000654215
0.000226344
-0.00165102
0.000629147
0.000180101
-0.00167136
0.000594137
0.000127803
-0.00161509
0.000568349
3.45379e-05
-0.00147025
0.000531564
-6.07381e-05
-0.00122784
0.00050654
-0.000169748
-0.000939147
0.000478487
-0.000222048
-0.00063264
0.000508336
-0.00023611
-0.000366934
0.00057385
-0.000224172
-0.000150036
0.000628065
-0.000219364
-3.0029e-05
0.000597309
-0.000143085
0.000449452
-6.10252e-05
9.31609e-05
0.000648007
-0.000174222
0.000281887
0.000909587
-0.000319035
0.000453468
0.00109204
-0.000315564
0.000548309
0.00121869
-0.000227181
0.000591627
0.00132452
-0.000150889
0.000594287
0.00141508
-8.24257e-05
0.000582709
0.00149527
-4.00352e-05
0.000554921
0.00155059
3.4237e-06
0.000515231
0.00158034
4.09015e-05
0.000462601
0.00157029
8.59885e-05
0.000405865
0.00153197
0.000107286
0.000338814
0.00145387
0.000146646
0.00026909
0.00134572
0.000184027
0.000184607
0.00122759
0.000209078
9.42291e-05
0.00110472
0.000217422
1.67355e-06
0.000989021
0.000213627
-8.8205e-05
0.000890735
0.000202852
-0.000182022
0.000809241
0.000192328
-0.000283628
0.000757583
0.000185982
-0.000383667
0.000708561
0.000179976
-0.000493164
0.000674312
0.000182825
-0.000595025
0.00063647
0.000193886
-0.000741764
0.000629273
0.000217161
-0.000865904
0.000588653
0.00022079
-0.000995372
0.000572889
0.000236515
-0.00111951
0.000567848
0.000238025
-0.00126026
0.000559288
0.000266394
-0.00139972
0.000549983
0.000262631
-0.0015241
0.000536676
0.000241921
-0.00162559
0.000521167
0.000209466
-0.00166499
0.000508884
0.000124662
-0.00164181
0.000489913
5.52477e-05
-0.00153597
0.000456984
-3.12546e-05
-0.00133462
0.000431755
-0.00012657
-0.00103934
0.000416529
-0.000233323
-0.000702086
0.000429732
-0.000258648
-0.000401015
0.000500886
-0.000228106
-0.000173314
0.000598595
-0.00019823
-3.74553e-05
0.000607768
-0.000146318
0.000476189
-6.41918e-05
0.000103545
0.000705131
-0.000160668
0.00031568
0.00101384
-0.000316386
0.000513134
0.00120634
-0.000311754
0.000627981
0.00131855
-0.000214711
0.000677481
0.0014037
-0.00012868
0.000685467
0.00146793
-6.08399e-05
0.00067153
0.00151665
-7.44549e-06
0.000636808
0.00154294
4.23718e-05
0.000584974
0.00154576
8.64158e-05
0.000517138
0.00151685
0.000121276
0.000441415
0.00145492
0.000152774
0.000359284
0.00136297
0.000173024
0.000277412
0.00124571
0.000181878
0.000191925
0.00111744
0.000195628
0.000103613
0.000997124
0.000195908
1.33381e-05
0.000890007
0.000189288
-7.47684e-05
0.000802204
0.000176639
-0.000167136
0.000731166
0.000170443
-0.000263081
0.000686242
0.000167285
-0.000360456
0.000638323
0.000167613
-0.000455025
0.000598001
0.000170881
-0.000548958
0.000551928
0.000178474
-0.000663814
0.000546248
0.000197881
-0.000766903
0.000488896
0.000202846
-0.000880379
0.000466412
0.000219953
-0.00100392
0.00044898
0.00024241
-0.00114399
0.000440017
0.000259337
-0.0012886
0.000432915
0.000261678
-0.00143174
0.000427629
0.000252193
-0.00154841
0.000429014
0.000208825
-0.00163456
0.000427218
0.000167813
-0.00164697
0.000404212
9.81136e-05
-0.0015881
0.000362743
3.53717e-05
-0.00142094
0.000325505
-6.09172e-05
-0.00114751
0.000314005
-0.000170901
-0.000795115
0.000337035
-0.000259701
-0.000451743
0.00042043
-0.000262914
-0.000195678
0.000534978
-0.000192448
-4.51535e-05
0.000603731
-0.000146486
0.000501646
-7.06103e-05
0.000107269
0.000741963
-0.000144102
0.000338174
0.00109008
-0.000307148
0.00056003
0.00129175
-0.000307273
0.000692375
0.00139098
-0.000204771
0.000748113
0.00145471
-0.000106745
0.000755693
0.0014949
-3.45455e-05
0.000737069
0.00151949
1.57849e-05
0.000691783
0.00151595
7.2279e-05
0.000631427
0.00149369
0.000112421
0.000558485
0.00144157
0.000148224
0.000471218
0.00136591
0.000176277
0.00037535
0.00126308
0.000195762
0.000279078
0.00114449
0.000197493
0.000194782
0.00101759
0.00018415
0.000109642
0.000903188
0.000179076
2.72286e-05
0.000806463
0.000165957
-5.83415e-05
0.000729125
0.000158649
-0.000149048
0.000665279
0.000156594
-0.000232884
0.000614688
0.000155391
-0.00032134
0.000565184
0.000161595
-0.00040018
0.000514051
0.00016279
-0.00048978
0.000472476
0.000169052
-0.000567568
0.000449161
0.000174875
-0.000655045
0.000391602
0.00018477
-0.000757101
0.000364304
0.000204164
-0.000869758
0.000335131
0.000226506
-0.00100153
0.000327062
0.000244731
-0.00114384
0.000322608
0.000252616
-0.00129062
0.000332086
0.000242323
-0.0014387
0.000341768
0.000235324
-0.00155063
0.000332149
0.000206998
-0.00161737
0.000294008
0.000176948
-0.00160434
0.000242132
0.000107573
-0.00148385
0.000191593
1.34288e-05
-0.00123823
0.000165801
-9.7422e-05
-0.000891462
0.00019542
-0.000205152
-0.000508749
0.00030787
-0.000270153
-0.00021812
0.000466268
-0.000221919
-4.95374e-05
0.000582425
-0.000147275
0.000528162
-7.60507e-05
0.000112611
0.000747229
-0.000117877
0.000360958
0.00112853
-0.000286794
0.000602285
0.00134242
-0.000291995
0.00075145
0.00143593
-0.000194113
0.000812379
0.00147988
-8.61061e-05
0.000817644
0.00149461
-4.97599e-06
0.000791903
0.00149109
5.41419e-05
0.00074523
0.00146592
9.66998e-05
0.000679143
0.00142224
0.000137538
0.000597677
0.00135602
0.000167013
0.000503623
0.00126823
0.000191729
0.000399969
0.00115981
0.000206925
0.000293212
0.00104348
0.000207765
0.000199011
0.000925173
0.00018662
0.000113646
0.000821752
0.000166801
3.67288e-05
0.000729435
0.000153945
-3.88565e-05
0.000659618
0.000145092
-0.000120403
0.000597486
0.00014934
-0.000195183
0.000540794
0.000148674
-0.000272117
0.000488783
0.000153335
-0.000344499
0.000432771
0.000153661
-0.000415997
0.000390355
0.000153619
-0.00047164
0.000354836
0.000149968
-0.000543747
0.000303713
0.000159996
-0.000630025
0.000275948
0.000174634
-0.000729589
0.000237962
0.000196733
-0.000845363
0.000227066
0.000215769
-0.000978275
0.00023105
0.00022447
-0.00113067
0.000248611
0.000235873
-0.00127912
0.000251765
0.000238448
-0.00142262
0.000232237
0.000243416
-0.00153316
0.000190515
0.000214027
-0.00157687
0.00012667
0.000159177
-0.00151539
5.43075e-05
7.58032e-05
-0.00131721
3.80883e-06
-3.61923e-05
-0.00100089
1.76727e-05
-0.000138572
-0.000593386
0.000136531
-0.000236165
-0.000246488
0.000373482
-0.000254111
-6.02718e-05
0.000540629
-0.000144421
0.000544892
-7.69997e-05
0.000113084
0.000728491
-9.43464e-05
0.000370773
0.00113379
-0.000262953
0.000626106
0.00136096
-0.000273874
0.000788548
0.00145171
-0.000178228
0.000857138
0.00148235
-7.1057e-05
0.000858019
0.00147202
2.17114e-05
0.000826508
0.00144731
7.52874e-05
0.000769757
0.00139949
0.000123176
0.000698301
0.00134036
0.000153332
0.00061549
0.00126191
0.000176924
0.000517854
0.00116427
0.000201598
0.000412762
0.00105691
0.000207992
0.000307797
0.0009434
0.000205046
0.000210195
0.000835082
0.000187693
0.00012926
0.000739075
0.000163612
5.6235e-05
0.000655014
0.000147446
-1.22165e-05
0.00058794
0.000140129
-8.467e-05
0.000529816
0.000140123
-0.000153538
0.000469938
0.000139723
-0.00021401
0.00040813
0.000141126
-0.000279482
0.000357794
0.000140449
-0.000336927
0.000316711
0.000131089
-0.000387695
0.000277064
0.00012854
-0.000443425
0.000229194
0.000130248
-0.000513063
0.00019926
0.000146325
-0.000601797
0.000162337
0.000164358
-0.000697679
0.000144769
0.000178179
-0.000822355
0.000157109
0.000198617
-0.000954887
0.000160406
0.000220737
-0.00110615
0.000151594
0.000251435
-0.00126407
0.000131215
0.000258944
-0.00140488
8.45056e-05
0.000246816
-0.0014955
1.47329e-05
0.000202557
-0.00149085
-7.89583e-05
0.000128614
-0.00135631
-0.000158639
2.79137e-05
-0.00107171
-0.000182594
-8.43355e-05
-0.000679425
-7.19636e-05
-0.000183792
-0.000279196
0.000204143
-0.00023089
-6.40636e-05
0.000487531
-0.000162035
0.000556584
-7.57552e-05
0.000124713
0.000639002
-3.52239e-05
0.000392771
0.00108492
-0.00021919
0.000660814
0.00133436
-0.000241438
0.00084154
0.00142359
-0.000152601
0.000913059
0.00144365
-3.28158e-05
0.000909082
0.00141794
5.80513e-05
0.00086779
0.00137292
0.000115679
0.000807506
0.00130749
0.00015229
0.000734177
0.00123815
0.000175542
0.000649014
0.00115525
0.000191825
0.000553619
0.00106185
0.000197812
0.000447708
0.000957185
0.000205634
0.000341159
0.000853502
0.000196447
0.000241185
0.00075359
0.000181466
0.000155962
0.000664821
0.000159477
7.75188e-05
0.00058946
0.000143998
8.8372e-06
0.000523244
0.000133378
-4.64192e-05
0.000455167
0.000129906
-9.86163e-05
0.000397042
0.000125094
-0.000159307
0.000346525
0.000122296
-0.000219604
0.000300276
0.000117815
-0.000268022
0.000254255
0.000110873
-0.000312139
0.000212832
0.000108348
-0.000360886
0.00016987
0.000108071
-0.000413046
0.000133993
0.000117427
-0.00048715
9.96968e-05
0.000136744
-0.000571288
7.53647e-05
0.000153541
-0.000670699
7.82417e-05
0.000178278
-0.000791953
6.84932e-05
0.000213167
-0.000936467
5.44537e-05
0.000241655
-0.00109826
3.01382e-05
0.000262872
-0.00125624
-2.1296e-05
0.000263778
-0.00138202
-9.77372e-05
0.000238251
-0.00143
-0.000208759
0.000177782
-0.00135771
-0.000316341
8.54146e-05
-0.0011353
-0.000379722
-2.52848e-05
-0.000775123
-0.000305629
-0.000126511
-0.00034763
-3.85905e-05
-0.000184758
-6.65631e-05
0.000388778
-0.000182313
0.00055509
-6.50709e-05
0.000119794
0.000530065
-1.08571e-05
0.000375965
0.00103098
-0.000202228
0.000655334
0.0012938
-0.000238812
0.000850906
0.00138425
-0.000156237
0.00093463
0.00139375
-3.38272e-05
0.000932331
0.00134958
7.06618e-05
0.000893824
0.0012845
0.000126935
0.000824501
0.00121319
0.000163622
0.000737852
0.00113836
0.000186442
0.000645867
0.00104776
0.000199474
0.000550431
0.00095192
0.00020537
0.00045201
0.000854297
0.000201309
0.000354629
0.000758371
0.000192513
0.000264507
0.000672176
0.000171537
0.000187876
0.00059
0.000151452
0.000120683
0.000519396
0.000137257
5.86429e-05
0.000455934
0.00012935
-8.37111e-06
0.000399239
0.000122941
-6.58966e-05
0.000343375
0.000111193
-0.000116526
0.000292624
0.00010453
-0.000164585
0.000248482
9.98531e-05
-0.000206981
0.000203043
9.36073e-05
-0.000249527
0.000163002
9.23757e-05
-0.000290636
0.000121471
8.9508e-05
-0.000337677
8.1341e-05
9.96927e-05
-0.000397215
4.32551e-05
0.00011598
-0.00047156
1.10439e-05
0.000138666
-0.00055205
-1.07636e-05
0.000169495
-0.000652542
-3.40834e-05
0.000203069
-0.000773029
-6.21204e-05
0.000237061
-0.000919247
-8.79739e-05
0.00026433
-0.0010796
-0.000138668
0.000277727
-0.00123173
-0.000211209
0.000265596
-0.00132801
-0.00033259
0.000220115
-0.00131534
-0.000471708
0.000142693
-0.0011454
-0.000596478
4.68203e-05
-0.000810461
-0.000573948
-6.66214e-05
-0.00039811
-0.000306361
-0.000144581
-6.40846e-05
0.000207215
-0.000152461
0.000537252
-4.62458e-05
0.000149017
0.000332017
4.90308e-05
0.000384865
0.000915548
-0.000120418
0.000669909
0.00119362
-0.000184865
0.000870108
0.00129041
-0.000106358
0.000963147
0.00129149
9.22011e-06
0.000957296
0.00124703
0.000108404
0.000909632
0.00117195
0.000160209
0.000840303
0.00108809
0.000194428
0.000769321
0.00100307
0.000206262
0.000694043
0.000914102
0.000208932
0.000611
0.000831315
0.000203647
0.00051845
0.000751537
0.00019531
0.000421632
0.000674348
0.000180842
0.000327151
0.000604276
0.000162381
0.000244814
0.000538704
0.000133634
0.000169421
0.000479167
0.000115623
9.92473e-05
0.000415911
0.000110197
2.80824e-05
0.00035877
0.000111633
-3.04244e-05
0.000303238
9.86434e-05
-7.80222e-05
0.000252461
8.77615e-05
-0.000119391
0.000204323
8.55268e-05
-0.000157098
0.000161948
7.88022e-05
-0.000193856
0.000121391
7.83681e-05
-0.00022951
8.0756e-05
7.63682e-05
-0.000274284
4.01135e-05
8.60025e-05
-0.000322679
-4.24031e-06
9.58898e-05
-0.000381533
-4.32493e-05
0.000113147
-0.000449441
-8.68583e-05
0.000144003
-0.000539986
-0.000123263
0.000179725
-0.000655371
-0.000163088
0.000216352
-0.000796958
-0.000201728
0.000255341
-0.000949903
-0.000279181
0.000293458
-0.00110777
-0.000367986
0.000314647
-0.00123095
-0.000510827
0.000301415
-0.00127244
-0.000679298
0.000249074
-0.00117696
-0.000859832
0.000167876
-0.000890847
-0.000911003
5.09447e-05
-0.000457529
-0.000683815
-5.58637e-05
-8.55897e-05
-6.14795e-05
-0.000103244
0.000467885
-1.62242e-05
0.000120621
0.000199815
1.15814e-05
0.000337579
0.00083622
-0.000137632
0.000626123
0.00111076
-0.000205685
0.000840359
0.0012099
-0.000133725
0.000951718
0.0011976
-1.74739e-05
0.000975521
0.00113883
8.43921e-05
0.000944302
0.00104738
0.00015579
0.000885735
0.000967964
0.000178692
0.000809075
0.00089408
0.000185654
0.000719258
0.000820291
0.000183629
0.000625272
0.000747202
0.000178099
0.000528774
0.00067766
0.000170376
0.000435737
0.000610063
0.000157322
0.000346781
0.000551299
0.000141933
0.00026444
0.000494339
0.000126707
0.000197143
0.000441941
0.000104523
0.00013685
0.000384839
9.13642e-05
7.89054e-05
0.000329019
8.76955e-05
1.95173e-05
0.000272711
8.99135e-05
-2.69381e-05
0.000217012
8.19033e-05
-7.31173e-05
0.000175214
7.52871e-05
-0.00011067
0.000127522
7.19775e-05
-0.00014723
8.83967e-05
6.95532e-05
-0.000181245
4.43425e-05
7.0429e-05
-0.000222219
1.95446e-06
7.9133e-05
-0.00027093
-4.05569e-05
8.50273e-05
-0.000323519
-8.22825e-05
9.16209e-05
-0.00038034
-0.000142934
0.000112896
-0.000442908
-0.0002052
0.000144505
-0.000514487
-0.000274113
0.000182604
-0.000605039
-0.000340805
0.000229628
-0.000728523
-0.000433891
0.000278195
-0.00088944
-0.000528628
0.00032156
-0.00105751
-0.000687984
0.000345229
-0.00117794
-0.000890585
0.000331713
-0.00116255
-0.001138
0.000262784
-0.000982431
-0.00125024
0.000159114
-0.000574881
-0.0011212
2.98411e-05
-0.000152676
-0.000460201
-2.34811e-05
0.000270063
4.51485e-05
8.78808e-05
9.53456e-05
1.65872e-05
0.00032983
0.000715985
-0.000121715
0.00060951
0.00101714
-0.000186057
0.000840125
0.00112551
-0.000146223
0.000963191
0.001117
-4.24652e-05
0.00099248
0.00105581
5.37374e-05
0.000948672
0.000962347
0.00012884
0.000880711
0.000874905
0.00016102