/*--------------------------------*- C++ -*----------------------------------*\
| =========                 |                                                 |
| \\      /  F ield         | OpenFOAM: The Open Source CFD Toolbox           |
|  \\    /   O peration     | Version:  v1806                                 |
|   \\  /    A nd           | Web:      www.OpenFOAM.com                      |
|    \\/     M anipulation  |                                                 |
\*---------------------------------------------------------------------------*/
FoamFile
{
    version     2.0;
    format      ascii;
    class       volScalarField;
    location    "0.0075";
    object      p;
}
// * * * * * * * * * * * * * * * * * * * * * * * * * * * * * * * * * * * * * //

dimensions      [0 2 -2 0 0 0 0];


internalField   nonuniform List<scalar> 
64000
(
-1.89847e-05
0.00576528
0.0405825
0.0852756
0.0329636
0.00789562
0.141272
0.576026
1.51322
2.89686
4.45404
5.92562
7.25882
8.69966
10.6521
12.9518
15.616
18.1876
20.0648
22.5956
25.3543
27.4641
27.975
25.8691
22.3076
18.3668
14.6652
11.5826
9.33321
8.15356
6.4648
5.01332
3.98168
2.72215
1.37868
0.11465
-0.970934
-1.69862
-2.13922
-2.34216
0.0824424
0.134636
0.210137
0.2632
0.17973
0.141114
0.262165
0.705806
1.67199
3.10333
4.57032
5.63382
7.07537
8.33493
10.1556
12.4826
15.1164
17.8175
20.4586
23.2525
25.9798
28.0748
28.6949
26.9789
23.6335
19.6819
15.826
12.464
9.76743
7.74023
6.2075
4.86903
4.078
2.90891
1.58203
0.407007
-0.608761
-1.40056
-1.97181
-2.26956
0.34939
0.475252
0.540343
0.461738
0.318699
0.358542
0.646506
1.23932
2.23068
3.50751
4.48673
5.38583
6.90829
8.54686
10.5058
12.8316
15.451
18.2473
21.1157
23.9847
26.6274
28.602
29.1795
27.5701
24.2182
20.1264
16.0619
12.4456
9.43708
7.02756
5.14204
3.62753
2.80505
1.84682
0.959069
0.31037
-0.349798
-1.06076
-1.66898
-2.03412
0.782287
0.95848
0.927499
0.725819
0.692558
0.919258
1.40492
2.22529
3.24435
3.98501
5.00092
6.24373
7.7548
9.52796
11.6059
14.0004
16.6753
19.5551
22.5244
25.4235
28.0114
29.885
30.4046
28.7989
25.4421
21.276
17.0499
13.1899
9.89753
7.21952
5.10407
3.48789
2.24797
1.20777
0.413179
-0.117367
-0.466003
-0.960278
-1.35862
-1.71657
1.32448
1.45906
1.30712
1.24055
1.41752
1.85245
2.58218
3.56908
4.47596
5.24158
6.37428
7.68909
9.22191
11.0438
13.1753
15.5968
18.3122
21.2374
24.2201
27.0432
29.4208
30.9934
31.2344
29.5737
26.3743
22.3552
18.0991
14.0087
10.3669
7.39366
5.09327
3.47041
2.16484
1.08329
0.237203
-0.369282
-0.808787
-1.2122
-1.39207
-1.62522
1.92243
1.95226
1.91651
2.18307
2.59389
3.24796
4.13099
4.9568
6.11989
7.37713
8.39675
9.78447
11.3297
13.1606
15.3514
17.7344
20.4407
23.3061
26.1903
28.7869
30.6966
31.5788
31.1897
29.5226
26.8817
23.5591
19.7914
15.8861
12.1847
8.87992
6.14234
4.20046
2.82115
1.61278
0.566124
-0.246007
-0.829018
-1.24573
-1.49894
-1.62725
2.70454
2.75304
3.08108
3.59328
4.16547
4.97732
5.94329
6.75882
7.89641
9.48316
11.0377
12.6454
14.1232
15.7445
17.6518
19.8304
22.4348
25.3116
27.9383
29.6942
30.3719
30.1993
29.4029
28.0661
26.2311
23.8872
21.0154
17.7159
14.3425
11.1692
8.28934
5.99314
4.24578
2.67097
1.31319
0.20929
-0.599289
-1.16723
-1.51016
-1.66183
3.93621
4.24112
4.71518
5.36151
6.05393
6.9478
8.03754
9.14618
10.1038
11.6162
13.3745
15.3444
17.2473
18.8278
19.9574
21.8303
24.2744
26.6926
28.2422
28.7205
28.522
27.9995
27.2969
26.4237
25.3184
23.8591
21.9154
19.4797
16.7553
13.969
11.2229
8.59733
6.34912
4.29704
2.49724
1.02308
-0.0767591
-0.868873
-1.34066
-1.5797
5.86495
6.22998
6.74625
7.43769
8.18737
9.16466
10.3015
11.5324
12.8411
14.2915
15.7709
17.701
19.7074
21.3628
22.3264
23.573
25.3303
26.6615
27.0792
26.9183
26.4816
25.9547
25.4262
24.9054
24.3431
23.6369
22.6421
21.2531
19.3701
16.9964
14.2438
11.3363
8.67492
6.22352
4.04299
2.19122
0.765647
-0.287935
-0.920576
-1.22857
8.16104
8.55505
9.08039
9.78473
10.5778
11.5725
12.7126
13.8733
15.1964
16.7205
18.3862
20.1737
21.7775
23.0988
23.8904
24.6348
25.3745
25.6364
25.5048
25.1207
24.6149
24.1047
23.6835
23.3967
23.2619
23.2436
23.2305
22.8958
21.7999
19.7629
17.0015
13.8337
10.824
8.17994
5.81484
3.69524
1.99541
0.690187
-0.118976
-0.478793
10.6579
11.0958
11.6209
12.3283
13.1309
14.0763
15.1312
16.2497
17.3993
18.7636
20.2739
21.835
23.2164
24.1767
24.5393
24.5943
24.5381
24.3328
23.9399
23.4032
22.8159
22.2937
21.9524
21.8863
22.161
22.7541
23.535
24.0777
23.6262
21.8331
18.9784
15.7444
12.5956
9.83709
7.41365
5.37923
3.57366
2.11347
1.19103
0.817094
13.3011
13.7908
14.3021
14.9551
15.6743
16.5216
17.4776
18.4835
19.5148
20.5591
21.649
22.813
23.7329
24.0446
23.7896
23.7361
23.4339
22.9987
22.3995
21.7091
21.0465
20.5489
20.3554
20.5757
21.2437
22.3269
23.6204
24.6746
24.7572
23.2327
20.6848
17.7829
14.7688
11.9045
9.3593
7.15346
5.45084
3.97871
3.06719
2.77159
16.0522
16.5813
17.0641
17.6242
18.1691
18.8028
19.5513
20.4849
21.3694
22.1161
22.6722
23.1689
23.3923
23.1086
22.6127
22.5203
22.2471
21.6628
20.9259
20.1441
19.4936
19.126
19.1679
19.6624
20.6181
21.9673
23.4942
24.8135
25.3224
24.525
22.4911
19.7475
16.7143
13.7334
11.3075
9.1717
7.3916
6.11363
5.34422
5.18402
18.823
19.356
19.8007
20.2614
20.6293
21.02
21.5717
22.2639
22.853
23.234
23.298
23.0553
22.6419
22.0609
21.4582
21.2748
21.0906
20.4406
19.6853
18.9491
18.4474
18.305
18.5633
19.2275
20.295
21.6898
23.252
24.7272
25.692
25.5664
23.9874
21.332
17.97
15.0828
12.5939
10.7509
9.49536
8.26688
7.67515
7.63722
21.4518
21.9478
22.3327
22.7193
22.9766
23.2068
23.539
23.8848
24.066
23.9726
23.4765
22.6875
21.865
21.2109
20.6094
20.1999
20.0394
19.4968
18.8473
18.3014
18.0461
18.1051
18.4605
19.1362
20.1491
21.4486
22.9234
24.4414
25.7195
26.1523
25.0299
22.3918
19.6934
16.9
14.2466
12.0647
10.7604
10.0313
9.68133
9.68908
23.7382
24.1559
24.4725
24.8121
25.0138
25.1559
25.3518
25.3851
25.1028
24.44
23.4743
22.3751
21.3656
20.5777
20.0179
19.4877
19.2917
18.9464
18.453
18.1509
18.1017
18.2627
18.6252
19.2266
20.1061
21.2457
22.5619
23.9291
25.2741
26.1325
25.3077
23.2065
20.4467
17.5904
15.1552
13.0204
11.5815
11.3672
11.0806
11.1573
25.5149
25.7819
26.0047
26.3318
26.5608
26.7233
26.8704
26.6982
25.9936
24.8616
23.5453
22.2708
21.1664
20.3055
19.6794
19.2412
18.8464
18.7002
18.3852
18.2823
18.3634
18.5805
18.926
19.4357
20.1546
21.0981
22.2069
23.3655
24.7463
25.9413
25.8025
24.0509
21.5748
18.9911
16.6374
14.5728
12.9443
12.1242
12.4072
12.2041
26.4913
26.5757
26.7175
27.0774
27.4179
27.7436
27.9452
27.7124
26.7637
25.3385
23.7993
22.388
21.2114
20.3169
19.6459
19.1843
18.8396
18.6269
18.5152
18.5435
18.7073
18.9694
19.3119
19.7477
20.3052
21.0281
21.9742
23.2179
24.5551
25.5931
26.079
25.1149
23.0374
20.6528
18.3939
16.3462
14.6439
13.0867
13.2441
13.2609
26.3085
26.311
26.4562
26.912
27.4378
28.0121
28.4185
28.3068
27.3479
25.8342
24.192
22.6862
21.4368
20.4724
19.7732
19.2735
18.9599
18.8117
18.8304
18.8929
19.0992
19.3997
19.7522
20.1301
20.5299
21.0244
21.8471
22.9613
24.0087
25.021
25.8187
25.8056
24.3838
22.2858
20.1396
18.1038
16.392
14.6644
13.8896
14.2383
25.0739
25.128
25.3537
25.9424
26.6638
27.4894
28.1737
28.3598
27.6358
26.2284
24.6037
23.0599
21.746
20.7157
19.9593
19.4497
19.177
19.1465
19.2916
19.3637
19.5513
19.8546
20.2027
20.5176
20.7304
20.9982
21.5188
22.3579
23.2966
24.2585
25.1697
25.6837
25.0531
23.4435
21.5417
19.6438
18.0061
16.3298
15.165
15.2186
23.1514
23.2938
23.6267
24.3559
25.2654
26.3398
27.2635
27.8118
27.5185
26.3987
24.9118
23.4052
22.0705
20.9936
20.2049
19.7016
19.4932
19.5661
19.7821
20.0028
20.078
20.3221
20.6239
20.8556
20.8942
20.8702
21.1264
21.6974
22.4901
23.3794
24.2757
24.952
24.7946
23.7169
22.2042
20.5751
19.0935
17.5768
16.4108
16.0062
20.8389
21.0482
21.4792
22.3343
23.4027
24.688
25.8299
26.7242
26.9237
26.2329
25.0122
23.639
22.356
21.2962
20.5241
20.0664
19.9317
20.0638
20.3163
20.5651
20.7281
20.7702
20.9971
21.1195
21.0377
20.9534
21.0209
21.2796
21.8053
22.5227
23.2894
23.895
23.8704
23.064
21.8943
20.6133
19.3993
18.1676
17.1705
16.2295
18.3182
18.5691
19.0734
20.0248
21.217
22.6674
24.0027
25.1771
25.8245
25.6542
24.8209
23.701
22.571
21.617
20.9402
20.5765
20.5169
20.663
20.8842
21.0849
21.2119
21.256
21.3112
21.2496
21.1448
21.1459
21.2174
21.3356
21.5435
21.9203
22.4078
22.7632
22.5972
21.8287
20.7752
19.6909
18.6758
17.7192
17.0167
16.4064
15.7132
15.9887
16.5367
17.548
18.8274
20.4062
21.8867
23.2457
24.2412
24.6021
24.2737
23.5428
22.6948
21.9566
21.4612
21.242
21.252
21.3724
21.502
21.5831
21.5982
21.5531
21.4835
21.463
21.3794
21.4496
21.6095
21.7643
21.8545
21.8997
21.9264
21.8345
21.3385
20.4178
19.2755
18.1701
17.1284
16.2937
15.6651
15.1501
13.1377
13.4099
13.9679
14.9979
16.3203
17.9785
19.5608
21.0113
22.2488
23.0629
23.3236
23.1234
22.7036
22.299
22.0702
22.0339
22.1022
22.1621
22.1481
22.049
21.8924
21.7399
21.664
21.6382
21.6553
21.8153
22.091
22.3852
22.5541
22.5115
22.2011
21.5738
20.6043
19.3547
17.9227
16.5879
15.2967
14.4051
13.6575
13.2845
10.6968
10.908
11.4418
12.4497
13.7599
15.403
17.0827
18.5723
19.9688
21.1374
21.9589
22.4019
22.5587
22.6045
22.7134
22.8755
22.9896
22.9574
22.7513
22.4368
22.0722
21.7867
21.7118
21.9421
22.128
22.2292
22.611
23.0543
23.4059
23.4914
23.1819
22.3821
21.0594
19.3546
17.4232
15.6453
13.8847
12.766
11.7723
11.4484
8.44558
8.51827
9.00411
9.96184
11.221
12.7976
14.5247
16.0527
17.5575
18.988
20.2858
21.3751
22.2033
22.7959
23.288
23.6534
23.7891
23.6615
23.2533
22.6605
22.1033
21.8748
21.9699
22.3207
22.7309
22.9197
23.2179
23.7133
24.249
24.5868
24.5434
23.9842
22.7767
20.9515
18.5783
16.2205
13.7773
12.2645
10.7925
10.3877
6.1935
6.22772
6.67782
7.57959
8.77651
10.28
11.9905
13.5938
15.1766
16.7976
18.4732
20.1317
21.6238
22.8014
23.6904
24.2831
24.416
24.1139
23.5391
22.8034
22.288
22.1075
22.3785
22.8736
23.3432
23.7385
24.0172
24.4381
25.0006
25.5974
25.9676
25.9055
25.2247
23.7892
21.4438
18.8233
15.7986
13.894
11.8167
11.2105
4.11921
4.0858
4.48752
5.33569
6.47282
7.91338
9.59799
11.2835
12.9438
14.7478
16.7429
18.8555
20.8995
22.6298
23.8811
24.575
24.7585
24.4455
23.8197
23.1511
22.5429
22.4244
22.8417
23.4916
24.0556
24.4833
24.8461
25.2197
25.7531
26.4032
27.1555
27.7267
27.7674
27.111
25.337
23.0372
19.8701
17.9295
15.4156
14.8244
2.2552
2.15309
2.50199
3.27452
4.35199
5.72952
7.34122
9.13731
10.9461
13.0184
15.3626
17.8104
20.2007
22.3533
23.7777
24.6527
25.0615
24.9448
24.3676
23.5514
22.8568
22.6339
23.0417
23.8227
24.5516
25.0798
25.5387
25.893
26.5249
27.1876
27.9789
29.0471
29.9119
30.1995
29.3566
27.9472
25.1846
23.7115
20.9917
20.5529
0.674857
0.530467
0.785555
1.42611
2.41867
3.73997
5.31079
7.16085
9.24797
11.8348
14.4771
17.1318
19.8179
22.0353
23.8042
25.0088
25.6133
25.5564
24.9135
24.0361
23.1868
22.6773
22.8372
23.5597
24.3878
25.1518
25.8308
26.3504
27.1908
28.0886
28.8405
29.8456
31.2587
32.5652
32.7999
32.625
30.6961
30.15
27.4256
27.2145
-0.549605
-0.65463
-0.558459
-0.134367
0.725945
1.96263
3.49494
5.38985
7.95366
10.4856
13.1747
16.1509
18.841
21.3885
23.605
25.2214
26.1001
26.1211
25.5234
24.5778
23.5333
22.6791
22.424
22.906
23.6801
24.51
25.4569
26.5064
27.3706
28.7615
30.0334
30.7906
32.0683
33.9387
35.2518
36.4478
35.5397
36.2239
33.6046
33.8357
-1.46918
-1.50833
-1.56823
-1.42035
-0.765204
0.31473
1.78608
3.86889
6.30225
8.81802
11.8454
14.6645
17.5234
20.4184
23.116
25.2193
26.4286
26.6896
26.1486
25.1262
23.8859
22.7194
22.0033
22.0847
22.7114
23.5556
24.6292
26.0369
27.296
28.9428
30.6788
32.3116
33.0994
34.8884
36.5113
39.0971
39.1329
41.2628
38.8769
39.8581
-2.29572
-2.23948
-2.34351
-2.29506
-1.86587
-1.09233
0.287667
2.36985
4.64809
7.4029
10.1029
12.9913
16.0937
19.3455
22.4901
25.0955
26.7118
27.2114
26.7339
25.646
24.2509
22.8358
21.7223
21.2858
21.6353
22.482
23.6996
25.3605
27.1332
28.8854
30.87
32.8667
34.7796
36.0923
37.5268
40.436
41.2225
44.8966
42.7941
45.1197
-2.63583
-3.11686
-3.34002
-3.33603
-2.83131
-2.57672
-1.23711
0.626619
2.95485
5.43363
8.17916
11.2924
14.7548
18.436
21.9828
24.9159
26.8582
27.5839
27.1857
26.0789
24.5882
22.9921
21.5683
20.66
20.569
21.3133
22.6739
24.6041
26.9081
29.1435
31.12
33.1204
35.1727
37.9211
38.745
41.6421
42.0516
47.0947
45.6358
49.8086
-3.94196
-3.95247
-4.13171
-4.05726
-3.66373
-2.93352
-2.4692
-0.819573
1.21763
3.6959
6.65783
10.116
13.9756
17.9927
21.745
24.8585
26.9873
27.8494
27.5169
26.4206
24.8753
23.1589
21.5081
20.2456
19.6782
20.1388
21.5198
23.6952
26.4064
29.3574
31.9662
34.0028
35.4409
38.0219
40.4046
43.2748
43.1366
49.2657
47.8736
54.4661
-2.81704
-4.09886
-4.73903
-5.35463
-5.2155
-4.70403
-4.44944
-3.02345
-0.857304
1.94021
5.33585
9.2737
13.5653
17.8822
21.8139
25.0107
27.1336
27.9928
27.6448
26.5448
24.9913
23.2116
21.4305
19.9455
19.0207
19.1121
20.3265
22.6245
25.5804
28.9933
32.1082
35.0727
37.2219
39.2307
40.1043
45.25
44.3622
50.5302
49.6748
59.27
-4.28035
-3.31549
-4.57597
-5.17312
-5.53523
-5.51578
-5.41568
-4.01273
-1.77519
1.26938
5.03443
9.36344
13.9719
18.4917
22.4837
25.6323
27.6416
28.4059
28.0022
26.822
25.1503
23.2931
21.4132
19.8032
18.6569
18.4475
19.3767
21.5965
24.678
28.3886
31.828
35.2404
37.7648
40.5792
41.8043
47.1231
46.582
54.9553
55.0727
66.6746
-0.351687
-3.10509
-4.64753
-6.79998
-6.8223
-7.09464
-6.76818
-5.62895
-3.23684
0.23938
4.48848
9.27101
14.2382
18.9737
23.0307
26.1132
27.9862
28.637
28.1659
26.9349
25.1995
23.2977
21.3562
19.6891
18.4195
18.0391
18.7085
20.8218
23.8813
27.7998
31.4349
35.1393
37.7012
41.1496
42.0251
47.6076
48.6892
59.6203
58.4362
69.2851
-4.11429
-0.834522
-4.48156
-6.13842
-7.78332
-8.05006
-7.44284
-5.88047
-3.35341
0.0980194
4.4237
9.37162
14.5137
19.3719
23.4639
26.4926
28.2603
28.8261
28.3026
27.0377
25.2581
23.3238
21.3395
19.6462
18.3189
17.8728
18.387
20.3914
23.388
27.433
31.2133
35.0941
37.562
41.2791
42.9265
50.6546
54.7121
68.0529
67.6057
82.8818
-0.24626
-0.190163
-0.115157
-0.0457445
-0.0958128
-0.140678
-0.0338283
0.357119
1.24615
2.63893
4.12477
5.56738
6.92455
8.64734
10.4072
12.5086
15.2086
18.0786
20.7495
23.2117
25.5342
27.479
28.0424
26.2239
22.8386
18.8224
14.7515
11.0648
8.05745
5.86912
4.46535
3.44224
2.58872
1.53036
0.408009
-0.634118
-1.52248
-2.16364
-2.52513
-2.75757
-0.167772
-0.0578398
0.027287
0.0763798
-0.0472383
-0.0688345
0.0621575
0.471662
1.29624
2.6714
3.60185
5.00031
6.54439
8.23103
10.2246
12.5989
15.3127
18.1812
21.065
23.9309
26.6022
28.6117
29.1494
27.4558
24.0952
19.9626
15.7577
11.9394
8.74269
6.20609
4.25996
2.69246
2.27758
1.62553
0.561581
-0.356332
-1.21525
-1.88239
-2.35659
-2.59566
0.153747
0.272839
0.309401
0.177904
0.0767092
0.102159
0.305372
0.780889
1.3738
2.50342
3.64263
4.95663
6.55974
8.4025
10.5491
12.9957
15.7106
18.6112
21.5965
24.5547
27.2261
29.1429
29.5612
27.8765
24.4618
20.1897
15.8461
11.9305
8.63074
5.91076
3.75093
2.12083
1.07142
0.280078
-0.10306
-0.382866
-1.06484
-1.64655
-2.10684
-2.3595
0.629877
0.723509
0.646144
0.426358
0.377841
0.48919
0.781351
1.33504
2.12105
3.10506
4.2999
5.71832
7.43471
9.43657
11.6999
14.2182
16.9791
19.9263
22.9509
25.8965
28.4928
30.2777
30.6054
28.9115
25.4874
21.1434
16.6955
12.6884
9.28374
6.39
4.10497
2.32561
1.00503
0.0418248
-0.566677
-0.950868
-1.25225
-1.50394
-1.75914
-2.01093
1.20586
1.18657
0.865045
0.859973
0.938884
1.16177
1.65761
2.41561
3.35237
4.40126
5.66611
7.17903
8.98927
11.051
13.3436
15.8847
18.6557
21.6021
24.5638
27.3623
29.7136
31.2086
31.3021
29.6311
26.4293
22.2528
17.8067
13.7142
10.224
7.21838
4.77385
2.77986
1.27472
0.104717
-0.701318
-1.19754
-1.48117
-1.67515
-1.82359
-1.92238
1.58894
1.40663
1.46751
1.65879
1.90176
2.24684
2.99707
3.94454
5.08607
6.3637
7.73753
9.39333
11.2673
13.3227
15.5863
18.184
20.9942
23.9914
26.6967
29.0149
30.6402
31.4094
31.1019
29.6563
27.1533
23.7764
19.8185
15.7635
11.9515
8.49096
5.90862
3.81649
2.01423
0.671817
-0.381168
-1.10383
-1.52037
-1.74193
-1.84719
-1.93503
2.06714
2.24967
2.54052
3.03192
3.23606
3.76907
4.73752
5.87133
7.18768
8.69822
10.3398
12.2104
14.1926
16.212
18.4595
20.8817
23.5224
26.219
28.4601
29.8572
30.3779
30.2398
29.5838
28.4509
26.7751
24.4618
21.4572
17.8911
14.1801
10.7846
7.92887
5.61792
3.42468
1.60196
0.271028
-0.733334
-1.36922
-1.72341
-1.86682
-1.97194
3.44344
3.68584
4.103
4.76699
5.19557
5.70336
6.82281
8.14808
9.60103
11.2635
13.1503
15.2387
17.3044
19.23
21.1411
23.3377
25.6667
27.6517
28.8013
29.0996
28.8365
28.2979
27.6457
26.8844
25.8985
24.4926
22.4733
19.7416
16.662
13.7333
10.9768
8.32495
5.67978
3.25958
1.30143
-0.0400235
-0.946521
-1.4963
-1.74188
-1.89715
5.37031
5.63059
6.12013
6.87884
7.40749
8.26805
9.2353
10.5655
12.1544
13.9374
15.955
18.084
20.1568
21.9962
23.5866
25.1887
26.6348
27.5184
27.6959
27.3912
26.8549
26.2755
25.7582
25.301
24.8156
24.1592
23.1479
21.5789
19.5254
17.1182
14.3962
11.3999
8.34305
5.43343
2.95778
1.02744
-0.202546
-0.984511
-1.36939
-1.58301
7.64615
7.9316
8.44803
9.22909
9.99324
11.0038
12.1854
13.069
14.5694
16.4211
18.485
20.5948
22.5242
24.0734
25.1415
25.8861
26.321
26.3419
26.0064
25.4666
24.8746
24.346
23.9601
23.7298
23.6445
23.6616
23.6648
23.2994
22.1991
20.2411
17.6399
13.9858
10.5899
7.67411
5.19157
2.71225
1.05474
-0.0233209
-0.602855
-0.8805
10.1352
10.4929
10.9822
11.7714
12.7418
13.7644
14.8447
16.0839
16.9776
18.5369
20.3701
22.3193
23.9976
25.0702
25.4626
25.454
25.217
24.7973
24.2283
23.588
22.981
22.5039
22.2388
22.2338
22.5455
23.1814
24.0058
24.5855
24.2186
22.5013
19.0873
15.1578
11.4512
8.2747
5.87988
4.61692
2.75281
1.44154
0.68968
0.366508
12.824
13.2695
13.719
14.3982
15.2851
16.3396
17.5223
18.5167
19.6113
20.583
21.671
23.1919
24.4101
24.851
24.6728
24.3272
23.8255
23.2167
22.5257
21.8272
21.2262
20.8259
20.7193
20.974
21.6667
22.8172
24.1541
25.269
25.475
23.3954
20.2766
17.2212
13.8838
10.6546
7.79332
5.54209
4.79924
3.30509
2.56352
2.29647
15.6981
16.1854
16.6431
17.1786
17.8265
18.6225
19.5421
20.5701
21.615
22.448
22.8402
23.4692
24.0236
23.8927
23.4241
22.9564
22.4063
21.7361
21.0033
20.3076
19.7765
19.514
19.6025
20.0858
21.0265
22.4243
24.0177
25.4009
25.7212
24.9515
22.783
19.7877
16.4205
13.1477
10.2338
7.76818
5.87729
5.46266
4.87855
4.73951
18.6618
19.1626
19.5596
20.0231
20.4512
20.8989
21.4959
22.1984
22.9205
23.4553
23.6299
23.4317
23.2861
22.8113
22.2163
21.6652
21.129
20.4807
19.8026
19.2081
18.8296
18.745
18.9957
19.6139
20.655
22.057
23.6865
25.2795
26.3345
26.3297
24.7949
21.9941
18.5773
15.2397
12.3266
9.96742
8.18608
7.28907
7.16427
7.23575
21.4811
21.9626
22.3161
22.6773
22.9184
23.1522
23.4454
23.7161
24.0032
24.1267
23.8209
23.0948
22.2559
21.9418
21.2996
20.665
20.1286
19.5674
19.031
18.6241
18.4435
18.5087
18.8278
19.4405
20.4116
21.7018
23.2374
24.9565
26.42
27.0474
26.0713
23.5463
20.3144
17.0186
14.0861
11.8768
10.1204
8.9949
9.45041
9.36505
23.8865
24.3125
24.5894
24.8703
25.0292
25.1727
25.2501
25.2307
25.0395
24.5593
23.7742
22.7866
21.7931
20.9815
20.6872
20.0443
19.506
19.0439
18.6764
18.4758
18.4622
18.6106
18.9262
19.451
20.2651
21.3981
22.8773
24.4432
26.0022
27.0308
26.6356
24.5976
21.6453
18.4934
15.6388
13.3801
11.8503
10.628
10.1861
10.7824
25.6223
25.9783
26.178
26.4328
26.6014
26.7344
26.7252
26.5328
25.9503
24.9672
23.7737
22.6627
21.6147
20.711
20.0355
19.8343
19.2317
18.8478
18.62
18.5784
18.6785
18.8777
19.1738
19.6064
20.2402
21.1762
22.408
23.8334
25.3591
26.6111
26.8479
25.4817
22.9963
20.1256
17.3997
15.036
13.444
12.0981
11.415
11.9586
26.4909
26.7587
26.9175
27.2147
27.4705
27.6976
27.7425
27.504
26.7118
25.449
24.0202
22.6993
21.5914
20.7284
20.0206
19.5894
19.2115
18.8694
18.7449
18.8027
18.9794
19.2237
19.5155
19.8713
20.3433
20.9916
21.991
23.2776
24.6983
25.989
26.7258
26.2051
24.3539
21.8454
19.286
16.9107
15.1051
13.6529
12.9443
13.2784
26.2615
26.5025
26.6819
27.0856
27.5177
27.985
28.2344
28.1078
27.3047
25.9504
24.41
22.959
21.7487
20.814
20.1615
19.6316
19.2877
19.0488
19.007
19.1129
19.3328
19.6161
19.9143
20.1998
20.5094
20.8584
21.6122
22.6925
23.9302
25.1918
26.2212
26.4752
25.3857
23.3538
21.0459
18.7708
16.8423
15.1872
14.2681
14.2706
25.149
25.3543
25.5934
26.1402
26.7769
27.5239
28.1084
28.2594
27.6479
26.3664
24.8184
23.3131
22.0319
21.0232
20.2931
19.7957
19.4758
19.3484
19.3926
19.5179
19.7409
20.0366
20.3354
20.5508
20.5138
20.7436
21.221
22.0387
23.0873
24.2593
25.3917
26.1007
25.7332
24.2833
22.3494
20.3089
18.4833
16.7032
15.5683
14.4152
23.3911
23.555
23.8643
24.5581
25.4027
26.4263
27.3475
27.8723
27.6253
26.5852
25.1461
23.6601
22.342
21.2778
20.5081
20.0059
19.756
19.7509
19.9012
20.0085
20.2004
20.4662
20.7345
20.8976
20.7469
20.7227
20.9134
21.4329
22.2513
23.2692
24.3476
25.1991
25.2754
24.3465
22.854
21.1616
19.5884
17.946
16.9139
15.7132
21.1891
21.3226
21.7002
22.5284
23.563
24.8347
26.0354
26.9295
27.1364
26.4844
25.2858
23.9139
22.6291
21.5701
20.8001
20.3306
20.1542
20.2197
20.4187
20.6488
20.6684
20.8774
21.0789
21.0929
20.9632
20.8517
20.8559
21.0805
21.5943
22.3586
23.2411
23.9969
24.1885
23.5494
22.4015
21.071
19.7954
18.4659
17.5904
16.4902
18.6988
18.8278
19.2649
20.2009
21.3891
22.8573
24.3025
25.5025
26.1469
25.9769
25.1427
24.0066
22.8599
21.8915
21.1991
20.8062
20.6948
20.7834
20.9631
21.1378
21.2486
21.2701
21.3796
21.2473
21.179
21.1103
21.0832
21.1342
21.3314
21.7307
22.272
22.7358
22.7624
22.1644
21.1522
20.0267
18.9416
17.9454
17.2293
16.3943
16.0474
16.2027
16.6856
17.6949
18.9895
20.5848
22.2505
23.6704
24.676
25.0066
24.6502
23.8852
23.0075
22.2407
21.7086
21.4391
21.3898
21.4616
21.5615
21.6318
21.6482
21.6291
21.6357
21.4647
21.4501
21.4715
21.5207
21.5552
21.5773
21.6267
21.7087
21.7084
21.3673
20.5952
19.5014
18.3727
17.2596
16.4087
15.6872
15.0384
13.3787
13.5555
14.0614
15.1043
16.4565
18.1159
19.9613
21.5098
22.788
23.5718
23.7706
23.5091
23.0416
22.5952
22.3096
22.2033
22.209
22.2297
22.202
22.1109
21.9794
21.8588
21.7537
21.7321
21.7684
21.9011
22.0697
22.2005
22.2289
22.1238
21.8406
21.3252
20.5035
19.3808
17.9985
16.6626
15.3071
14.4273
13.5709
13.0785
10.8095
10.9701
11.4678
12.5041
13.8701
15.565
17.4868
19.1063
20.588
21.7571
22.5057
22.848
22.9242
22.9138
22.9491
23.0312
23.083
23.0252
22.8316
22.5433
22.2411
22.0238
21.8187
21.9965
22.2405
22.449
22.6793
22.9379
23.0897
23.0555
22.7021
21.9476
20.7432
19.1887
17.3521
15.6311
13.8381
12.7722
11.5642
11.1955
8.36611
8.49735
8.96183
9.95363
11.291
12.9715
14.8561
16.5779
18.2168
19.6976
20.9437
21.9086
22.6139
23.1297
23.5373
23.8219
23.9126
23.7666
23.4012
22.9117
22.4459
22.1556
22.0465
22.3484
22.7528
23.1214
23.4974
23.6804
24.0189
24.1924
24.0575
23.4496
22.2468
20.5291
18.3003
16.1298
13.7569
12.3886
10.6845
10.2488
6.05067
6.1726
6.59134
7.50747
8.77633
10.4115
12.294
14.0736
15.8204
17.5505
19.2236
20.7692
22.1094
23.1844
23.9838
24.4811
24.6202
24.3985
23.905
23.274
22.7024
22.2094
22.356
22.7997
23.3238
23.8142
24.2638
24.7032
24.9325
25.3526
25.6013
25.407
24.6268
23.2021
20.9887
18.6502
15.8046
14.173
11.8694
11.2859
3.9206
4.04361
4.40474
5.21793
6.38663
7.93847
9.76033
11.6659
13.5187
15.4713
17.5151
19.5655
21.4733
23.0709
24.2401
24.9425
25.1791
24.9749
24.4245
23.715
22.821
22.5112
22.6951
23.251
23.8912
24.4694
25.0024
25.5468
26.1036
26.3815
27.003
27.405
27.2742
26.5503
24.8549
22.8617
19.9208
18.3408
15.5112
14.9038
2.00559
2.161
2.46643
3.15048
4.18997
5.63668
7.40986
9.41324
11.3993
13.5993
15.9879
18.4465
20.7972
22.8187
24.3082
25.2644
25.7
25.5847
25.0043
23.9207
23.1466
22.7443
22.8477
23.416
24.1935
24.9387
25.5913
26.2437
27.0029
27.6929
28.0423
29.0054
29.6666
29.8398
29.0013
27.8624
25.2905
24.2432
21.0283
20.5304
0.382577
0.558955
0.800854
1.32441
2.21328
3.53573
5.24179
7.29566
9.49398
11.9804
14.659
17.4185
20.0874
22.4315
24.2856
25.5663
26.2174
26.1668
25.3003
24.3798
23.4964
22.8439
22.6889
23.1173
23.9341
24.8959
25.8286
26.6843
27.6767
28.6948
29.4486
30.0118
31.368
32.4933
32.6635
32.6346
30.7929
30.7176
27.153
27.1731
-0.82037
-0.700774
-0.550917
-0.212036
0.509479
1.70142
3.32578
5.37097
7.81384
10.4242
13.2457
16.1867
19.0611
21.7435
24.0394
25.6979
26.6121
26.4624
25.8699
24.9322
23.8503
22.8835
22.3657
22.5128
23.2088
24.2341
25.4193
26.6886
27.9624
29.4017
30.6116
31.4953
32.4387
34.2061
35.3613
36.513
35.4752
36.6649
32.9935
33.7891
-1.66875
-1.69988
-1.70272
-1.56195
-1.02324
0.019357
1.56145
3.60198
6.02654
8.71647
11.5936
14.5981
17.6535
20.6651
23.4311
25.5823
26.7071
26.9995
26.487
25.4644
24.1731
22.911
22.018
21.786
22.2452
23.2003
24.4972
26.0224
27.7473
29.6392
31.3947
32.8435
33.9569
35.7432
36.4739
39.3051
38.8519
41.2902
37.848
39.6286
-2.2793
-2.49755
-2.58181
-2.57437
-2.18963
-1.35917
0.0283999
1.94807
4.25763
6.88931
9.74398
12.8128
16.0782
19.4223
22.6585
25.4016
26.9846
27.4691
27.0141
25.9178
24.4702
22.9737
21.7449
21.0954
21.2155
22.0274
23.3567
25.0419
27.0438
29.4117
31.7003
33.6497
35.2937
37.2788
38.0371
40.7418
40.5576
44.5371
41.6957
44.4845
-2.97468
-3.44718
-3.66277
-3.77818
-3.48204
-2.90438
-1.73585
-0.0152256
2.15898
4.71488
7.64998
10.9629
14.6006
18.509
22.3097
25.141
27.0022
27.696
27.3173
26.2189
24.705
23.0618
21.5618
20.5322
20.2378
20.8249
22.1599
24.0729
26.3138
28.9818
31.6975
34.106
35.9656
38.3591
39.622
42.8196
41.6957
46.1024
44.1092
48.5971
-4.19894
-4.16709
-4.39318
-4.45223
-4.26458
-3.8911
-3.16221
-1.75343
0.251668
2.82858
5.97219
9.65413
13.801
18.0753
21.9269
24.9649
26.9421
27.734
27.4516
26.4285
24.9063
23.1988
21.502
20.1563
19.4427
19.703
20.9528
23.0768
25.7138
28.7834
31.7339
34.5152
36.498
38.973
40.6139
44.2849
43.1606
49.248
45.937
52.3802
-3.00817
-4.45653
-5.1577
-5.98019
-6.11471
-5.94092
-5.47825
-4.14377
-2.0005
0.893203
4.47869
8.66449
13.2137
17.6545
21.5866
24.7691
26.8865
27.7976
27.57
26.5214
24.9501
23.2052
21.441
19.9274
18.8646
18.7664
19.8063
22.0433
25.0117
28.4153
31.665
34.8817
37.2663
39.6784
41.0277
45.4651
44.2185
50.9666
48.5852
58.6584
-4.40458
-3.46673
-4.88724
-5.7688
-6.55696
-6.69414
-6.50379
-5.21587
-2.96153
0.184088
4.10192
8.60862
13.3357
17.9429
21.9256
25.1047
27.1588
28.0074
27.7245
26.6555
25.0652
23.2718
21.425
19.8282
18.6594
18.3674
19.1532
21.3037
24.2799
27.9375
31.4024
34.9313
37.5609
40.512
41.6584
46.7059
46.3595
55.1059
54.8621
67.6822
0.134205
-3.34754
-5.07841
-7.71624
-8.91618
-8.90467
-8.71933
-7.24339
-4.65171
-1.08638
3.2499
8.12921
13.1904
17.97
22.0607
25.2197
27.1991
27.9861
27.6737
26.6069
24.9999
23.1901
21.2947
19.6569
18.384
17.9848
18.5583
20.5332
23.4339
27.3365
31.0667
34.9839
37.5638
41.051
41.928
47.651
48.8237
60.0376
58.5465
71.8699
-3.98748
-0.862209
-4.70292
-6.82477
-8.9645
-9.50691
-9.13103
-7.57451
-4.92783
-1.27311
3.20431
8.24284
13.4347
18.3262
22.4715
25.6038
27.496
28.2177
27.8565
26.7596
25.1168
23.2783
21.3352
19.664
18.3259
17.8782
18.3338
20.2228
23.0532
27.0419
30.8349
34.8662
37.427
41.1952
42.6793
50.3713
54.7746
68.6978
69.9877
88.5078
-0.593474
-0.479186
-0.385299
-0.3192
-0.360011
-0.388264
-0.277842
0.066777
0.895178
2.28742
3.71718
5.06385
6.42964
8.19506
10.3605
12.8409
15.5408
18.3304
21.176
24.2028
26.9734
29.0476
29.505
27.5589
23.8672
19.3201
14.6576
10.324
6.56778
3.59802
1.53394
1.02211
-0.0303702
-0.664191
-1.34345
-1.94618
-2.51748
-2.92058
-3.16178
-3.31615
-0.471123
-0.345133
-0.266971
-0.222834
-0.318533
-0.335393
-0.207128
0.115818
0.732651
1.83581
3.07442
4.53913
6.20832
8.1663
10.4599
13.0713
15.9595
19.0302
22.1925
25.3416
28.1798
30.1509
30.4361
28.4209
24.6467
19.9797
15.2481
10.897
7.13138
4.00468
1.62447
0.162252
-0.723197
-0.619861
-1.25016
-1.70858
-2.23008
-2.65108
-2.97649
-3.1397
-0.163007
-0.0614426
-0.055635
-0.162346
-0.24669
-0.283181
-0.165548
0.0566967
0.582643
1.58944
2.90552
4.48715
6.35107
8.48989
10.8926
13.5626
16.4834
19.5916
22.78
25.8957
28.5973
30.3909
30.4691
28.3429
24.5096
19.8153
15.0937
10.8371
7.20017
4.05378
1.54481
-0.192336
-1.28341
-1.69936
-1.97539
-1.81953
-2.19819
-2.49251
-2.77638
-2.93558
0.24243
0.303297
0.18859
0.036413
-0.0838496
-0.0914811
-0.0223868
0.314162
1.03654
2.14076
3.55916
5.28398
7.33427
9.61595
12.1037
14.8033
17.7088
20.7694
23.881
26.8332
29.3447
30.8746
30.8083
28.7451
25.0039
20.3812
15.7304
11.6013
8.09438
4.77264
2.3249
0.457139
-0.974951
-1.80327
-2.15268
-2.24468
-2.38094
-2.35038
-2.44303
-2.60544
0.719985
0.716926
0.429112
0.344699
0.239844
0.25866
0.543123
1.18327
2.16196
3.41914
4.95008
6.81255
8.92974
11.2217
13.6893
16.3526
19.1975
22.1787
25.1408
27.8047
29.9121
31.0776
30.9343
29.2081
25.9398
21.648
17.1265
12.9951
9.31934
6.10495
3.36001
1.2607
-0.175781
-1.507
-2.22943
-2.48197
-2.52536
-2.4579
-2.44424
-2.51619
1.15668
0.861243
0.837882
0.815749
0.839731
1.09089
1.73665
2.72959
3.96232
5.40282
7.09574
9.07623
11.2148
13.4962
15.9181
18.5333
21.2765
24.0939
26.7804
28.7106
30.1304
30.7927
30.4981
29.3371
27.0574
23.6153
19.4062
15.2443
11.4009
8.07136
4.84145
2.02771
0.12881
-0.784394
-1.87917
-2.43268
-2.59214
-2.53959
-2.44199
-2.47516
1.45192
1.49109
1.59835
1.72629
1.95498
2.51083
3.5122
4.81771
6.29281
7.92242
9.82999
11.9146
14.0102
16.3798
18.828
21.4804
24.0083
26.3713
28.2067
29.3236
29.7558
29.6601
29.1793
28.3985
27.0662
24.8806
21.7445
18.0268
13.8609
9.7423
6.7725
3.88233
1.35397
-0.513274
-1.22791
-2.14398
-2.51966
-2.57621
-2.46892
-2.50266
2.67824
2.66728
2.83768
3.16217
3.68321
4.50444
5.75868
7.29469
8.99375
10.8466
12.984
15.2362
17.4847
19.681
21.9066
24.2426
26.3727
27.9111
28.6512
28.7535
28.4827
28.0337
27.554
27.0845
26.4029
25.1645
23.1184
19.8507
15.9561
12.8382
9.86222
6.86622
3.717
1.08509
-0.851395
-1.52255
-2.20286
-2.42123
-2.37181
-2.41399
4.48745
4.38913
4.61338
5.11644
5.90552
7.00059
8.37859
10.0027
11.8565
13.9605
16.2224
18.4693
20.6411
22.6992
24.6126
26.3032
27.4611
27.9203
27.8005
27.3594
26.8099
26.3244
25.9558
25.7169
25.4294
24.8932
23.8768
21.9079
19.482
16.7255
13.6017
10.1962
6.74964
3.39338
0.849867
-0.897524
-1.57886
-1.95487
-2.02837
-2.08612
6.7715
6.63269
6.8891
7.49681
8.49054
9.77819
11.2753
12.8555
14.7292
16.8227
19.046
21.2679
23.3193
25.0213
26.2453
26.9317
27.0819
26.8099
26.2719
25.6365
25.0542
24.6252
24.3901
24.3134
24.3164
24.3527
24.4958
23.9898
22.6449
20.305
17.1065
13.323
9.55193
6.11835
3.07421
0.919324
-0.309258
-1.00688
-1.27717
-1.36996
9.33961
9.39146
9.58642
10.2034
11.2676
12.6087
14.1434
15.7674
17.4107
19.2662
21.2651
23.2653
24.9614
26.0476
26.4298
26.3023
25.8547