/*--------------------------------*- C++ -*----------------------------------*\
| =========                 |                                                 |
| \\      /  F ield         | OpenFOAM: The Open Source CFD Toolbox           |
|  \\    /   O peration     | Version:  v1806                                 |
|   \\  /    A nd           | Web:      www.OpenFOAM.com                      |
|    \\/     M anipulation  |                                                 |
\*---------------------------------------------------------------------------*/
FoamFile
{
    version     2.0;
    format      ascii;
    class       volVectorField;
    location    "0.0075";
    object      U;
}
// * * * * * * * * * * * * * * * * * * * * * * * * * * * * * * * * * * * * * //

dimensions      [0 1 -1 0 0 0 0];


internalField   nonuniform List<vector> 
64000
(
(-0.000851122 -0.00255253 0.00199923)
(0.00495869 -0.00453812 0.000952507)
(0.0157027 -0.00469009 0.00119127)
(0.0258777 -0.00447591 0.00142451)
(0.0346366 -0.00389563 0.00172399)
(0.0397516 -0.00360301 0.00194825)
(0.0417573 -0.00372573 0.00198882)
(0.0398418 -0.00399613 0.00204684)
(0.0348059 -0.00427547 0.00215726)
(0.0276855 -0.00445779 0.00231728)
(0.0187698 -0.00424585 0.00295856)
(0.00766254 -0.00280518 0.00365236)
(-0.00811243 -0.00235373 0.00578478)
(-0.0330371 -0.00365384 0.00681182)
(-0.06613 -0.00664873 0.00825744)
(-0.104523 -0.0109871 0.00842268)
(-0.144715 -0.0145533 0.00826349)
(-0.181992 -0.0184697 0.0065866)
(-0.22152 -0.023315 0.00220324)
(-0.258382 -0.0241641 -0.000728205)
(-0.279632 -0.0225758 -0.00634706)
(-0.280037 -0.0196662 -0.0167662)
(-0.254769 -0.0159618 -0.0296539)
(-0.215477 -0.0128043 -0.0440193)
(-0.177196 -0.00729785 -0.0571992)
(-0.138365 0.000641567 -0.0676704)
(-0.0962398 0.00927007 -0.0745575)
(-0.0529867 0.0172437 -0.0767438)
(-0.0142636 0.0246054 -0.0721684)
(0.0205752 0.033399 -0.0579857)
(0.0562456 0.0389674 -0.0407446)
(0.0898401 0.0330029 -0.0316022)
(0.109774 0.0220763 -0.0167357)
(0.108495 0.0131313 -0.00463028)
(0.0920164 0.00550855 0.00315915)
(0.070821 0.000196239 0.00648687)
(0.0501114 -0.0027814 0.00686423)
(0.0324472 -0.00366886 0.00612434)
(0.0162093 -0.00323058 0.00539784)
(0.00374611 -0.00304774 0.00498877)
(-0.000208242 -0.0100714 0.002411)
(0.0097873 -0.0155149 0.000354351)
(0.0274229 -0.0148695 -5.31427e-05)
(0.0429808 -0.0114551 -0.000119636)
(0.0551372 -0.00740994 -0.000147985)
(0.0610428 -0.00435196 -0.000962584)
(0.0618948 -0.00194583 -0.00194519)
(0.0568497 0.000718267 -0.00301358)
(0.0460557 0.00369628 -0.00417023)
(0.0299679 0.00859892 -0.00514542)
(0.00877833 0.0167192 -0.00391241)
(-0.0211526 0.0259281 -0.00684012)
(-0.0643663 0.0314973 -0.0114166)
(-0.123098 0.0357207 -0.0172249)
(-0.194704 0.0410351 -0.0227684)
(-0.272851 0.0476801 -0.0291527)
(-0.353249 0.0579189 -0.0369925)
(-0.43122 0.070353 -0.04712)
(-0.503114 0.0841734 -0.060126)
(-0.562266 0.104636 -0.0753932)
(-0.599452 0.128936 -0.0930501)
(-0.606756 0.153794 -0.112107)
(-0.578779 0.177034 -0.130775)
(-0.523876 0.195439 -0.147751)
(-0.456582 0.213302 -0.16184)
(-0.381445 0.230015 -0.171091)
(-0.299401 0.242503 -0.17417)
(-0.213272 0.248387 -0.170098)
(-0.127965 0.247839 -0.157833)
(-0.0501188 0.243685 -0.136945)
(0.0121044 0.232692 -0.108567)
(0.0640301 0.209365 -0.0725563)
(0.106381 0.170876 -0.0525055)
(0.122649 0.125885 -0.0334856)
(0.113526 0.0862336 -0.0188021)
(0.0934152 0.0558775 -0.0104979)
(0.0703266 0.0353266 -0.00596252)
(0.0491958 0.0230203 -0.0036521)
(0.0286932 0.0154241 -0.00120596)
(0.00877715 0.00577904 0.00167748)
(-5.4749e-05 -0.0187794 0.00247477)
(0.0120907 -0.0256463 -0.000713473)
(0.0333715 -0.0216236 -0.0016149)
(0.0501032 -0.0119888 -0.00168967)
(0.0601434 -0.00268904 -0.00259595)
(0.062104 0.00584289 -0.00401652)
(0.0578621 0.0145752 -0.00594153)
(0.0453102 0.0247182 -0.00749859)
(0.0249449 0.0384566 -0.0108885)
(-0.00201804 0.0584532 -0.0127292)
(-0.0398108 0.0801441 -0.0174739)
(-0.09494 0.101085 -0.0245983)
(-0.164523 0.121796 -0.0307813)
(-0.243927 0.143 -0.0376001)
(-0.331453 0.16798 -0.0443123)
(-0.42088 0.19677 -0.0511561)
(-0.506533 0.229697 -0.0586942)
(-0.583324 0.266264 -0.0673455)
(-0.646982 0.306056 -0.0771117)
(-0.692609 0.349318 -0.0874479)
(-0.714762 0.393757 -0.0974674)
(-0.707682 0.43611 -0.105995)
(-0.667536 0.473085 -0.111881)
(-0.601432 0.50182 -0.116322)
(-0.524135 0.522767 -0.118499)
(-0.44431 0.534533 -0.117215)
(-0.363732 0.534985 -0.112194)
(-0.283522 0.522367 -0.104089)
(-0.205613 0.496692 -0.0934219)
(-0.13347 0.459484 -0.0800205)
(-0.0710012 0.414131 -0.0642282)
(-0.0219633 0.366322 -0.0471984)
(0.0135338 0.309639 -0.0317729)
(0.0388054 0.246291 -0.0175591)
(0.0522649 0.1877 -0.0153998)
(0.0541519 0.139027 -0.0127952)
(0.048641 0.100771 -0.00918998)
(0.0399274 0.0741535 -0.00717736)
(0.0271703 0.0531144 -0.00368504)
(0.00940023 0.0254209 0.00127425)
(-0.000164971 -0.0241578 0.00212143)
(0.0140528 -0.0295124 -0.0023154)
(0.0379741 -0.0193829 -0.00375601)
(0.0522848 -0.00417656 -0.00436707)
(0.0567864 0.0117349 -0.00530018)
(0.0528452 0.0282335 -0.00710604)
(0.0412813 0.0462672 -0.0100976)
(0.0212863 0.0679592 -0.0128744)
(-0.00580318 0.0982739 -0.0162362)
(-0.0455549 0.133927 -0.0224417)
(-0.101054 0.168442 -0.0285818)
(-0.167862 0.202649 -0.034644)
(-0.243777 0.238892 -0.0403142)
(-0.32492 0.274803 -0.0447618)
(-0.406719 0.311935 -0.0474221)
(-0.484322 0.350914 -0.0485636)
(-0.55383 0.392208 -0.0488351)
(-0.612101 0.435734 -0.0484454)
(-0.656449 0.481182 -0.0473167)
(-0.684399 0.527708 -0.045252)
(-0.692833 0.572835 -0.0419441)
(-0.677461 0.613145 -0.0371521)
(-0.634927 0.645709 -0.0316944)
(-0.571711 0.665878 -0.0271001)
(-0.502121 0.67115 -0.0227767)
(-0.434744 0.662636 -0.0175189)
(-0.371152 0.641379 -0.011879)
(-0.311458 0.608194 -0.00768088)
(-0.255484 0.564132 -0.00591371)
(-0.203548 0.510338 -0.00561256)
(-0.155855 0.44992 -0.00623431)
(-0.113029 0.38771 -0.00677278)
(-0.0756149 0.329915 -0.00729568)
(-0.0436691 0.277179 -0.00777722)
(-0.0185292 0.227892 -0.00956935)
(-0.0015584 0.1844 -0.0105465)
(0.0101244 0.147693 -0.00956402)
(0.0186923 0.118422 -0.00940463)
(0.0195955 0.0887512 -0.00529494)
(0.00864638 0.0450292 0.0011607)
(0.000483752 -0.0245777 0.000909195)
(0.0178848 -0.0243912 -0.00545469)
(0.0421431 -0.00868032 -0.00722255)
(0.0522132 0.0127436 -0.00763156)
(0.0515821 0.0381094 -0.00810056)
(0.0410228 0.0652509 -0.0100853)
(0.0230616 0.095112 -0.0125163)
(-0.000185747 0.131117 -0.0152141)
(-0.0317669 0.175677 -0.0202926)
(-0.0788552 0.219993 -0.0264935)
(-0.137881 0.266783 -0.0309084)
(-0.203132 0.311582 -0.0346412)
(-0.27286 0.354766 -0.0366888)
(-0.342681 0.396264 -0.0359237)
(-0.40881 0.436628 -0.0321117)
(-0.468212 0.476649 -0.0259662)
(-0.518606 0.517722 -0.018432)
(-0.558148 0.559954 -0.00974619)
(-0.58569 0.601974 0.000713567)
(-0.600663 0.643409 0.0123429)
(-0.601981 0.682715 0.0241315)
(-0.585656 0.716846 0.0356283)
(-0.549839 0.740472 0.0434927)
(-0.501542 0.745744 0.047121)
(-0.451832 0.730519 0.0488652)
(-0.405655 0.698837 0.0503799)
(-0.364576 0.655681 0.0509562)
(-0.328544 0.604833 0.0481046)
(-0.297028 0.549086 0.0403697)
(-0.268265 0.490915 0.0309302)
(-0.23781 0.432254 0.0204748)
(-0.202667 0.373804 0.0102706)
(-0.163354 0.321046 0.0007744)
(-0.123422 0.276405 -0.0060112)
(-0.0858809 0.238648 -0.0102862)
(-0.0530935 0.206436 -0.0122092)
(-0.0254384 0.179389 -0.0123004)
(-0.00439106 0.153865 -0.0108162)
(0.00831673 0.121356 -0.00547521)
(0.00633284 0.0652489 0.00169986)
(0.00163373 -0.0190902 -0.000609177)
(0.0206634 -0.0109626 -0.00972865)
(0.0449178 0.0101181 -0.0126678)
(0.0534371 0.0404179 -0.0113099)
(0.0488322 0.0765852 -0.010794)
(0.03276 0.115596 -0.0110821)
(0.0118239 0.157737 -0.0126183)
(-0.0110545 0.205054 -0.0151256)
(-0.0436192 0.255216 -0.020033)
(-0.0880418 0.304657 -0.0234433)
(-0.140755 0.354015 -0.0265568)
(-0.199013 0.400768 -0.0271934)
(-0.257039 0.444422 -0.0249718)
(-0.312585 0.485973 -0.0192486)
(-0.362688 0.525625 -0.00960969)
(-0.404378 0.561719 0.00258863)
(-0.436788 0.594022 0.0135659)
(-0.460945 0.62392 0.0231948)
(-0.476448 0.654234 0.0377594)
(-0.482406 0.686401 0.0537692)
(-0.479632 0.717649 0.0676072)
(-0.468309 0.741585 0.076703)
(-0.45019 0.749803 0.0801843)
(-0.429353 0.737125 0.0786746)
(-0.409076 0.70483 0.0752889)
(-0.389749 0.657926 0.0715818)
(-0.372249 0.602337 0.0674339)
(-0.35711 0.543206 0.0614239)
(-0.342909 0.483724 0.0526863)
(-0.327583 0.427229 0.0417953)
(-0.309241 0.376532 0.0248016)
(-0.28205 0.331328 0.0114029)
(-0.241803 0.292009 0.000283562)
(-0.19361 0.260803 -0.00953657)
(-0.143787 0.236221 -0.0151969)
(-0.096903 0.216204 -0.0170178)
(-0.0556059 0.197825 -0.0159735)
(-0.0226464 0.177339 -0.0127278)
(0.000563329 0.145439 -0.00663875)
(0.00498773 0.0817487 0.00193451)
(0.00150105 -0.0097807 -0.00250519)
(0.0219101 0.00947457 -0.0163447)
(0.0494187 0.0398336 -0.0183581)
(0.059654 0.0790951 -0.0158286)
(0.0534629 0.125369 -0.0121741)
(0.0347601 0.176157 -0.0107765)
(0.0133394 0.229083 -0.010998)
(-0.00837319 0.281668 -0.0123899)
(-0.0367481 0.332021 -0.0151611)
(-0.0748602 0.381019 -0.0169089)
(-0.11828 0.426958 -0.017003)
(-0.163659 0.46851 -0.0154724)
(-0.207506 0.509705 -0.0105615)
(-0.247035 0.548473 -0.00451783)
(-0.283508 0.582883 0.00358677)
(-0.316169 0.60755 0.0164379)
(-0.341263 0.625225 0.0302365)
(-0.355187 0.641103 0.0442045)
(-0.358357 0.660241 0.0581327)
(-0.356875 0.680036 0.0697553)
(-0.358384 0.694531 0.0769561)
(-0.364855 0.698492 0.0794774)
(-0.373527 0.68847 0.0779937)
(-0.382197 0.663907 0.0733032)
(-0.389839 0.62727 0.0672199)
(-0.395492 0.581372 0.0610128)
(-0.398794 0.529193 0.0550934)
(-0.400212 0.474055 0.0493357)
(-0.398765 0.419056 0.0431045)
(-0.391083 0.366589 0.0339256)
(-0.37505 0.320899 0.0207196)
(-0.347781 0.286471 0.00801785)
(-0.305895 0.261134 -0.00222986)
(-0.25237 0.243396 -0.011546)
(-0.19319 0.231601 -0.019022)
(-0.133915 0.222918 -0.0218153)
(-0.0798991 0.213066 -0.0202213)
(-0.0365568 0.197966 -0.0154901)
(-0.00446117 0.166379 -0.00812378)
(0.00480086 0.0962627 0.00183619)
(9.74177e-05 0.00312363 -0.00614481)
(0.0236156 0.0404663 -0.0226035)
(0.0576192 0.0816553 -0.0243255)
(0.0716866 0.127903 -0.0206142)
(0.0683361 0.180575 -0.0140148)
(0.0507307 0.239818 -0.00995502)
(0.0288619 0.300236 -0.008706)
(0.00831041 0.355959 -0.00771266)
(-0.0149743 0.40381 -0.0083733)
(-0.0435197 0.446357 -0.00840598)
(-0.0774298 0.486353 -0.00838052)
(-0.109826 0.521228 -0.00454981)
(-0.137776 0.553531 0.000946862)
(-0.166767 0.580156 0.00719216)
(-0.198802 0.600467 0.0140546)
(-0.228095 0.61017 0.0248587)
(-0.24504 0.615881 0.0373436)
(-0.249885 0.622898 0.0490945)
(-0.250902 0.629109 0.0573615)
(-0.258793 0.62848 0.0614059)
(-0.276897 0.61975 0.0622998)
(-0.302476 0.605047 0.0607988)
(-0.331803 0.585623 0.0573308)
(-0.361842 0.561288 0.0525585)
(-0.390268 0.531521 0.0472781)
(-0.415024 0.495543 0.0422484)
(-0.434558 0.453286 0.037656)
(-0.447887 0.405879 0.0336722)
(-0.45394 0.357427 0.0298881)
(-0.449855 0.312124 0.0237778)
(-0.432512 0.273802 0.015246)
(-0.401173 0.245931 0.00532549)
(-0.356128 0.23008 -0.00358727)
(-0.299091 0.222224 -0.0120501)
(-0.233454 0.221548 -0.0194237)
(-0.164923 0.22409 -0.0241269)
(-0.0997374 0.22361 -0.0236455)
(-0.0469266 0.214324 -0.0183747)
(-0.00772334 0.18399 -0.0099828)
(0.00492921 0.107724 0.00167591)
(-0.000166547 0.0212625 -0.00832289)
(0.0278616 0.0818132 -0.0284109)
(0.0695944 0.133056 -0.0299097)
(0.0891316 0.184216 -0.0242423)
(0.0919129 0.238517 -0.0172649)
(0.079766 0.299256 -0.00995177)
(0.0602728 0.362027 -0.00633071)
(0.0391772 0.419703 -0.00378999)
(0.0175574 0.466179 -0.00211214)
(-0.00336104 0.503442 -0.00100993)
(-0.0256616 0.532318 0.000862316)
(-0.0480399 0.556456 0.00478689)
(-0.0691735 0.571961 0.00938479)
(-0.09085 0.5818 0.0145611)
(-0.117872 0.58664 0.0189331)
(-0.144517 0.584622 0.0270286)
(-0.158753 0.581474 0.036177)
(-0.166508 0.575832 0.0423857)
(-0.179608 0.563403 0.0444823)
(-0.202812 0.545098 0.0440205)
(-0.234459 0.525166 0.0419636)
(-0.272421 0.506376 0.038998)
(-0.314303 0.488948 0.0356514)
(-0.35757 0.471202 0.0324883)
(-0.399692 0.450275 0.029754)
(-0.437912 0.423296 0.0274457)
(-0.469457 0.388441 0.0253975)
(-0.491205 0.347379 0.0235472)
(-0.500476 0.304691 0.0214026)
(-0.495854 0.266358 0.0174288)
(-0.477107 0.235252 0.0112595)
(-0.443274 0.212702 0.00453485)
(-0.39622 0.200335 -0.00439965)
(-0.337369 0.197036 -0.011903)
(-0.26679 0.203503 -0.01892)
(-0.190673 0.21631 -0.0240155)
(-0.116051 0.226586 -0.0251782)
(-0.0549875 0.224758 -0.0204306)
(-0.0100163 0.197389 -0.0115689)
(0.00507872 0.116034 0.00158675)
(-1.76884e-05 0.0446034 -0.0101329)
(0.0340373 0.129814 -0.0334846)
(0.0853188 0.190426 -0.0343143)
(0.111009 0.244352 -0.0258413)
(0.120242 0.297707 -0.0200509)
(0.116082 0.353116 -0.0118588)
(0.102334 0.410734 -0.00486279)
(0.083236 0.464748 0.000312475)
(0.0624836 0.510342 0.00244336)
(0.0426877 0.543937 0.00513701)
(0.0238531 0.564291 0.00798463)
(0.00664856 0.574458 0.0120194)
(-0.00791013 0.574898 0.0164709)
(-0.0233097 0.569063 0.0194901)
(-0.0489988 0.557875 0.0212453)
(-0.0757583 0.543815 0.026938)
(-0.0941888 0.528815 0.0307678)
(-0.114319 0.509064 0.0315718)
(-0.141 0.485867 0.0304404)
(-0.174611 0.463619 0.0281597)
(-0.214352 0.444548 0.0252972)
(-0.259063 0.429013 0.0224768)
(-0.307218 0.415852 0.0202675)
(-0.357208 0.402704 0.0191662)
(-0.40716 0.386469 0.018992)
(-0.454372 0.364536 0.0190729)
(-0.494129 0.33521 0.0188295)
(-0.520976 0.299825 0.0190464)
(-0.531607 0.263292 0.0179112)
(-0.526498 0.230778 0.0141529)
(-0.508032 0.204965 0.00751036)
(-0.476422 0.184417 0.00261549)
(-0.43216 0.169083 -0.00395798)
(-0.372939 0.166453 -0.0124846)
(-0.297515 0.176533 -0.0202502)
(-0.213542 0.196558 -0.0241587)
(-0.130018 0.218549 -0.0258702)
(-0.0610845 0.227014 -0.0219005)
(-0.0113881 0.205145 -0.0127391)
(0.00515251 0.120502 0.00151485)
(0.000449015 0.0701744 -0.0116508)
(0.0418256 0.180698 -0.037741)
(0.104295 0.249194 -0.0373694)
(0.13737 0.303918 -0.025742)
(0.151441 0.355056 -0.0178541)
(0.153064 0.403744 -0.0128942)
(0.146471 0.45071 -0.00547517)
(0.132838 0.494277 0.0015494)
(0.114076 0.532986 0.00795949)
(0.0933274 0.561274 0.0108472)
(0.0739414 0.576207 0.0133745)
(0.0574512 0.577776 0.0161383)
(0.0433062 0.568583 0.01914)
(0.0273716 0.551395 0.0215069)
(0.0017361 0.527919 0.0223508)
(-0.0278923 0.496639 0.0243579)
(-0.0553685 0.469527 0.02408)
(-0.0856062 0.442669 0.0224253)
(-0.119816 0.419069 0.0198636)
(-0.158991 0.399588 0.0170442)
(-0.202686 0.383818 0.0144577)
(-0.249941 0.370617 0.0125324)
(-0.299881 0.358461 0.0116612)
(-0.351875 0.345507 0.0121595)
(-0.404668 0.330188 0.0136457)
(-0.455849 0.31106 0.0152933)
(-0.500774 0.287537 0.0165371)
(-0.531729 0.259344 0.0174108)
(-0.543924 0.228552 0.0161661)
(-0.539545 0.199534 0.0118289)
(-0.525802 0.170084 0.0150819)
(-0.504366 0.142458 0.0165609)
(-0.466162 0.122149 0.0119596)
(-0.407631 0.117925 0.00166472)
(-0.330653 0.13183 -0.0106241)
(-0.238551 0.162099 -0.0253407)
(-0.14356 0.19701 -0.027087)
(-0.066021 0.219266 -0.0232982)
(-0.0122078 0.206217 -0.0135958)
(0.00514909 0.120739 0.00139002)
(0.000959245 0.0963899 -0.013079)
(0.0499706 0.231439 -0.0414969)
(0.124769 0.305874 -0.03998)
(0.166844 0.35856 -0.0248409)
(0.18606 0.40507 -0.0134339)
(0.190096 0.447718 -0.00677946)
(0.1865 0.485032 -0.00286399)
(0.17844 0.516532 0.00106445)
(0.164588 0.542003 0.0087877)
(0.144595 0.560317 0.0150275)
(0.122864 0.569423 0.0181184)
(0.103732 0.565051 0.0192494)
(0.0882724 0.548947 0.020108)
(0.0692646 0.523819 0.0197544)
(0.0313735 0.490907 0.0173854)
(-0.00577741 0.450612 0.0213465)
(-0.0334261 0.415422 0.0192274)
(-0.0676494 0.388498 0.0163426)
(-0.105192 0.367133 0.0131873)
(-0.14671 0.349688 0.0104787)
(-0.191233 0.334399 0.00855394)
(-0.237936 0.320082 0.00764295)
(-0.286545 0.305892 0.00793019)
(-0.336931 0.29144 0.00952002)
(-0.388617 0.276355 0.0117002)
(-0.43974 0.259974 0.0137079)
(-0.48602 0.241811 0.0159252)
(-0.520797 0.220465 0.0169773)
(-0.537518 0.19361 0.0155495)
(-0.542422 0.160239 0.0206831)
(-0.541428 0.122791 0.0189237)
(-0.527828 0.0884193 0.0135491)
(-0.494581 0.0648372 0.00715989)
(-0.438248 0.0562954 -0.00172348)
(-0.358494 0.0703394 -0.0110001)
(-0.262208 0.109211 -0.0192821)
(-0.159303 0.160431 -0.0299853)
(-0.071236 0.200349 -0.0254261)
(-0.0129858 0.200602 -0.0147206)
(0.00485902 0.117985 0.00094175)
(0.00123973 0.122293 -0.0142891)
(0.0571139 0.280196 -0.0446377)
(0.143732 0.35871 -0.0430346)
(0.195818 0.406597 -0.0247311)
(0.221613 0.445025 -0.00957539)
(0.228031 0.479556 -0.000339218)
(0.225003 0.508819 0.00453382)
(0.217409 0.530996 0.00756004)
(0.205745 0.544797 0.0102144)
(0.190046 0.551611 0.0126838)
(0.169057 0.551262 0.0200228)
(0.145832 0.541496 0.0207078)
(0.123835 0.518805 0.01919)
(0.0958954 0.484178 0.0169411)
(0.0512458 0.44365 0.0136991)
(0.00807942 0.409226 0.0164577)
(-0.0217331 0.371276 0.0158139)
(-0.0543524 0.345632 0.0125863)
(-0.0923938 0.324547 0.00956025)
(-0.13359 0.305998 0.00731055)
(-0.176493 0.288258 0.00614334)
(-0.22017 0.271032 0.00613954)
(-0.264634 0.254734 0.00733139)
(-0.310504 0.239715 0.00953906)
(-0.358209 0.225727 0.0121819)
(-0.40653 0.212281 0.0146196)
(-0.452445 0.197968 0.0169301)
(-0.491072 0.179829 0.0186094)
(-0.518665 0.1535 0.021799)
(-0.534611 0.115968 0.019195)
(-0.540292 0.0767972 0.0150318)
(-0.534224 0.0416538 0.00941456)
(-0.51089 0.0168412 0.00223563)
(-0.46421 0.00539802 -0.00644443)
(-0.388891 0.0120292 -0.0159847)
(-0.288563 0.0441914 -0.0243938)
(-0.177574 0.105722 -0.0276202)
(-0.0793463 0.168382 -0.0285775)
(-0.0144016 0.188292 -0.0166844)
(0.00453236 0.114135 -0.000136725)
(0.00133449 0.147332 -0.0147948)
(0.0621221 0.325364 -0.0463507)
(0.158659 0.407407 -0.0457337)
(0.220659 0.448731 -0.026107)
(0.253819 0.476284 -0.00770266)
(0.263556 0.499383 0.00440328)
(0.261053 0.519025 0.0106556)
(0.253243 0.533398 0.0139303)
(0.241892 0.540351 0.0151356)
(0.226909 0.539149 0.0162253)
(0.207022 0.529178 0.0183536)
(0.180551 0.511518 0.0201372)
(0.148904 0.482161 0.0172166)
(0.112502 0.441084 0.0143081)
(0.0674448 0.399026 0.0109883)
(0.0200836 0.368632 0.0113302)
(-0.0131271 0.334908 0.0136032)
(-0.0423212 0.309111 0.010519)
(-0.0794404 0.286333 0.00801691)
(-0.118464 0.264786 0.00639839)
(-0.157784 0.243958 0.00597616)
(-0.196274 0.224647 0.00668091)
(-0.234673 0.207695 0.00829658)
(-0.274597 0.193052 0.0106307)
(-0.316975 0.180318 0.013298)
(-0.361392 0.168683 0.0161347)
(-0.406384 0.156242 0.0187652)
(-0.44901 0.13946 0.0208795)
(-0.484302 0.113856 0.0218507)
(-0.50708 0.0790196 0.0200258)
(-0.518013 0.0404809 0.015501)
(-0.517507 0.00609053 0.00904017)
(-0.504241 -0.0239096 -0.00152589)
(-0.475947 -0.0460821 -0.0143722)
(-0.421889 -0.048881 -0.0256151)
(-0.329242 -0.0189445 -0.0325365)
(-0.205961 0.0403517 -0.0346207)
(-0.0911047 0.123375 -0.0317044)
(-0.0164745 0.169497 -0.0195071)
(0.00465624 0.111208 -0.00183081)
(0.00100968 0.17029 -0.0145758)
(0.0647806 0.365086 -0.0457421)
(0.16827 0.45098 -0.0464653)
(0.2386 0.486011 -0.0271264)
(0.278984 0.502011 -0.00715705)
(0.293323 0.511996 0.00721)
(0.293296 0.520177 0.0150016)
(0.2859 0.526232 0.0187145)
(0.274013 0.52712 0.0188985)
(0.258262 0.520515 0.0184299)
(0.236795 0.504111 0.0182728)
(0.206267 0.477901 0.0186702)
(0.166328 0.443124 0.0187865)
(0.123419 0.402018 0.0116196)
(0.0806673 0.360398 0.00888901)
(0.0338006 0.329529 0.00779723)
(-0.00252284 0.303613 0.0113076)
(-0.0309329 0.276006 0.00944859)
(-0.0658107 0.251238 0.00769986)
(-0.101453 0.227124 0.00675691)
(-0.135731 0.204597 0.00687627)
(-0.168073 0.18467 0.00778911)
(-0.200278 0.167617 0.00931059)
(-0.234442 0.153191 0.0114422)
(-0.271593 0.140889 0.0139847)
(-0.311769 0.129733 0.0169027)
(-0.354617 0.118122 0.0198428)
(-0.398277 0.103578 0.0219041)
(-0.437215 0.0817664 0.0232902)
(-0.463456 0.0500385 0.0226784)
(-0.474423 0.0128778 0.0188743)
(-0.479779 -0.0268209 0.00974612)
(-0.484849 -0.0724003 -0.00273993)
(-0.475849 -0.11271 -0.0163112)
(-0.433934 -0.130479 -0.0305245)
(-0.36267 -0.106152 -0.0475501)
(-0.249456 -0.0335229 -0.045793)
(-0.115438 0.0623925 -0.0371002)
(-0.0210573 0.143421 -0.0255831)
(0.00579172 0.109646 -0.00419899)
(0.000599885 0.189 -0.0136364)
(0.0652221 0.397218 -0.0436038)
(0.172616 0.487798 -0.0452124)
(0.249452 0.518419 -0.0263292)
(0.296233 0.523987 -0.005557)
(0.315299 0.521427 0.0096805)
(0.318887 0.517248 0.017697)
(0.313715 0.513581 0.0206789)
(0.302414 0.508077 0.0204834)
(0.28472 0.4965 0.0197284)
(0.259027 0.474853 0.0184929)
(0.224016 0.443135 0.017345)
(0.180871 0.405256 0.0160716)
(0.134083 0.36652 0.0142558)
(0.0906334 0.328608 0.0070726)
(0.048932 0.295971 0.00654338)
(0.0114231 0.273707 0.00864456)
(-0.0193395 0.245639 0.00902149)
(-0.0509555 0.219956 0.00796029)
(-0.0828635 0.194953 0.00750641)
(-0.112117 0.172117 0.00772322)
(-0.139282 0.151915 0.00841211)
(-0.166513 0.134382 0.00958107)
(-0.195829 0.119448 0.011398)
(-0.228324 0.106768 0.01373)
(-0.264138 0.0954242 0.0163683)
(-0.30292 0.0841202 0.0185477)
(-0.344449 0.0714534 0.0208213)
(-0.384669 0.0522291 0.0228182)
(-0.411747 0.0207947 0.0237844)
(-0.425123 -0.0201392 0.0196131)
(-0.440149 -0.0715383 0.0114033)
(-0.456705 -0.129741 0.00173895)
(-0.46106 -0.183871 -0.0114452)
(-0.436493 -0.219205 -0.0273532)
(-0.372074 -0.215489 -0.0457172)
(-0.278501 -0.139405 -0.0600927)
(-0.148983 -0.00825751 -0.0436508)
(-0.0269637 0.102877 -0.0256504)
(0.00768132 0.106837 -0.00563227)
(0.000663831 0.203136 -0.0110916)
(0.0647222 0.420456 -0.0402852)
(0.172669 0.516431 -0.043147)
(0.253578 0.544881 -0.0252358)
(0.305629 0.542195 -0.00408835)
(0.32931 0.528487 0.0117816)
(0.336933 0.512855 0.0201373)
(0.335315 0.499126 0.0225822)
(0.325524 0.486194 0.0216004)
(0.305913 0.468882 0.0200376)
(0.276172 0.44342 0.0185732)
(0.237638 0.409839 0.016418)
(0.192992 0.371954 0.0142148)
(0.146324 0.334268 0.0120181)
(0.102108 0.300494 0.00983842)
(0.0631027 0.269316 0.00588269)
(0.0265812 0.244349 0.00705253)
(-0.0057622 0.218845 0.00888519)
(-0.0349031 0.192716 0.00833499)
(-0.0637926 0.168006 0.00807536)
(-0.0894711 0.145291 0.00811795)
(-0.113127 0.124675 0.00847645)
(-0.13671 0.106322 0.00926928)
(-0.16204 0.0904217 0.0106751)
(-0.19032 0.0769923 0.0127164)
(-0.221892 0.0652915 0.014961)
(-0.256293 0.0533262 0.0170102)
(-0.295123 0.0381714 0.0185686)
(-0.337134 0.0181511 0.0211714)
(-0.367634 -0.00834619 0.0252657)
(-0.382821 -0.0537514 0.0238686)
(-0.398196 -0.113893 0.0177914)
(-0.418033 -0.178697 0.00950648)
(-0.431707 -0.244016 -0.00219274)
(-0.422863 -0.296438 -0.0184464)
(-0.374382 -0.313548 -0.0369758)
(-0.282134 -0.265123 -0.0582374)
(-0.171993 -0.112148 -0.0583851)
(-0.0442326 0.0441778 -0.0297429)
(0.0129616 0.0968057 -0.00710553)
(0.00102224 0.214401 -0.00754375)
(0.0631872 0.434911 -0.0358981)
(0.169139 0.535682 -0.0406512)
(0.252126 0.5641 -0.0246733)
(0.307934 0.555887 -0.00367971)
(0.335857 0.533223 0.0129614)
(0.347727 0.507834 0.0218816)
(0.349874 0.484661 0.0242566)
(0.342295 0.463588 0.0225312)
(0.322057 0.440559 0.0200339)
(0.290243 0.412362 0.0180373)
(0.249941 0.378946 0.0161068)
(0.204659 0.342706 0.0137427)
(0.158798 0.307203 0.0106676)
(0.115707 0.274887 0.0089251)
(0.0769553 0.246121 0.00750746)
(0.0420247 0.218899 0.00743265)
(0.0101306 0.194158 0.00846716)
(-0.0189015 0.168085 0.00858351)
(-0.045431 0.144415 0.00835245)
(-0.069157 0.122141 0.00816539)
(-0.0908394 0.101315 0.00822728)
(-0.111914 0.0822026 0.00873231)
(-0.133869 0.0652915 0.00984368)
(-0.15811 0.0510291 0.0114942)
(-0.186184 0.0388752 0.0138113)
(-0.219253 0.0259138 0.0159039)
(-0.256064 0.00931708 0.0188672)
(-0.290708 -0.00851773 0.0227767)
(-0.322348 -0.0317076 0.024545)
(-0.346724 -0.0745902 0.0256011)
(-0.362096 -0.138521 0.0227387)
(-0.378849 -0.211146 0.0164218)
(-0.396154 -0.287297 0.00672095)
(-0.398751 -0.357975 -0.00784306)
(-0.369451 -0.399807 -0.0264056)
(-0.287724 -0.379638 -0.0464408)
(-0.183898 -0.24589 -0.0573268)
(-0.0499527 -0.025299 -0.0364563)
(0.0166533 0.0793999 -0.0100132)
(0.000797054 0.221099 -0.00407514)
(0.0595579 0.439048 -0.0311348)
(0.162125 0.543811 -0.0375694)
(0.246055 0.574001 -0.0241468)
(0.304832 0.563236 -0.00413844)
(0.336361 0.534822 0.0124643)
(0.351896 0.501982 0.0218091)
(0.357508 0.470573 0.0245499)
(0.352683 0.441736 0.0227509)
(0.333662 0.413543 0.019895)
(0.302084 0.38333 0.017482)
(0.261887 0.350519 0.0154522)
(0.217253 0.316399 0.0132538)
(0.17226 0.283302 0.01081)
(0.130079 0.252451 0.00851839)
(0.0917087 0.224228 0.00789542)
(0.0567996 0.197175 0.00797345)
(0.0251707 0.170832 0.00872097)
(-0.00259232 0.145099 0.00908269)
(-0.0276849 0.122455 0.00849176)
(-0.0510007 0.101295 0.00805932)
(-0.0719586 0.0808544 0.00791614)
(-0.0914151 0.0614949 0.00827199)
(-0.110449 0.0440042 0.00930399)
(-0.130811 0.0294154 0.0108014)
(-0.155693 0.0167556 0.0132374)
(-0.18626 0.00460621 0.0154815)
(-0.217943 -0.00953587 0.0185337)
(-0.249864 -0.0262758 0.0205816)
(-0.283552 -0.0522823 0.0224212)
(-0.313217 -0.0912137 0.0243118)
(-0.331351 -0.151453 0.0247294)
(-0.344527 -0.228785 0.0210033)
(-0.361626 -0.315426 0.0137739)
(-0.372005 -0.403833 0.00195762)
(-0.358805 -0.473235 -0.0148078)
(-0.290921 -0.483784 -0.0335725)
(-0.182768 -0.380132 -0.0495011)
(-0.0510693 -0.135525 -0.0465599)
(0.012646 0.0444258 0.00043603)
(-0.000117082 0.219932 -0.00166717)
(0.0540424 0.431194 -0.0264768)
(0.152413 0.539503 -0.0341437)
(0.236674 0.573279 -0.0234997)
(0.298056 0.56264 -0.00504778)
(0.332905 0.531087 0.01107)
(0.351258 0.493866 0.0200908)
(0.359288 0.456409 0.0233306)
(0.357561 0.421056 0.0220948)
(0.341449 0.388462 0.0194444)
(0.312018 0.356593 0.0169663)
(0.273588 0.324293 0.0148331)
(0.230489 0.291934 0.0127053)
(0.186734 0.260634 0.0107121)
(0.145148 0.231108 0.00899153)
(0.106703 0.203143 0.0081426)
(0.0713321 0.176166 0.00832525)
(0.0394703 0.149744 0.00905655)
(0.0129973 0.124599 0.00970741)
(-0.0104905 0.101 0.00885407)
(-0.0337518 0.0821508 0.00802109)
(-0.0550041 0.0627464 0.00771213)
(-0.0735698 0.0439375 0.00796517)
(-0.0898643 0.0265869 0.0089581)
(-0.106724 0.0119858 0.0117691)
(-0.127735 0.000321769 0.0129023)
(-0.154971 -0.0128375 0.013982)
(-0.185445 -0.0267814 0.0160854)
(-0.21627 -0.0458282 0.0180227)
(-0.24857 -0.071583 0.0197954)
(-0.279561 -0.107726 0.0218068)
(-0.301665 -0.161302 0.0236162)
(-0.315811 -0.237628 0.022823)
(-0.332412 -0.331715 0.0186714)
(-0.348416 -0.436234 0.0103118)
(-0.34817 -0.533068 -0.00350205)
(-0.298821 -0.5793 -0.0217679)
(-0.200512 -0.51176 -0.0370799)
(-0.0586613 -0.271706 -0.0393181)
(0.0167719 0.00437301 0.0135968)
(-0.00128169 0.210836 -0.000252219)
(0.047677 0.412309 -0.0222407)
(0.141142 0.523544 -0.0306925)
(0.224984 0.562339 -0.0227973)
(0.288392 0.554083 -0.00621752)
(0.326914 0.521663 0.00942139)
(0.348104 0.482303 0.0176587)
(0.357254 0.44122 0.0211946)
(0.358191 0.40132 0.0207845)
(0.346052 0.365044 0.0186103)
(0.320194 0.331586 0.0163068)
(0.284679 0.299453 0.0142596)
(0.24391 0.268194 0.0123498)
(0.201669 0.238103 0.0106683)
(0.160664 0.209362 0.00928386)
(0.122082 0.181828 0.00860101)
(0.0863018 0.155274 0.00869455)
(0.0544071 0.129941 0.00919968)
(0.0272228 0.106209 0.00955515)
(0.00589855 0.0830883 0.0101893)
(-0.0156671 0.0630927 0.00819175)
(-0.0384002 0.0467 0.00775217)
(-0.0565585 0.029132 0.00791682)
(-0.0708261 0.0128924 0.00831729)
(-0.0834208 -0.000818505 0.0109242)
(-0.102945 -0.0161482 0.0104276)
(-0.129446 -0.0322108 0.0118322)
(-0.157314 -0.0475061 0.013564)
(-0.186701 -0.0660565 0.0154269)
(-0.217043 -0.0908482 0.0172015)
(-0.246932 -0.12486 0.0191602)
(-0.271124 -0.173778 0.0214339)
(-0.288749 -0.245621 0.0225553)
(-0.308194 -0.342146 0.0217591)
(-0.330084 -0.459046 0.017507)
(-0.341335 -0.58073 0.00740226)
(-0.309686 -0.66368 -0.00953584)
(-0.222031 -0.633901 -0.0266321)
(-0.0651402 -0.402248 -0.0345507)
(0.0247839 -0.0493031 0.00375807)
(-0.00228863 0.195617 0.000640653)
(0.0413653 0.38457 -0.0185112)
(0.129242 0.497604 -0.0274407)
(0.211958 0.542323 -0.0221837)
(0.276907 0.538475 -0.00766652)
(0.319149 0.507771 0.00762735)
(0.34344 0.467375 0.0150206)
(0.353342 0.424407 0.0187923)
(0.356211 0.382028 0.0191348)
(0.348065 0.34281 0.0175491)
(0.326583 0.307645 0.0155431)
(0.294777 0.275134 0.0136993)
(0.256843 0.244329 0.0120444)
(0.216489 0.214846 0.0106296)
(0.176408 0.186623 0.00956127)
(0.138076 0.159625 0.00904468)
(0.102496 0.134049 0.00909488)
(0.0708371 0.110442 0.00941344)
(0.0436558 0.0886724 0.00954006)
(0.020827 0.068398 0.00915472)
(0.00150825 0.0476866 0.0103932)
(-0.0193296 0.0312852 0.00801488)
(-0.038677 0.0162615 0.00831429)
(-0.0508194 0.00248874 0.00957863)
(-0.0651342 -0.0133851 0.00883121)
(-0.085263 -0.0343118 0.00928508)
(-0.10709 -0.0530302 0.0104781)
(-0.131621 -0.0704754 0.0117338)
(-0.159095 -0.0886344 0.0131982)
(-0.187871 -0.111576 0.0148871)
(-0.216197 -0.143439 0.0168591)
(-0.240968 -0.189254 0.019438)
(-0.261797 -0.257225 0.022052)
(-0.286262 -0.353818 0.0241422)
(-0.316312 -0.479041 0.0243894)
(-0.339279 -0.621478 0.018802)
(-0.324615 -0.738466 0.00412593)
(-0.251495 -0.749837 -0.0164111)
(-0.0926213 -0.534859 -0.0276455)
(0.0174816 -0.124211 -0.000465693)
(-0.00299195 0.176252 0.00126201)
(0.0356063 0.350369 -0.0152923)
(0.117463 0.463655 -0.0244578)
(0.198408 0.514637 -0.0216374)
(0.264653 0.516645 -0.00936731)
(0.310069 0.489631 0.00507721)
(0.337469 0.449403 0.0119934)
(0.348786 0.405987 0.0161951)
(0.352942 0.362696 0.0172704)
(0.348065 0.321406 0.016391)
(0.331118 0.284285 0.0147592)
(0.303438 0.250713 0.0131613)
(0.268811 0.21967 0.0117479)
(0.23078 0.190398 0.0105993)
(0.19221 0.162586 0.00980211)
(0.154952 0.136362 0.00946645)
(0.120414 0.112234 0.00954588)
(0.0895752 0.0906457 0.00973318)
(0.0625389 0.071251 0.00975082)
(0.0389935 0.0533786 0.00959135)
(0.0183953 0.0360323 0.00943649)
(-0.000763726 0.0187333 0.00928048)
(-0.0173815 0.00495632 0.00845586)
(-0.0324862 -0.00895117 0.00897439)
(-0.0510604 -0.0291144 0.00755614)
(-0.0708768 -0.0506633 0.00837951)
(-0.0894897 -0.0721701 0.00967759)
(-0.109641 -0.0930106 0.0108541)
(-0.13323 -0.113249 0.0118556)
(-0.159935 -0.135556 0.0131267)
(-0.187138 -0.165003 0.0151247)