/*--------------------------------*- C++ -*----------------------------------*\
| =========                 |                                                 |
| \\      /  F ield         | OpenFOAM: The Open Source CFD Toolbox           |
|  \\    /   O peration     | Version:  v1806                                 |
|   \\  /    A nd           | Web:      www.OpenFOAM.com                      |
|    \\/     M anipulation  |                                                 |
\*---------------------------------------------------------------------------*/
FoamFile
{
    version     2.0;
    format      ascii;
    class       vectorField;
    location    "0.113";
    object      currentcloudofpoints;
}
// * * * * * * * * * * * * * * * * * * * * * * * * * * * * * * * * * * * * * //


2409
(
(1.13161 1.09996 1.26906)
(0.870501 1.01347 1.08749)
(1.47988 1.13856 1.00068)
(1.18871 1.41017 0.691531)
(1.27967 1.54042 1.24871)
(1.26038 1.1445 0.996723)
(1.40738 1.24575 1.00492)
(0.592929 1.25489 0.59712)
(1.65955 1.07656 0.995279)
(1.04455 1.17497 0.60679)
(1.35043 1.23409 1.43607)
(1.45621 1.16408 1.10426)
(1.38759 1.369 1.23272)
(1.19329 1.42818 1.35967)
(1.45207 1.2488 1.15107)
(1.47228 1.14736 1.06117)
(1.4415 1.18313 1.1284)
(1.19103 1.49379 1.00873)
(1.40093 1.37473 1.22129)
(1.35154 1.27901 1.19976)
(0.886602 0.942039 1.15233)
(0.525788 1.36199 1.18254)
(1.15899 1.40121 1.13522)
(1.00796 1.1578 1.34059)
(0.938289 0.870535 1.13149)
(0.590422 1.11439 1.43847)
(0.740442 1.13489 1.25422)
(0.989449 1.34929 1.38417)
(1.17385 1.30112 1.21755)
(1.47503 1.1934 0.900256)
(1.45519 1.26514 0.901865)
(1.3124 1.47456 0.868584)
(1.27442 1.48487 0.665348)
(1.48009 1.15999 0.94062)
(1.46535 1.22786 0.900847)
(1.32933 1.32396 0.707162)
(1.30268 1.47832 0.86777)
(1.23045 1.5014 0.750942)
(0.767143 1.44597 0.556435)
(0.475125 1.00706 0.873208)
(0.674164 1.02201 0.872728)
(0.907999 0.89019 0.817416)
(1.06457 1.21118 0.80864)
(1.14919 1.42585 0.810398)
(0.512446 0.927873 0.815233)
(1.07873 0.945038 0.728694)
(0.839049 0.924216 0.869522)
(1.22544 1.2963 1.27775)
(1.24265 1.11168 1.14142)
(1.18256 1.1241 1.27689)
(1.2007 1.18472 1.00204)
(1.21132 1.53401 1.34181)
(1.27277 1.31558 1.34581)
(1.18607 1.10458 1.17092)
(1.50842 1.36389 1.022)
(1.14502 1.12778 1.32771)
(1.33263 1.144 0.848194)
(1.0399 1.50332 0.586562)
(1.10609 1.70034 0.679336)
(1.17701 1.39179 0.632136)
(1.05138 1.74583 0.99165)
(1.38377 1.38197 0.816027)
(1.14198 1.48943 0.960998)
(1.25551 1.28968 0.889613)
(1.23409 1.47626 0.740444)
(1.02866 0.946466 1.16398)
(0.826881 0.9134 1.11155)
(1.11831 1.17332 1.18335)
(1.0649 1.6792 1.0545)
(1.04579 1.03596 1.16067)
(0.941898 0.882394 1.13513)
(0.882621 1.22328 1.12288)
(1.13873 1.31113 0.989305)
(0.937129 1.6614 1.00386)
(1.13498 1.6419 0.962533)
(1.6357 1.35641 1.23097)
(1.64022 1.33905 1.19255)
(1.51439 1.16744 1.00094)
(1.21438 1.27032 0.993498)
(1.48653 1.41812 1.22334)
(1.64975 1.33875 1.17996)
(1.57425 1.3695 1.24833)
(1.50321 1.14616 0.997828)
(0.516058 1.059 1.26447)
(0.444051 1.11502 1.2044)
(0.682836 1.16677 1.52432)
(1.10022 1.31453 1.46409)
(1.09713 1.12002 1.59142)
(1.10901 1.00442 1.53351)
(1.37629 1.31489 1.43618)
(0.727847 1.37837 1.21931)
(0.479252 1.04982 1.2519)
(0.512464 1.33981 1.39995)
(0.870724 1.3816 1.44975)
(1.12537 1.02908 1.5042)
(1.18304 0.986443 1.36695)
(1.20412 1.43184 1.19726)
(1.40779 1.19153 1.38385)
(1.29587 1.21678 1.44912)
(1.2446 1.13842 1.31723)
(1.35446 1.11203 1.27385)
(1.41669 1.1202 1.26827)
(1.45404 1.08461 1.25394)
(1.53981 1.06718 1.21739)
(1.63093 1.07582 1.14089)
(1.29014 1.2967 1.47126)
(1.24182 1.23454 1.4193)
(1.31211 1.12309 1.27862)
(1.39129 1.11799 1.26797)
(1.43086 1.1087 1.26159)
(1.48839 1.07114 1.23474)
(1.58439 1.06946 1.18719)
(1.65074 1.07052 1.07281)
(0.706838 1.12475 0.617304)
(0.523167 1.01592 0.829481)
(0.695559 1.27776 0.749208)
(0.904406 1.13805 0.828735)
(1.03916 1.03466 0.637063)
(1.08038 1.01749 0.447164)
(1.03622 1.02341 0.468727)
(0.784077 1.15011 0.928864)
(0.913915 1.16755 0.689695)
(0.640128 0.966481 0.864112)
(0.936968 1.093 0.901498)
(1.14885 1.08732 0.547633)
(1.14171 0.943531 0.61159)
(1.09021 1.0415 0.444299)
(1.13009 1.2638 0.600588)
(1.62986 1.07965 0.852705)
(1.55032 1.07149 0.770892)
(1.46936 1.07981 0.728236)
(1.4225 1.11613 0.715588)
(1.3759 1.16174 0.741074)
(1.29756 1.20535 0.689821)
(1.29495 1.14339 0.614137)
(1.64678 1.07378 0.919688)
(1.58937 1.07445 0.80522)
(1.50395 1.07172 0.749935)
(1.44208 1.0988 0.718949)
(1.40224 1.13036 0.726677)
(1.32316 1.21414 0.736275)
(1.30675 1.16105 0.666434)
(1.17501 1.28194 0.559788)
(1.25882 1.59132 1.20863)
(0.932153 1.59746 1.26063)
(0.883145 1.70398 1.2319)
(1.0265 1.61509 1.36878)
(1.04921 1.31463 1.41332)
(1.06885 1.25304 1.47357)
(1.4264 1.22182 1.27949)
(1.26645 1.71933 1.08311)
(0.98471 1.7685 1.22411)
(0.949677 1.55661 1.31469)
(0.9345 1.71786 1.29255)
(1.0224 1.40245 1.24378)
(1.07897 1.345 1.52853)
(1.26182 1.09874 1.40862)
(1.45528 1.2937 1.29041)
(1.20791 1.6725 0.832607)
(0.998193 1.69021 0.849248)
(0.968461 1.73727 0.739459)
(0.99406 1.57716 0.587461)
(0.993918 1.46574 0.501748)
(1.0193 1.25477 0.473709)
(1.02229 1.27414 0.554669)
(1.2042 1.77424 0.895908)
(1.12241 1.68741 0.794368)
(0.987741 1.70493 0.825641)
(0.991699 1.72292 0.709343)
(1.02295 1.48029 0.55195)
(1.0568 1.40041 0.442184)
(1.16796 1.29756 0.512463)
(1.18567 1.28015 0.584896)
(0.63854 1.21366 0.741364)
(1.07964 1.68944 0.940138)
(1.0151 1.74521 1.07521)
(1.30014 1.64228 0.897494)
(1.15695 1.43502 1.02436)
(1.16114 1.68653 1.08985)
(1.17765 1.2563 0.967506)
(0.718878 1.44232 0.739814)
(0.8087 1.57054 0.97543)
(0.945295 1.69675 0.99276)
(1.08793 1.09931 0.744478)
(1.27875 1.45313 1.19969)
(1.38757 1.27609 1.04469)
(1.18882 1.24885 0.952248)
(1.18918 1.27538 0.978885)
(1.20062 1.52638 0.988588)
(1.43769 1.44063 1.06164)
(1.43535 1.45154 1.0222)
(1.5563 1.40334 1.24861)
(1.61892 1.37267 1.06334)
(1.66633 1.33609 1.00299)
(1.69271 1.21819 0.994469)
(1.34323 1.40433 1.06222)
(1.21266 1.3281 1.3084)
(1.47549 1.42433 1.07704)
(1.44824 1.46452 1.04364)
(1.63262 1.38072 1.13952)
(1.64812 1.35012 1.01461)
(1.68909 1.26574 0.994576)
(1.68333 1.14502 0.994957)
(1.11225 1.17385 0.739671)
(1.21414 1.19631 0.673277)
(1.27035 1.50711 0.795682)
(1.39943 1.25784 1.37881)
(1.23854 1.45479 1.36081)
(1.31861 1.16321 1.36094)
(0.608333 1.11611 0.801696)
(1.08441 1.11979 0.880753)
(0.812169 1.19417 0.692088)
(1.5219 1.07455 0.994202)
(1.50022 1.1083 0.997505)
(1.56914 1.04415 0.99345)
(1.29082 1.41055 1.21469)
(1.42163 1.59271 1.09536)
(1.34489 1.55247 1.27849)
(1.65871 1.30363 1.28564)
(1.21297 1.66337 1.24431)
(1.37168 1.26003 1.26282)
(1.65546 1.17976 1.22082)
(1.58942 1.27325 1.33434)
(1.13218 1.63355 1.33195)
(1.56107 1.64341 1.22426)
(1.58533 1.66348 1.14947)
(0.953198 1.59534 1.29606)
(1.5588 1.5029 1.16531)
(1.70415 1.29265 1.23602)
(1.38865 1.47837 0.987995)
(1.69559 1.29524 1.10562)
(1.51797 1.33518 1.30722)
(1.70513 1.34971 1.17179)
(1.14388 1.82026 1.20232)
(1.29258 1.15738 1.34555)
(1.1252 1.30734 1.09503)
(1.46408 1.50575 1.32021)
(1.51434 1.16483 1.30194)
(1.3419 1.67521 1.13207)
(0.999918 1.78286 1.2397)
(1.3422 1.47297 1.29933)
(1.50671 1.25897 1.2572)
(1.5729 1.36858 1.32884)
(1.16849 1.77126 1.08853)
(1.33049 1.14472 1.35933)
(1.68569 1.18841 1.0921)
(1.29122 1.43818 1.27889)
(1.01084 1.45485 1.01312)
(1.53424 1.36195 1.30294)
(1.57086 1.56779 1.11238)
(1.64917 1.40225 1.25198)
(1.25566 1.20072 1.37769)
(1.34962 1.15951 1.2835)
(1.36955 1.15566 1.34733)
(1.3037 1.15899 1.39613)
(1.27777 1.20495 1.39914)
(1.39622 1.15084 1.28889)
(1.42576 1.17396 1.28422)
(1.47485 1.28502 1.24731)
(1.44552 1.22349 1.25663)
(1.4633 1.25183 1.24531)
(1.52418 1.35105 1.30867)
(1.45982 1.22978 1.24344)
(1.46328 1.16519 1.26179)
(1.53543 1.31327 1.25706)
(1.47841 1.12369 1.26592)
(1.51788 1.10238 1.25384)
(1.49536 1.21422 1.2744)
(1.59087 1.11184 1.22864)
(1.64089 1.12802 1.1774)
(1.57541 1.15362 1.28177)
(1.66473 1.12587 1.12035)
(1.67863 1.12721 1.04644)
(1.6712 1.17878 1.15568)
(1.69012 1.20333 1.04513)
(1.30699 1.61025 1.08314)
(1.256 1.64289 1.20766)
(1.16402 1.76848 1.12413)
(1.28929 1.67525 1.17105)
(1.30248 1.70277 1.07003)
(1.30835 1.50455 1.27309)
(1.34917 1.68132 1.03456)
(1.30576 1.57775 1.18006)
(1.61342 1.58748 1.08134)
(1.58332 1.56149 1.10738)
(1.20855 1.29203 1.29895)
(1.68336 1.37069 1.18889)
(1.59959 1.41092 1.2618)
(1.6257 1.62371 1.20881)
(1.66813 1.33782 1.07913)
(1.67295 1.35665 1.12249)
(1.69786 1.35284 1.21453)
(1.68813 1.25193 1.05055)
(1.67658 1.31086 1.05313)
(1.70162 1.317 1.12995)
(1.68937 1.23248 1.09955)
(1.286 1.52747 1.20755)
(1.31824 1.54666 1.07801)
(1.34894 1.5728 1.00823)
(1.46262 1.64179 1.14708)
(1.41764 1.58959 1.06075)
(1.33221 1.56095 1.16101)
(1.38489 1.59324 1.10345)
(1.45786 1.55786 1.00179)
(1.56249 1.67265 1.15261)
(1.30236 1.29848 1.14003)
(1.49858 1.35198 1.28172)
(1.4786 1.39159 1.33208)
(1.35529 1.19125 1.31543)
(1.50566 1.32606 1.27642)
(1.53011 1.50908 1.13287)
(1.48292 1.5132 1.15714)
(1.12769 1.56378 1.05835)
(1.1217 1.39294 1.05708)
(1.25785 1.55926 1.03523)
(1.18762 1.33361 1.05431)
(1.52636 1.5899 1.07017)
(1.67122 1.32245 1.26744)
(1.69541 1.30399 1.23912)
(1.62212 1.44567 1.27993)
(1.65954 1.50887 1.21918)
(1.59325 1.34074 1.33091)
(1.60021 1.38096 1.332)
(1.62635 1.28453 1.31168)
(1.68107 1.28472 1.26317)
(1.64642 1.27213 1.30285)
(1.71244 1.31455 1.19849)
(1.56818 1.50313 1.27031)
(1.49 1.53133 1.33676)
(1.20993 1.7383 1.23008)
(1.22213 1.73863 1.17001)
(1.23081 1.69564 1.27669)
(1.1144 1.79015 1.12598)
(1.12822 1.79062 1.16252)
(0.901409 1.74381 1.13746)
(1.18998 1.68769 1.15462)
(0.94004 1.64073 1.23465)
(0.905849 1.63366 1.22036)
(1.05163 1.8034 1.24838)
(0.946427 1.56204 1.28703)
(0.95468 1.71858 1.28264)
(0.895362 1.6965 1.12671)
(1.03469 1.46394 1.27557)
(1.03762 1.68539 1.28545)
(0.946202 1.72649 1.23603)
(1.14193 1.41737 1.12025)
(1.10205 1.37989 1.44282)
(1.01895 1.61906 1.11611)
(1.30096 1.12173 1.38247)
(1.39582 1.18884 1.29239)
(1.40618 1.24259 1.27955)
(1.32912 1.15051 1.33237)
(1.23251 1.25761 1.04181)
(1.24367 1.50243 1.22551)
(1.00588 1.67887 1.28274)
(1.33489 1.65959 1.02319)
(1.34838 1.63915 1.08858)
(1.10503 1.4702 1.02129)
(1.54301 1.63916 1.13378)
(1.68873 1.21949 1.17023)
(1.19871 1.32397 1.0385)
(1.14881 1.34238 1.01756)
(1.22468 1.53256 0.974358)
(1.19981 1.55707 1.02401)
(1.53435 1.62841 1.05217)
(1.67905 1.22852 1.24014)
(1.61962 1.21526 1.29467)
(1.55413 1.21977 1.3184)
(1.70952 1.27628 1.17655)
(1.57622 1.28874 1.31575)
(1.53555 1.50472 1.21907)
(1.54497 1.25451 1.27791)
(1.15097 1.67945 1.31646)
(1.44564 1.51905 1.35202)
(1.39119 1.58492 1.30141)
(1.48895 1.52905 1.27196)
(1.55401 1.47257 1.15348)
(1.51879 1.44939 1.15941)
(1.51324 1.47405 1.28461)
(1.56208 1.31075 1.26459)
(0.789707 1.60805 1.45963)
(0.655241 1.46248 1.42296)
(1.11358 1.15322 1.05701)
(0.573906 1.29121 1.26495)
(0.725354 1.47261 1.26963)
(0.951415 1.45606 1.47681)
(0.543198 1.06915 1.32371)
(0.939332 1.57057 1.246)
(1.1882 1.21232 1.55676)
(1.13389 1.15863 1.13263)
(0.599736 1.29131 1.26993)
(0.885229 1.63743 1.23267)
(0.979915 1.51011 1.41901)
(0.98477 1.33847 1.4685)
(1.06581 1.38931 1.46926)
(0.859879 1.67084 1.15794)
(0.433708 1.09187 1.22708)
(1.08533 1.27546 1.4786)
(0.566239 0.97775 1.15917)
(0.76762 1.34877 1.32699)
(1.00695 1.36726 1.49)
(0.898967 1.54698 1.22981)
(1.07031 1.3695 1.49015)
(0.787187 1.25454 1.27558)
(0.697775 1.31895 1.10949)
(0.814962 1.02152 1.12425)
(1.00181 1.09941 1.26569)
(0.668308 1.52481 1.40408)
(0.963387 1.34156 1.44894)
(0.833232 1.6077 1.40633)
(0.659761 1.32103 1.35787)
(0.682587 1.29675 1.38601)
(0.957051 1.17123 0.981604)
(1.35549 1.28533 1.45307)
(0.798661 1.45249 1.06356)
(1.2408 1.51261 1.11262)
(1.13055 1.33205 1.18235)
(0.637928 1.24159 1.21366)
(0.576893 1.21522 1.06989)
(0.50706 1.18482 1.30503)
(0.638971 1.11863 1.34505)
(0.599211 0.956247 1.16348)
(0.464336 1.1455 1.2682)
(0.430618 1.1245 1.2218)
(0.626672 1.12457 1.35352)
(0.509693 0.998947 1.04439)
(0.562105 0.942328 1.14425)
(0.43707 1.11934 1.21236)
(1.06229 1.03291 1.58085)
(1.22519 1.41377 1.18782)
(1.12609 1.21021 1.57569)
(1.15279 1.08975 1.55153)
(1.0376 1.2948 1.49575)
(1.47591 1.30472 1.29427)
(1.43916 1.28901 1.31967)
(1.15123 1.37213 1.51592)
(0.821153 1.57618 1.27737)
(0.781596 1.54402 1.29764)
(0.740555 1.46406 1.3156)
(0.878205 1.58111 1.22917)
(0.751365 1.50877 1.35469)
(0.617601 1.40129 1.23377)
(0.657176 1.44442 1.26737)
(0.986749 1.61294 1.39371)
(0.922093 1.34711 1.33003)
(0.614468 1.38967 1.21681)
(0.920006 1.6329 1.30202)
(0.977686 1.27365 1.35619)
(0.574646 1.27893 1.17483)
(0.55965 1.01331 1.13892)
(0.573149 1.36382 1.10659)
(0.60189 1.42598 1.10502)
(0.979835 1.30532 1.24229)
(0.950098 0.909442 1.03377)
(0.805334 1.38417 1.36874)
(1.07941 1.68745 1.23611)
(0.890459 1.60729 1.19686)
(0.908459 1.57796 1.20563)
(0.991671 1.47069 1.13926)
(1.04606 1.72823 1.26757)
(0.775816 1.5249 1.42582)
(0.895656 1.64737 1.33512)
(1.26535 1.40832 1.23709)
(1.0486 1.39459 1.47459)
(1.01893 1.36774 1.35364)
(1.03754 1.4027 1.49551)
(0.972994 1.45072 1.49649)
(0.900232 1.55667 1.47081)
(0.852551 1.54092 1.49041)
(0.585931 1.37171 1.19797)
(1.11223 1.19575 1.58402)
(0.977822 1.3243 1.46469)
(1.02655 1.33124 1.48618)
(1.04885 1.29085 1.51147)
(0.939656 1.47731 1.42748)
(0.914517 1.52015 1.43333)
(0.971107 1.40961 1.44477)
(0.960107 1.43688 1.42574)
(0.89445 1.52726 1.41988)
(1.01434 1.36555 1.30449)
(1.0191 1.60004 1.38279)
(1.05339 1.33172 1.42424)
(1.06671 1.3359 1.44462)
(1.05113 1.3517 1.45613)
(1.03387 1.37388 1.48028)
(0.838452 1.66914 1.20449)
(0.917288 1.48254 1.2396)
(1.28885 1.15827 1.43526)
(1.07469 1.26071 1.4734)
(1.0258 1.28144 1.51162)
(1.04182 1.29818 1.53114)
(1.35095 1.17102 1.42155)
(1.30967 1.21547 1.47872)
(1.14616 1.27232 1.56506)
(1.04087 1.25871 1.48512)
(1.0682 1.36258 1.52042)
(0.822551 1.08797 1.14685)
(0.594002 1.29442 1.28303)
(0.947112 1.1107 1.26921)
(0.922667 1.08268 1.08839)
(0.891021 1.23171 1.32001)
(1.17828 1.05521 1.1928)
(1.15391 1.19026 1.07045)
(0.497791 1.20193 1.32217)
(0.934505 1.57015 1.2813)
(1.14274 1.78276 1.22892)
(1.25398 1.59823 1.22785)
(1.09391 1.14472 1.24764)
(0.93404 1.63228 1.29556)
(0.875621 1.56334 1.45019)
(0.767241 1.59329 1.45089)
(0.651119 1.48556 1.29587)
(1.00942 1.09815 1.31347)
(0.720284 1.58751 1.43117)
(0.904198 1.03383 1.08531)
(0.72242 1.57388 1.41618)
(0.751238 1.52311 1.05378)
(1.13729 1.59741 1.28724)
(1.24959 1.55107 1.16291)
(0.856968 1.48984 1.02866)
(0.861342 1.16539 1.32625)
(0.791089 1.21022 1.33202)
(0.952325 1.3552 1.34656)
(0.822569 1.29837 1.34925)
(1.06129 1.67802 1.20851)
(0.83567 1.49126 0.992281)
(1.08303 1.20427 1.14506)
(1.09347 1.28428 1.10237)
(0.894544 1.53075 1.02396)
(0.64719 1.24297 1.29823)
(0.956062 1.34777 1.43274)
(0.74845 1.08615 1.29695)
(0.624407 1.27631 1.30481)
(0.905085 1.34578 1.4467)
(0.969617 1.39024 1.44045)
(0.970999 1.42963 1.46613)
(0.591963 1.41267 1.1785)
(1.09146 1.18196 1.02109)
(1.10136 1.23483 1.08204)
(1.02198 1.30162 0.995203)
(0.869621 1.32974 1.1227)
(0.616137 1.50126 1.31022)
(0.635007 1.39104 1.28154)
(0.64938 1.47361 1.44252)
(0.877911 1.17259 1.31949)
(0.843944 1.37268 1.01451)
(0.846884 1.30323 1.30015)
(0.837534 1.26783 1.25045)
(0.656009 1.26903 1.36292)
(0.489452 1.29628 0.72587)
(0.918322 1.67656 0.726187)
(0.705314 1.08751 0.684131)
(0.487216 1.24322 0.740761)
(0.859174 1.45063 0.946505)
(0.822907 1.62758 0.733137)
(0.94746 1.73156 0.67494)
(0.819546 1.42448 0.620209)
(0.633801 1.20551 0.476239)
(0.964948 1.53678 0.714255)
(0.963514 1.39856 0.966948)
(0.955398 1.73974 0.63698)
(0.825989 1.63303 0.693618)
(0.541427 1.32651 0.71237)
(0.633252 1.27905 0.641694)
(0.97296 1.68599 0.78283)
(0.93108 1.36703 0.682953)
(0.461142 1.07103 0.841097)
(1.05221 1.23627 0.546061)
(1.13032 1.17436 0.894105)
(0.93327 1.21808 0.799669)
(0.806397 1.22286 0.82956)
(0.949034 1.17115 0.79902)
(1.15216 1.10004 0.939025)
(0.941907 1.70692 0.814319)
(0.64052 1.56666 0.742423)
(0.654671 1.28194 0.622005)
(1.16495 1.124 0.911491)
(0.951591 1.40733 0.514087)
(0.67441 1.36439 0.869647)
(0.751294 1.4801 0.560916)
(1.00164 1.1521 0.772069)
(1.21844 1.65837 0.784014)
(0.666959 1.53736 0.618008)
(0.946845 1.34274 0.609824)
(1.20638 1.34681 0.537447)
(0.54624 1.37599 0.841595)
(0.559383 1.30179 0.751521)
(0.670247 1.08257 0.666352)
(0.658352 1.08786 0.668142)
(0.72925 1.09971 0.746007)
(0.644369 1.54547 0.681775)
(0.885571 1.4899 0.839293)
(0.450736 1.15276 0.680532)
(0.470473 1.42545 0.677981)
(0.612453 1.4739 0.548356)
(0.861896 1.3965 0.64298)
(0.930246 1.43365 0.701212)
(0.978279 1.43522 0.441196)
(0.914782 1.54104 0.660153)
(0.904961 1.35338 0.661802)
(0.975905 1.41154 0.443079)
(0.897475 1.51688 0.671141)
(0.71894 1.34334 0.81297)
(0.783014 1.59647 0.780696)
(0.816571 1.62647 0.763581)
(0.930923 1.44715 0.678625)
(0.728318 1.50683 0.574589)
(1.09935 1.30569 0.536892)
(1.25286 1.25508 0.572852)
(1.05757 1.31749 0.52103)
(0.994616 1.65528 0.798998)
(0.914156 1.65055 0.671788)
(0.952652 1.57898 0.627266)
(0.955715 1.70986 0.791923)
(0.990886 1.70546 0.787823)
(1.12124 1.50701 0.962557)
(1.09588 1.40506 0.990852)
(0.968916 1.70583 0.822458)
(1.01602 1.70272 0.79611)
(1.04166 1.75648 0.686142)
(0.979684 1.77246 0.745458)
(1.33754 1.63052 0.819587)
(1.03828 1.25196 0.496709)
(0.989942 1.00497 0.528155)
(0.859214 1.43613 0.529055)
(0.954238 1.48725 0.478683)
(1.07378 1.26226 0.472624)
(0.570531 1.46389 0.637777)
(0.763899 1.4862 0.810156)
(0.771383 1.04218 0.733519)
(0.87124 1.13116 0.977696)
(1.12579 1.11556 0.817298)
(1.11743 1.03528 0.476854)
(0.816469 1.31301 0.552688)
(1.01962 1.06416 0.552357)
(0.55609 1.35799 0.776944)
(0.887894 1.54177 0.732296)
(0.929582 1.52934 0.720523)
(0.7625 1.51981 0.741685)
(0.956055 1.6829 0.77653)
(0.927848 1.47147 0.709761)
(0.986492 1.50857 0.707486)
(0.964881 1.55356 0.717447)
(0.711761 1.38277 0.82364)
(0.764003 1.5173 0.820617)
(0.68571 1.5511 0.676952)
(0.649575 1.16439 0.906671)
(0.6637 1.30353 0.838616)
(0.75545 1.49178 0.569526)
(0.938328 1.41765 0.459282)
(0.827145 1.45415 0.513714)
(1.05563 1.43415 0.936666)
(0.905103 1.06486 0.868865)
(1.12227 1.12557 0.457102)
(1.00692 1.67407 0.662993)
(0.915306 1.70686 0.787295)
(0.97363 1.683 0.662273)
(1.00644 1.55798 0.588476)
(0.982645 1.71841 0.68154)
(0.967711 1.72343 0.707791)
(1.00188 1.43452 0.546487)
(1.01151 1.47116 0.545294)
(1.00352 1.40075 0.623905)
(0.914857 1.64427 0.61984)
(0.915048 1.37132 0.549579)
(0.929488 1.50607 0.65189)
(0.963457 1.57083 0.808051)
(0.763683 1.59758 0.781688)
(0.873395 1.35119 0.572037)
(0.926982 1.35817 0.642159)
(0.931417 1.42914 0.672285)
(0.855368 1.35168 0.570394)
(0.924619 1.39844 0.513111)
(0.49336 1.17871 0.683028)
(0.538593 1.21776 0.717501)
(0.613482 1.13054 0.632691)
(0.494255 1.11088 0.6116)
(0.420653 1.17966 0.681687)
(1.1003 1.21842 0.897097)
(0.82841 1.06041 0.698338)
(1.10977 1.20077 0.889567)
(0.848306 1.25392 1.02841)
(0.84313 1.37462 0.896857)
(0.714106 1.17812 0.873289)
(0.712108 1.06369 0.769082)
(1.08287 1.03846 0.99927)
(0.693726 1.05542 0.730106)
(0.412652 1.09365 0.745374)
(1.21424 1.651 0.804895)
(1.19189 1.75833 0.916913)
(0.631564 0.980914 0.888788)
(0.685365 1.25975 0.687948)
(0.790757 1.24618 0.709811)
(0.686515 1.21683 0.633661)
(0.957623 1.06545 0.750732)
(0.958755 1.51084 0.999131)
(0.975548 1.49951 1.00314)
(1.10174 1.09382 0.843154)
(0.781876 1.40372 0.919533)
(0.750934 1.32484 0.63682)
(0.955525 1.21855 0.885229)
(0.916794 1.56882 0.95783)
(0.895924 1.51329 0.892207)
(0.988155 1.2223 0.879639)
(0.973614 1.62997 0.980527)
(1.01359 1.6407 0.930851)
(0.753887 1.49136 0.638766)
(1.13265 1.60821 0.902149)
(1.04347 1.21933 0.939623)
(0.904717 1.16011 0.656246)
(1.11185 1.18119 0.904585)
(0.949088 1.08291 0.77039)
(0.943646 1.13859 0.806712)
(0.81458 1.31462 0.891727)
(1.487 1.64827 0.762358)
(1.37356 1.73242 0.795488)
(1.66673 1.32318 0.752775)
(0.951941 1.4146 0.988972)
(1.23903 1.78672 0.804232)
(1.64618 1.19034 0.770965)
(1.35546 1.23335 0.697232)
(1.34048 1.30769 0.661752)
(1.39742 1.76579 0.844762)
(1.38571 1.61741 0.846181)
(1.08034 1.65873 0.773927)
(1.52542 1.50378 0.731705)
(1.5309 1.40812 0.668294)
(1.33614 1.33645 0.640278)
(1.46506 1.45617 0.603804)
(1.35521 1.15142 0.641214)
(1.54808 1.21236 0.678849)
(1.09341 1.34417 0.9699)
(1.17193 1.63358 0.964068)
(1.69286 1.28462 0.886274)
(1.64979 1.40403 0.897041)
(1.58437 1.33435 0.698164)
(1.43598 1.27473 0.721279)
(1.14346 1.65507 0.776978)
(1.23471 1.38448 0.827214)
(1.64956 1.42263 0.710486)
(1.46989 1.28104 0.730573)
(1.41183 1.30354 0.831573)
(1.25218 1.78794 0.910505)
(1.68225 1.16789 0.890638)
(1.24962 1.24762 0.548433)
(1.62321 1.52572 0.752679)
(1.59464 1.40402 0.893982)
(1.48771 1.26831 0.694416)
(1.01818 1.70433 0.825419)
(1.35347 1.60485 0.904383)
(1.6894 1.18541 0.941751)
(1.67433 1.11994 0.944087)
(1.66063 1.11967 0.867379)
(1.46478 1.70394 0.818823)
(1.37639 1.72249 0.770694)
(1.47352 1.67049 0.815544)
(1.47229 1.60388 0.916996)
(1.44873 1.60575 0.778993)
(1.52004 1.61479 0.768547)
(1.53241 1.64691 0.851497)
(1.37762 1.51845 0.711875)
(1.4939 1.57741 0.6842)
(1.55127 1.60582 0.739718)
(1.59429 1.54823 0.752058)
(1.58125 1.54657 0.686855)
(1.29557 1.39038 0.94217)
(1.24633 1.4122 0.782542)
(1.29291 1.75409 0.963567)
(1.05421 1.52673 1.00401)
(1.36978 1.69474 1.02301)
(1.32125 1.38164 0.740035)
(1.49296 1.46408 0.723474)
(1.18144 1.61902 0.969975)
(1.50521 1.48022 0.711445)
(1.59904 1.46254 0.754015)
(1.50408 1.48421 0.795585)
(1.60313 1.37537 0.984572)
(1.57539 1.38396 0.944724)
(1.62108 1.47695 0.805556)
(1.62998 1.37448 0.951168)
(1.66694 1.35039 0.93764)
(1.62794 1.4022 0.906788)
(1.68872 1.29884 0.942019)
(1.69261 1.22919 0.933405)
(1.68181 1.34285 0.882959)
(1.6866 1.21021 0.879257)
(1.04339 1.25566 0.564269)
(1.15178 1.30492 0.549233)
(1.29855 1.15997 0.582202)
(1.18092 1.65943 0.773872)
(1.2072 1.69958 0.834905)
(1.23134 1.78686 0.863024)
(1.20897 1.73545 0.872535)
(1.06823 1.69024 0.843625)
(1.16965 1.69317 0.804386)
(1.36975 1.7297 0.95746)
(1.29692 1.7915 0.903575)
(1.31876 1.79692 0.817377)
(1.26952 1.75987 0.740379)
(1.65145 1.25302 0.755141)
(1.6037 1.26237 0.702391)
(1.59631 1.19183 0.714679)
(1.54868 1.12288 0.72438)
(1.59539 1.11901 0.75974)
(1.67567 1.22693 0.819327)
(1.66578 1.17316 0.825521)
(1.68296 1.29741 0.816938)
(1.63955 1.12726 0.80987)
(1.06517 1.68959 0.787125)
(0.994387 1.72611 0.724784)
(0.964879 1.73042 0.803978)
(1.09374 1.65748 0.801647)
(1.1462 1.5493 0.600042)
(1.13616 1.63278 0.617471)
(0.981609 1.75002 0.781381)
(1.08554 1.43172 0.724894)
(1.1244 1.53257 0.613144)
(1.09738 1.59327 0.617341)
(1.23569 1.28513 0.539393)
(1.31921 1.16339 0.570578)
(1.38245 1.26928 0.683571)
(1.31691 1.17007 0.583428)
(1.44113 1.31043 0.790246)
(1.42687 1.50231 0.811836)
(1.35261 1.54137 0.888444)
(1.02912 1.44773 0.987904)
(1.3712 1.36037 0.679165)
(1.37722 1.46944 0.796187)
(1.18822 1.32739 0.923345)
(1.03522 1.54285 0.612386)
(1.34476 1.34088 0.980821)
(1.15688 1.58788 0.915946)
(1.40764 1.61551 0.89599)
(1.41073 1.5035 0.771322)
(1.03877 1.70451 0.616654)
(1.30653 1.60119 0.799527)
(1.35525 1.32111 0.914183)
(1.10017 1.68913 0.779086)
(1.3038 1.2314 0.664904)
(1.27613 1.236 0.657042)
(1.39535 1.24958 0.723509)
(1.2379 1.28017 0.650798)
(1.35282 1.21745 0.658113)
(1.35281 1.19785 0.672037)
(1.3412 1.1453 0.672263)
(1.34078 1.21917 0.711087)
(1.37642 1.2032 0.730213)
(1.33663 1.16288 0.687242)
(1.25695 1.26293 0.676891)
(1.54408 1.36236 0.786519)
(1.24505 1.25214 0.707337)
(1.44775 1.68047 0.957449)
(1.51104 1.41808 0.638201)
(1.07966 1.67594 0.805324)
(1.63947 1.46229 0.842904)
(1.56439 1.38156 0.657369)
(1.59538 1.37019 0.717074)
(1.58388 1.34408 0.780222)
(1.58984 1.3647 0.661124)
(1.57204 1.457 0.637886)
(1.64371 1.47585 0.729706)
(1.55731 1.31117 0.744164)
(1.5002 1.23282 0.671239)
(1.56074 1.28918 0.696108)
(1.47435 1.162 0.696841)
(1.50405 1.13437 0.705743)
(1.60136 1.31712 0.686023)
(1.47864 1.29342 0.803662)
(1.48508 1.28073 0.724447)
(1.39274 1.28107 0.804679)
(1.46057 1.19912 0.694164)
(1.4466 1.20026 0.703527)
(1.67803 1.37235 0.823714)
(1.66896 1.4096 0.809659)
(1.65579 1.43459 0.833904)
(1.65858 1.35687 0.730452)
(1.45351 1.2826 0.737445)
(1.40819 1.1975 0.719677)
(1.42792 1.19829 0.714625)
(0.953855 1.46939 1.06913)
(0.852988 0.981674 0.972602)
(0.94811 1.19183 1.12603)
(1.13437 1.24644 1.24954)
(1.13722 1.39256 1.40286)
(1.09234 1.08981 1.09739)
(0.935936 1.23666 1.11292)
(0.815739 1.0549 1.14651)
(0.970375 1.29331 1.1714)
(1.23256 1.44939 1.28507)
(0.988949 0.944989 1.39908)
(0.961253 1.33774 1.24419)
(1.26425 1.27992 1.30074)
(0.986791 0.959647 1.41183)
(1.18972 1.20106 1.03641)
(1.20129 1.16685 0.901018)
(1.17834 1.18021 0.975541)
(1.27559 1.17636 1.03587)
(1.35998 1.39851 1.2526)
(1.26638 1.10659 1.21207)
(0.520042 1.38351 1.24137)
(0.79674 1.0875 1.3182)
(0.575184 1.20914 1.42484)
(1.00156 1.05929 1.36608)
(0.680791 1.05071 1.37364)
(0.937925 1.10667 1.14969)
(1.06313 0.946245 1.32327)
(1.02306 0.958626 1.36607)
(0.985655 0.972021 1.37083)
(0.526078 1.37023 1.34761)
(0.516384 1.21328 1.38595)
(1.05529 1.12149 1.03817)
(1.08559 0.94764 1.14692)
(0.797244 1.10856 1.17352)
(0.935965 1.28433 1.2433)
(1.00309 1.13415 1.20741)
(1.02646 1.21617 1.18037)
(1.01352 1.04178 1.33834)
(1.07376 1.0755 1.22908)
(1.17757 1.26376 1.40072)
(1.40025 1.24387 1.39519)
(1.22432 1.12218 1.16768)
(1.17457 1.21405 1.04917)
(0.98382 1.25319 1.15107)
(1.06981 1.16158 1.32277)
(0.950015 1.20147 1.36423)
(1.2032 1.37859 1.29205)
(1.17791 1.30243 1.23087)
(0.989115 1.09796 1.10543)
(1.27996 1.41497 1.38363)
(1.3897 1.34777 1.39165)
(1.01895 0.992103 1.11273)
(0.907589 1.2829 1.25846)
(0.804732 1.02589 1.13446)
(0.828462 1.09904 1.13077)
(0.933937 1.23087 1.20582)
(0.945162 1.24093 1.20606)
(0.973453 1.22438 1.15439)
(0.967243 1.24911 1.16041)
(1.18789 1.31847 1.13113)
(0.956286 1.23253 1.31745)
(1.23548 1.35891 1.12293)
(0.929909 1.29125 1.23718)
(1.07118 1.32015 1.0582)
(1.12767 1.42025 1.24009)
(1.10587 1.36943 1.33707)
(1.21976 1.35949 1.13486)
(0.999162 1.61742 1.09458)
(0.996433 1.0411 1.11884)
(1.07157 0.965352 1.18808)
(0.944689 1.14832 1.2067)
(1.11678 1.0995 1.10332)
(1.40003 1.3736 1.00054)
(1.3844 1.49577 1.11088)
(1.52497 1.42878 1.27876)
(1.62578 1.50299 1.08033)
(1.53147 1.42285 1.20028)
(1.35744 1.4147 1.10445)
(1.45128 1.48849 1.23084)
(1.54972 1.38143 1.28033)
(1.32126 1.36615 1.29219)
(1.51027 1.17065 1.06316)
(1.605 1.44352 1.15459)
(1.37584 1.42386 1.09869)
(1.44266 1.54178 1.30651)
(1.32976 1.20158 0.994982)
(1.31567 1.2955 1.14087)
(1.60757 1.32498 1.21156)
(1.55145 1.34888 1.22533)
(1.51791 1.40042 1.28059)
(1.65214 1.51686 1.14106)
(1.59615 1.43593 1.21453)
(1.44473 1.4939 1.12271)
(1.53497 1.45925 1.08187)
(1.46306 1.50245 1.16981)
(1.39883 1.49732 1.10285)
(1.46333 1.45699 1.11435)
(1.46262 1.49659 1.11711)
(1.58221 1.43164 1.21565)
(1.25265 1.20844 1.00031)
(1.30595 1.20852 1.00503)
(1.46608 1.4123 0.920118)
(1.43153 1.29292 0.933011)
(1.40907 1.24199 0.9481)
(1.4361 1.48765 1.21237)
(1.4985 1.18387 1.08654)
(1.54407 1.34157 1.14689)
(1.49316 1.16568 1.08429)
(1.50126 1.14547 1.03993)
(1.31962 1.4086 1.10107)
(1.30647 1.41015 1.05201)
(1.30582 1.47803 1.17362)
(1.47193 1.55444 1.19532)
(1.61805 1.48676 1.11438)
(1.30787 1.37285 1.11931)
(1.3134 1.25699 1.16958)
(1.26938 1.31587 1.20987)
(1.21868 1.25098 1.32914)
(1.29744 1.38352 1.29937)
(1.23769 1.40715 1.32954)
(1.28321 1.42892 1.10816)
(1.40166 1.43342 1.11778)
(1.44467 1.22993 1.13174)
(1.30769 1.38994 1.16776)
(1.37094 1.52981 1.31802)
(1.58569 1.45331 1.12365)
(1.58578 1.4717 1.10773)
(1.41108 1.24332 0.9657)
(1.43096 1.39019 1.19336)
(1.34071 1.38438 1.06825)
(1.23868 1.21028 1.168)
(1.36675 1.39915 1.03836)
(1.44436 1.52594 1.30869)
(1.34323 1.40701 1.16673)
(1.5097 1.52533 1.14097)
(1.5109 1.16353 1.0318)
(1.56509 1.36665 1.23307)
(1.56685 1.36996 1.24126)
(1.50746 1.5521 1.12712)
(1.6151 1.45738 1.08982)
(1.63676 1.32272 1.21139)
(1.58454 1.35311 1.26108)
(1.63783 1.55134 1.16682)
(1.5735 1.37186 1.26499)
(1.25529 1.42762 0.659651)
(1.55919 1.38641 1.14172)
(1.4098 1.44946 0.757419)
(1.38499 1.41401 0.928168)
(1.55985 1.4145 0.766694)
(1.61301 1.37239 1.1674)
(1.23696 1.14001 0.793423)
(1.57092 1.34912 0.87568)
(1.21812 1.13164 0.76968)
(1.22222 1.46774 0.969337)
(1.54026 1.24398 0.985591)
(1.19658 1.47106 0.674406)
(1.60239 1.32698 1.08529)
(1.29355 1.19376 0.970446)
(1.40261 1.39475 0.87845)
(1.21028 1.29071 0.895632)
(1.17617 1.23112 0.969133)
(1.31957 1.1773 0.873393)
(1.37864 1.29783 0.881014)
(1.26442 1.1542 0.831107)
(0.949572 1.44754 0.9602)
(1.26686 1.26314 0.931606)
(1.12943 1.31666 0.589002)
(1.07322 1.21982 0.646464)
(1.2295 1.38288 0.6972)
(1.22981 1.44991 0.662028)
(1.31461 1.41133 0.884015)
(1.57199 1.33356 0.875568)
(1.41631 1.54808 0.893232)
(1.39822 1.54511 0.903988)
(1.36547 1.42278 0.826593)
(1.07186 1.21558 0.636453)
(1.25257 1.36467 0.646457)
(1.30639 1.31432 0.910589)
(1.41088 1.25543 0.964878)
(1.21553 1.21972 0.875163)
(1.26288 1.35042 0.764864)
(1.53325 1.41786 0.71366)
(1.41667 1.30008 0.957815)
(1.18357 1.46336 0.69252)
(1.23652 1.37463 0.669049)
(1.34704 1.40246 0.940318)
(1.42376 1.40662 0.741351)
(1.41528 1.42648 0.730079)
(1.58081 1.36851 1.04912)
(1.12305 1.63572 0.94379)
(1.59484 1.3258 1.00438)
(1.38257 1.37147 0.742706)
(1.50597 1.45209 0.851892)
(1.50234 1.34228 0.936332)
(1.49661 1.45502 0.816464)
(1.1506 1.61013 0.933843)
(1.38365 1.32984 1.00893)
(1.56659 1.38728 1.24234)
(1.56999 1.38044 1.1541)
(1.50184 1.18673 0.938146)
(1.4958 1.21071 0.9259)
(1.31596 1.4283 0.75176)
(1.62592 1.34244 1.14508)
(1.63055 1.36414 1.15522)
(1.57738 1.35026 0.895917)
(1.52881 1.43968 0.713599)
(1.52086 1.18268 0.977715)
(1.60297 1.35957 1.23191)
(1.62844 1.35626 1.2154)
(1.60737 1.3535 1.11758)
(1.50019 1.16024 0.958369)
(1.60043 1.31725 1.00037)
(1.05667 1.31421 0.599126)
(0.565256 1.33698 0.578845)
(0.906764 1.34553 0.92435)
(0.784001 1.54624 0.644635)
(1.19078 1.36945 0.813004)
(1.08074 1.16255 0.676753)
(0.472964 1.03317 0.757288)
(0.955731 1.32862 0.780082)
(0.718847 1.20669 0.904548)
(0.984337 1.33435 0.794794)
(1.19579 1.38536 0.567101)