/*--------------------------------*- C++ -*----------------------------------*\
| =========                 |                                                 |
| \\      /  F ield         | OpenFOAM: The Open Source CFD Toolbox           |
|  \\    /   O peration     | Version:  v1806                                 |
|   \\  /    A nd           | Web:      www.OpenFOAM.com                      |
|    \\/     M anipulation  |                                                 |
\*---------------------------------------------------------------------------*/
FoamFile
{
    version     2.0;
    format      ascii;
    class       volVectorField;
    location    "0.113";
    object      U;
}
// * * * * * * * * * * * * * * * * * * * * * * * * * * * * * * * * * * * * * //

dimensions      [0 1 -1 0 0 0 0];


internalField   nonuniform List<vector> 
64000
(
(-0.0115656 -0.0140002 -0.00993167)
(0.0168885 -0.0132969 -0.00736532)
(0.0231783 -0.00454822 6.87006e-05)
(0.0282412 -0.00365929 0.00123393)
(0.0297603 -0.00257576 0.00155147)
(0.030778 -0.00314388 0.00190386)
(0.0312547 -0.00408024 0.00185926)
(0.0293855 -0.00482094 0.00239743)
(0.0293515 -0.00592551 0.00301018)
(0.0243898 -0.00584195 0.00430788)
(0.0190647 -0.00732994 0.00268723)
(0.00978688 -0.00732799 0.00844797)
(-0.00189691 -0.0121821 0.00608714)
(-0.0245766 -0.0176843 0.00426201)
(-0.0487849 -0.0187424 0.00413695)
(-0.0837026 -0.0196661 0.00289101)
(-0.105169 -0.00274264 0.000693959)
(-0.149766 -0.00500444 -0.00335625)
(-0.141797 -0.00883985 0.00288467)
(-0.20546 -0.0257522 -0.011812)
(-0.176015 -0.0190265 -0.0172978)
(-0.0843277 -0.0218666 -0.0368805)
(-0.102067 -0.00490765 -0.0222871)
(-0.101013 -0.00188293 -0.0365728)
(-0.123735 0.00431513 -0.0473048)
(-0.117229 0.0121954 -0.0577285)
(-0.107006 0.0226485 -0.0620671)
(-0.0699105 0.0329857 -0.0591807)
(-0.0365916 0.0407771 -0.0543912)
(0.00777226 0.0517589 -0.0410493)
(0.0524295 0.0499756 -0.0324901)
(0.090173 0.0395436 -0.0257754)
(0.105524 0.0295371 -0.0127237)
(0.102882 0.0155092 -0.00551773)
(0.0886218 0.00668834 0.000925989)
(0.0702773 -0.00136367 0.00345783)
(0.0511813 -0.00554294 0.00435717)
(0.0309603 -0.00520608 0.00520873)
(0.0165343 -0.00384895 0.00546253)
(0.00251886 -0.00246346 0.00349569)
(-0.00817614 0.00364193 -0.00601625)
(0.00851327 -0.0174967 -0.00603724)
(0.0238914 -0.0111909 -0.00252591)
(0.0355715 -0.00767489 -0.000933462)
(0.0420704 -0.00315187 -0.00166083)
(0.0432355 -0.0012288 -0.00181025)
(0.0428824 0.00225242 -0.00382126)
(0.0369419 0.00390157 -0.00293251)
(0.0311352 0.0071632 -0.00835834)
(0.0146762 0.0144497 -0.00356358)
(-0.00577236 0.0217753 -0.00797746)
(-0.039436 0.0310409 0.000345436)
(-0.0833829 0.0398898 -0.003723)
(-0.134315 0.0577173 -0.00653774)
(-0.189783 0.0727567 -0.0117765)
(-0.245594 0.0822993 -0.0170728)
(-0.31287 0.0907631 -0.0437265)
(-0.416176 0.0925027 -0.0596583)
(-0.457163 0.0997457 -0.0776985)
(-0.548331 0.10149 -0.0956535)
(-0.496696 0.128969 -0.0884572)
(-0.373877 0.145238 -0.124211)
(-0.374356 0.192449 -0.131038)
(-0.360322 0.213951 -0.143559)
(-0.356776 0.238118 -0.155619)
(-0.31724 0.259121 -0.162536)
(-0.27185 0.280285 -0.16406)
(-0.198945 0.295413 -0.152515)
(-0.126186 0.302066 -0.132995)
(-0.0529421 0.305733 -0.109431)
(0.00971484 0.291438 -0.0761916)
(0.0736558 0.259979 -0.0460498)
(0.110827 0.212005 -0.0385914)
(0.123211 0.159929 -0.0257493)
(0.117886 0.109669 -0.0124378)
(0.0992116 0.0699644 -0.00496659)
(0.0795212 0.0416859 -0.000692767)
(0.0548467 0.0266975 0.000234769)
(0.0327601 0.0169187 0.00145335)
(0.00806411 0.00875191 0.00132812)
(-0.000547189 -0.00330337 0.00135831)
(0.0151904 -0.0227881 -0.00244626)
(0.0318494 -0.0174352 -0.00324527)
(0.0433996 -0.00556423 -0.00430572)
(0.0468172 0.00302828 -0.00610825)
(0.0454187 0.0134439 -0.0076922)
(0.0393295 0.0276163 -0.0088743)
(0.0246477 0.0405415 -0.0107603)
(0.0113679 0.0644593 -0.00239747)
(-0.0163878 0.0852649 -0.00411542)
(-0.0536141 0.112521 -0.00811555)
(-0.103624 0.141856 -0.0126192)
(-0.155576 0.178251 -0.0174419)
(-0.229074 0.207331 -0.0315368)
(-0.318311 0.228719 -0.0372474)
(-0.414674 0.244115 -0.0436303)
(-0.492592 0.249683 -0.0609396)
(-0.579106 0.266244 -0.0800969)
(-0.61322 0.299011 -0.0981241)
(-0.690113 0.336251 -0.115544)
(-0.622945 0.373149 -0.0997309)
(-0.472798 0.408201 -0.124147)
(-0.450944 0.464183 -0.121925)
(-0.42527 0.493403 -0.122707)
(-0.412937 0.52523 -0.126466)
(-0.368733 0.545955 -0.125588)
(-0.322806 0.560557 -0.120891)
(-0.255992 0.562834 -0.10519)
(-0.192552 0.55289 -0.0824933)
(-0.126243 0.531909 -0.0592211)
(-0.0724496 0.499996 -0.0392363)
(-0.0274995 0.45127 -0.0276115)
(0.00519848 0.378727 -0.0167824)
(0.0284003 0.305411 -0.00829321)
(0.0417278 0.226501 -0.0104023)
(0.0481061 0.162282 -0.0107087)
(0.0483737 0.115598 -0.00690349)
(0.0390375 0.0789909 -0.00484066)
(0.0277148 0.0531207 -0.00138284)
(0.00812381 0.0275727 0.00117288)
(0.00123876 -0.00873224 0.00219718)
(0.0179437 -0.0248669 -0.00159022)
(0.0381102 -0.0123806 -0.00420153)
(0.0454382 0.00405377 -0.00768957)
(0.0437565 0.0275902 -0.00816568)
(0.0408851 0.0510302 -0.00942924)
(0.0284629 0.0849745 -0.0092469)
(0.0116274 0.116274 -0.00491312)
(-0.0130891 0.161954 -0.0107307)
(-0.0572873 0.200293 -0.0127328)
(-0.102736 0.244461 -0.0175652)
(-0.161533 0.282606 -0.0236015)
(-0.238721 0.312743 -0.0292474)
(-0.329183 0.328835 -0.0300122)
(-0.410154 0.351178 -0.0333573)
(-0.487515 0.374158 -0.0377067)
(-0.550505 0.406348 -0.0540008)
(-0.62369 0.435614 -0.0643281)
(-0.644058 0.481549 -0.0748933)
(-0.710191 0.530745 -0.0786238)
(-0.630717 0.561303 -0.0403918)
(-0.459103 0.588796 -0.045386)
(-0.42432 0.627865 -0.0365593)
(-0.397963 0.632739 -0.0291722)
(-0.386498 0.645735 -0.0279163)
(-0.351027 0.644997 -0.0235833)
(-0.316855 0.637496 -0.0201251)
(-0.266538 0.617374 -0.0120262)
(-0.22068 0.5909 0.000247598)
(-0.174891 0.556624 0.0075874)
(-0.145491 0.514586 0.0122146)
(-0.11932 0.468477 0.0109352)
(-0.0954778 0.408326 0.00492501)
(-0.0722453 0.346401 -0.00281906)
(-0.048222 0.267951 -0.00628314)
(-0.018085 0.201277 -0.0106831)
(0.00205578 0.14738 -0.0107741)
(0.0100314 0.111824 -0.00802314)
(0.0174971 0.0789096 -0.00354829)
(0.00653637 0.0401775 0.000932203)
(0.000876902 -0.00949886 0.000428743)
(0.0229559 -0.0146977 -0.00377797)
(0.0449876 0.00243044 -0.00839443)
(0.0539724 0.0350755 -0.00879407)
(0.052049 0.072177 -0.00895329)
(0.0458304 0.117153 -0.0148704)
(0.0281709 0.172932 -0.0127161)
(0.00210612 0.228396 -0.00585745)
(-0.0284158 0.284844 -0.00863947)
(-0.0796682 0.33213 -0.0109468)
(-0.136207 0.370878 -0.0142791)
(-0.2107 0.394177 -0.0166911)
(-0.283734 0.414264 -0.0172476)
(-0.352985 0.438974 -0.0202928)
(-0.418154 0.469381 -0.0225482)
(-0.486569 0.502312 -0.0234496)
(-0.537233 0.533108 -0.0288002)
(-0.593114 0.564148 -0.0274341)
(-0.592593 0.62246 -0.0208447)
(-0.64379 0.672601 -0.0284058)
(-0.566047 0.698622 0.011091)
(-0.388098 0.708438 0.0180251)
(-0.350147 0.717597 0.0323892)
(-0.333117 0.687013 0.0366645)
(-0.33435 0.670868 0.0360668)
(-0.31801 0.643316 0.0415877)
(-0.303506 0.611566 0.0427835)
(-0.271989 0.573317 0.0468143)
(-0.246787 0.531329 0.0399402)
(-0.220592 0.490044 0.0311365)
(-0.202157 0.444106 0.0207838)
(-0.191426 0.410077 0.0137311)
(-0.181888 0.371298 0.00669728)
(-0.172245 0.340216 -0.0054045)
(-0.148905 0.277872 -0.0143178)
(-0.0999652 0.2089 -0.0149836)
(-0.0490851 0.161484 -0.013853)
(-0.0148938 0.131827 -0.0118772)
(0.00380276 0.0978995 -0.00620026)
(0.0036664 0.0505107 0.00101854)
(0.00490268 -0.00264106 -0.000247642)
(0.0277335 0.00230993 -0.00649753)
(0.0583201 0.0297554 -0.0074871)
(0.069181 0.0801759 -0.00967068)
(0.0646424 0.137135 -0.0146416)
(0.0633724 0.200067 -0.0182398)
(0.043954 0.274223 -0.0147024)
(0.01125 0.326418 -0.0054686)
(-0.0348199 0.371631 -0.00770482)
(-0.102108 0.406301 -0.0098967)
(-0.168169 0.436508 -0.0120025)
(-0.230954 0.464134 -0.0117081)
(-0.286301 0.497218 -0.0101612)
(-0.342517 0.528043 -0.00672087)
(-0.388235 0.55582 -0.00135593)
(-0.438769 0.584846 0.00449951)
(-0.470641 0.615103 0.00846241)
(-0.497004 0.646662 0.0106898)
(-0.486462 0.696074 0.00748842)
(-0.529035 0.738596 0.00958592)
(-0.454942 0.757798 0.0456505)
(-0.296937 0.718195 0.0562154)
(-0.277141 0.697062 0.0692681)
(-0.281906 0.634684 0.0773056)
(-0.296921 0.596408 0.0778418)
(-0.29998 0.552646 0.0762041)
(-0.301259 0.510883 0.0733451)
(-0.289753 0.467399 0.0661557)
(-0.277297 0.420199 0.0640039)
(-0.264926 0.380324 0.0419901)
(-0.25602 0.336044 0.0298571)
(-0.244449 0.304835 0.0139017)
(-0.230045 0.277769 0.00391379)
(-0.234126 0.266191 -0.00743977)
(-0.23577 0.242135 -0.018388)
(-0.171553 0.193476 -0.0151308)
(-0.089665 0.162289 -0.01558)
(-0.0383736 0.136871 -0.0122101)
(-0.00384934 0.105458 -0.00701947)
(0.00272443 0.0540902 0.00165537)
(0.00486581 0.00375703 -0.00172774)
(0.0367912 0.0177208 -0.00975201)
(0.0793422 0.058155 -0.0108865)
(0.102195 0.113522 -0.0130759)
(0.0987523 0.180163 -0.0186772)
(0.095462 0.252777 -0.0217149)
(0.0560454 0.314957 -0.0161403)
(-0.00471876 0.345521 -0.0010902)
(-0.0512165 0.388153 -0.00674138)
(-0.106014 0.425163 -0.00696458)
(-0.151061 0.467964 -0.0067833)
(-0.19896 0.51067 -0.00452037)
(-0.242183 0.550374 -0.000506504)
(-0.28644 0.583234 0.00388445)
(-0.322394 0.615992 0.0127072)
(-0.356046 0.641001 0.0175104)
(-0.372694 0.66935 0.0250822)
(-0.393799 0.685024 0.0280654)
(-0.367965 0.704254 0.0305717)
(-0.391375 0.716765 0.0169845)
(-0.378629 0.737572 0.0423023)
(-0.250982 0.630475 0.0590917)
(-0.224664 0.59168 0.0671602)
(-0.246411 0.524704 0.0758096)
(-0.272734 0.487328 0.0746004)
(-0.293418 0.448351 0.0728359)
(-0.310941 0.415099 0.0684592)
(-0.316564 0.379837 0.0601076)
(-0.317003 0.342922 0.0459069)
(-0.317219 0.307915 0.0287601)
(-0.314304 0.274447 0.014849)
(-0.305909 0.245682 0.000951214)
(-0.290002 0.224221 -0.00596323)
(-0.281624 0.208807 -0.013635)
(-0.284123 0.218941 -0.0210574)
(-0.223413 0.194121 -0.0214985)
(-0.124591 0.168522 -0.0220318)
(-0.0537015 0.147778 -0.0170802)
(-0.00914601 0.115122 -0.0107163)
(0.00265062 0.059404 5.85761e-05)
(0.00617548 0.0107394 -0.00423381)
(0.044644 0.0373073 -0.0136049)
(0.0980056 0.0856591 -0.0140356)
(0.123425 0.142081 -0.0122045)
(0.126985 0.201742 -0.0136084)
(0.111611 0.272421 -0.0161623)
(0.0510887 0.302615 -0.00536161)
(0.00648478 0.350866 0.00176754)
(-0.0212787 0.395229 -0.00253227)
(-0.0694317 0.449649 -0.000526702)
(-0.107857 0.493209 0.000327604)
(-0.147673 0.531221 0.00656459)
(-0.182387 0.56235 0.0124279)
(-0.212267 0.588064 0.0212436)
(-0.23441 0.612503 0.0256574)
(-0.26073 0.625968 0.0305835)
(-0.273781 0.637873 0.0341283)
(-0.291006 0.632753 0.033481)
(-0.281756 0.635274 0.0312882)
(-0.291586 0.597746 0.0162982)
(-0.325894 0.617054 0.0206253)
(-0.247192 0.516103 0.0411923)
(-0.201271 0.461883 0.0442729)
(-0.231985 0.415424 0.0551091)
(-0.265172 0.387128 0.0571401)
(-0.298638 0.361259 0.0577975)
(-0.326227 0.338127 0.0581968)
(-0.344392 0.311701 0.049445)
(-0.356581 0.285159 0.0381312)
(-0.363083 0.254837 0.0148018)
(-0.364701 0.223153 0.00413746)
(-0.354648 0.197811 -0.00527733)
(-0.338781 0.184686 -0.0129048)
(-0.317598 0.173513 -0.0156873)
(-0.323117 0.193767 -0.0250201)
(-0.273468 0.197382 -0.0211502)
(-0.159489 0.173688 -0.0225082)
(-0.0723979 0.156498 -0.0170934)
(-0.014206 0.121639 -0.010294)
(0.00332561 0.0627145 0.000982187)
(0.00486714 0.0256921 -0.00705132)
(0.0531085 0.0696452 -0.0176396)
(0.118326 0.125001 -0.0193982)
(0.149919 0.181135 -0.014154)
(0.157472 0.241761 -0.0157329)
(0.123918 0.290761 -0.0152642)
(0.0726394 0.32702 -0.00651322)
(0.0361517 0.386099 0.00128737)
(0.0111928 0.422425 0.00765261)
(-0.0199673 0.464192 0.0066174)
(-0.0574688 0.496953 0.0113596)
(-0.0885844 0.524929 0.015826)
(-0.112861 0.544296 0.0251379)
(-0.134106 0.555768 0.0314546)
(-0.154064 0.558251 0.034716)
(-0.176091 0.550822 0.0352347)
(-0.192741 0.542287 0.034145)
(-0.214329 0.520417 0.0293935)
(-0.231527 0.5066 0.0227709)
(-0.238228 0.463346 0.0104289)
(-0.289114 0.467174 -0.00203838)
(-0.265572 0.417681 0.015862)
(-0.207138 0.353651 0.0228691)
(-0.228508 0.334839 0.0323741)
(-0.265983 0.316562 0.0386849)
(-0.306236 0.301116 0.0428638)
(-0.343058 0.285833 0.0473711)
(-0.369605 0.264428 0.041626)
(-0.391618 0.24269 0.024295)
(-0.408781 0.209528 0.00627452)
(-0.410759 0.184272 -0.00336775)
(-0.397128 0.160871 -0.0107787)
(-0.381325 0.146773 -0.0143903)
(-0.350586 0.146042 -0.0247877)
(-0.339001 0.158121 -0.027515)
(-0.304374 0.192791 -0.0305948)
(-0.195952 0.176731 -0.0257722)
(-0.0884101 0.166286 -0.0242477)
(-0.0196238 0.131587 -0.0131966)
(0.00422517 0.0692007 -0.00112893)
(0.00738011 0.0425059 -0.00967661)
(0.0623536 0.10745 -0.0255761)
(0.136906 0.167011 -0.0248405)
(0.17571 0.221178 -0.0164276)
(0.174872 0.273714 -0.0164825)
(0.143585 0.306191 -0.0176799)
(0.106225 0.354898 -0.00677341)
(0.0748376 0.40048 0.00451195)
(0.0467488 0.439771 0.0116952)
(0.0206828 0.464156 0.0220205)
(-0.00225807 0.486534 0.0216184)
(-0.0288722 0.498491 0.0299379)
(-0.0529544 0.502035 0.0360713)
(-0.0733679 0.49407 0.0419308)
(-0.0927759 0.475193 0.0432716)
(-0.116539 0.449172 0.0403206)
(-0.13963 0.423378 0.0344625)
(-0.165687 0.392178 0.0264503)
(-0.194597 0.370507 0.017511)
(-0.20793 0.344503 0.00731611)
(-0.262515 0.335519 -0.0113907)
(-0.279591 0.32635 -0.000765406)
(-0.21898 0.284933 0.0110064)
(-0.222246 0.281744 0.0173194)
(-0.263778 0.268096 0.0281272)
(-0.306868 0.260228 0.0349409)
(-0.349009 0.243656 0.0437386)
(-0.383966 0.228554 0.0356686)
(-0.414882 0.200294 0.0253704)
(-0.430371 0.17349 0.00803781)
(-0.436275 0.14575 0.00818039)
(-0.429959 0.121839 0.0154728)
(-0.409959 0.102789 0.0107519)
(-0.381348 0.102569 0.00801113)
(-0.36002 0.115025 -0.0155606)
(-0.328349 0.161814 -0.0259438)
(-0.226945 0.172172 -0.0250662)
(-0.107269 0.164693 -0.0206755)
(-0.0257552 0.137553 -0.0123658)
(0.00500965 0.0721495 0.000139229)
(0.00836848 0.0668357 -0.012082)
(0.0714978 0.151497 -0.0315217)
(0.15521 0.214409 -0.0307389)
(0.198079 0.263556 -0.0193091)
(0.194562 0.30027 -0.0134079)
(0.169874 0.336202 -0.0166309)
(0.145906 0.376464 -0.00588502)
(0.115531 0.413841 0.000875921)
(0.0916095 0.442223 0.00862627)
(0.0647126 0.462596 0.0228148)
(0.0388575 0.468815 0.0344113)
(0.0180023 0.466219 0.0440506)
(-0.000425391 0.453885 0.0481374)
(-0.0244941 0.42704 0.0482763)
(-0.0511658 0.399498 0.0485546)
(-0.0776125 0.36306 0.0429462)
(-0.106916 0.332912 0.0338072)
(-0.138813 0.303516 0.0231139)
(-0.171924 0.282237 0.0133778)
(-0.192195 0.268665 0.00272967)
(-0.242962 0.256792 -0.0129276)
(-0.267186 0.259412 -0.00652362)
(-0.211864 0.251942 0.00502527)
(-0.210918 0.246227 0.0102369)
(-0.250833 0.235193 0.0226302)
(-0.29726 0.224611 0.0306065)
(-0.344594 0.21145 0.0387734)
(-0.383702 0.190581 0.0342997)
(-0.418791 0.166361 0.0215986)
(-0.442977 0.136424 0.0299631)
(-0.458066 0.101061 0.0315171)
(-0.458066 0.0728205 0.0165708)
(-0.442744 0.0551972 0.0117844)
(-0.407558 0.0522604 0.00176209)
(-0.368672 0.0647563 -0.00203845)
(-0.338369 0.113618 -0.0241465)
(-0.252555 0.150429 -0.0280886)
(-0.125397 0.161096 -0.022787)
(-0.0294321 0.141033 -0.0140893)
(0.00433547 0.0769362 -0.00147907)
(0.00982553 0.0866735 -0.0127894)
(0.0774389 0.191456 -0.0354698)
(0.168578 0.256671 -0.0339247)
(0.210929 0.294813 -0.0186035)
(0.214179 0.323609 -0.0120722)
(0.200531 0.357718 -0.00920539)
(0.180395 0.390048 -0.00777309)
(0.154775 0.413891 0.00397793)
(0.128786 0.434133 0.0101605)
(0.103675 0.441098 0.0203473)
(0.0823475 0.442613 0.0286125)
(0.0574396 0.429571 0.0490239)
(0.0294674 0.405392 0.0535768)
(0.00966455 0.368907 0.0560616)
(-0.016431 0.332127 0.0482906)
(-0.0499875 0.299442 0.0423142)
(-0.0806817 0.271377 0.0304733)
(-0.116113 0.249012 0.0187711)
(-0.150054 0.2344 0.00941536)
(-0.175861 0.229726 -0.00143787)
(-0.225799 0.220759 -0.0136057)
(-0.241483 0.222986 -0.00751487)
(-0.191238 0.231237 0.000810068)
(-0.190871 0.217238 0.00601504)
(-0.229214 0.204178 0.0179742)
(-0.273229 0.189133 0.0267887)
(-0.323345 0.175556 0.0335844)
(-0.365675 0.15351 0.0262635)
(-0.405622 0.127459 0.0399568)
(-0.439995 0.0922389 0.0459957)
(-0.461855 0.0577651 0.0379822)
(-0.465378 0.0301714 0.0472516)
(-0.457348 0.00840752 0.0382657)
(-0.434905 0.00319616 0.036453)
(-0.394989 0.0110608 0.0252566)
(-0.353535 0.0565766 0.004499)
(-0.266817 0.111442 -0.0238791)
(-0.140105 0.145359 -0.0244335)
(-0.0361714 0.137183 -0.013432)
(0.00564983 0.0773747 -0.00127679)
(0.0101502 0.107843 -0.0117198)
(0.0820239 0.231473 -0.0376968)
(0.174149 0.297623 -0.0366319)
(0.223439 0.32706 -0.0195179)
(0.238082 0.351416 -0.00691901)
(0.231359 0.37612 -0.00132988)
(0.212173 0.39925 0.00208849)
(0.187736 0.413547 0.00265685)
(0.166744 0.422416 0.0118684)
(0.142406 0.422987 0.0229693)
(0.117745 0.413192 0.0317663)
(0.0907477 0.391259 0.0393499)
(0.0634895 0.361114 0.0473982)
(0.0321606 0.324887 0.0548016)
(0.00627836 0.283313 0.0504902)
(-0.0222894 0.25101 0.038765)
(-0.058863 0.229154 0.0269236)
(-0.0943883 0.211852 0.0147924)
(-0.12638 0.202416 0.00695195)
(-0.154092 0.200968 -0.00335545)
(-0.20096 0.193659 -0.0115622)
(-0.201945 0.198969 -0.00519597)
(-0.158742 0.209764 -5.08839e-05)
(-0.16639 0.189034 0.00402241)
(-0.197965 0.17146 0.0151074)
(-0.240909 0.154089 0.0231657)
(-0.288771 0.134509 0.0274972)
(-0.334916 0.113787 0.0379759)
(-0.382132 0.08316 0.0494619)
(-0.422987 0.0495258 0.0486689)
(-0.449055 0.0186396 0.06847)
(-0.471756 -0.0196666 0.0503896)
(-0.478409 -0.0585154 0.0340508)
(-0.462083 -0.0799621 0.0108568)
(-0.418774 -0.0698207 0.00385714)
(-0.372965 -0.0244967 0.00597163)
(-0.28894 0.0596194 -0.00100697)
(-0.156816 0.115064 -0.0291282)
(-0.041347 0.128653 -0.0130587)
(0.00509348 0.0787511 -0.00265277)
(0.00948558 0.116366 -0.0112576)
(0.0800425 0.256011 -0.0405756)
(0.174836 0.325475 -0.041192)
(0.230583 0.353004 -0.0226287)
(0.255986 0.36859 -0.0044392)
(0.256328 0.381885 0.00539018)
(0.239035 0.393998 0.0112302)
(0.215371 0.401556 0.013722)
(0.194654 0.404517 0.0168008)
(0.171797 0.398181 0.0208771)
(0.148438 0.381651 0.0261011)
(0.118896 0.354093 0.0373905)
(0.0861508 0.321012 0.0386189)
(0.0550884 0.283094 0.0420284)
(0.0238728 0.250646 0.0464511)
(-0.00289308 0.215619 0.0369658)
(-0.0336204 0.199041 0.0225946)
(-0.0702119 0.184571 0.0117932)
(-0.0981043 0.177465 0.0050097)
(-0.125984 0.17795 -0.00430926)
(-0.164969 0.167498 -0.008693)
(-0.152376 0.184661 -0.00147826)
(-0.12195 0.184846 -0.00153804)
(-0.136471 0.159936 0.0039333)
(-0.162724 0.139271 0.0113435)
(-0.201409 0.115127 0.0190601)
(-0.246575 0.0960386 0.0225304)
(-0.292206 0.0698487 0.04057)
(-0.343059 0.0417974 0.0468021)
(-0.383603 0.0127252 0.0679067)
(-0.432914 -0.028278 0.0511181)
(-0.477162 -0.0808879 0.0403972)
(-0.493989 -0.127021 0.0254751)
(-0.479862 -0.159873 0.0126781)
(-0.43765 -0.162778 -0.00865666)
(-0.377163 -0.125328 -0.00729598)
(-0.296184 -0.0243313 -0.00126338)
(-0.176402 0.0706587 -0.0159385)
(-0.0473552 0.111023 -0.0191669)
(0.00712375 0.0761515 -0.000990133)
(0.00819485 0.124058 -0.00884411)
(0.0792248 0.2781 -0.0396594)
(0.175549 0.352668 -0.0424481)
(0.238125 0.377347 -0.0233832)
(0.270548 0.385076 -0.00251808)
(0.275492 0.385456 0.0118128)
(0.262546 0.38822 0.02172)
(0.242846 0.389373 0.0241625)
(0.224709 0.387932 0.0265376)
(0.200693 0.3763 0.0282704)
(0.17387 0.356117 0.0292391)
(0.14413 0.325071 0.0280063)
(0.111687 0.290863 0.02716)
(0.078031 0.254057 0.0303454)
(0.0435728 0.222312 0.0334496)
(0.0171176 0.19595 0.0323254)
(-0.00945903 0.172383 0.0183609)
(-0.0442086 0.162912 0.00879942)
(-0.0651419 0.158005 0.00376449)
(-0.0941024 0.15188 -0.00572541)
(-0.115822 0.148839 -0.00326815)
(-0.0975521 0.172248 0.000745643)
(-0.0900559 0.156094 0.00124426)
(-0.107411 0.130722 0.00444678)
(-0.130269 0.105182 0.0103877)
(-0.162805 0.0792789 0.0149075)
(-0.202238 0.0571533 0.0294002)
(-0.247668 0.031332 0.0381216)
(-0.291054 0.00695346 0.0549283)
(-0.347733 -0.0296758 0.048155)
(-0.410051 -0.082079 0.0432291)
(-0.459911 -0.13403 0.0328709)
(-0.490949 -0.185174 0.0203859)
(-0.492873 -0.227522 0.00416264)
(-0.457614 -0.247204 -0.013582)
(-0.389534 -0.219789 -0.0199289)
(-0.300656 -0.132511 -0.0180954)
(-0.18698 0.010972 0.00296051)
(-0.0572333 0.0850819 -0.0236905)
(0.00519516 0.0732667 -0.0019846)
(0.00589844 0.108655 -0.00937301)
(0.0729354 0.275638 -0.0401004)
(0.169856 0.356436 -0.0420773)
(0.237354 0.382292 -0.0225777)
(0.276996 0.384692 0.00108803)
(0.289893 0.381459 0.0157161)
(0.284038 0.379049 0.022123)
(0.266278 0.373133 0.0263028)
(0.246739 0.363215 0.027963)
(0.222898 0.347629 0.0285194)
(0.196675 0.325734 0.0274948)
(0.164786 0.297479 0.0249725)
(0.129781 0.264652 0.0202252)
(0.0960741 0.230216 0.0137857)
(0.0649218 0.200785 0.0151338)
(0.0340486 0.178838 0.0201298)
(0.0119149 0.158969 0.0141139)
(-0.00978622 0.144633 0.00467628)
(-0.0343821 0.139835 -0.000483779)
(-0.0550165 0.132786 -0.00454041)
(-0.0568685 0.147098 0.00111675)
(-0.0526411 0.148568 0.00249118)
(-0.0646726 0.127338 0.00431716)
(-0.0818068 0.10119 0.00615027)
(-0.102112 0.0756528 0.00857647)
(-0.128327 0.0489865 0.0131119)
(-0.162351 0.0240939 0.0237432)
(-0.197937 -0.00134665 0.0381736)
(-0.248849 -0.0323134 0.0395997)
(-0.310007 -0.0797705 0.0401343)
(-0.370267 -0.127388 0.0359216)
(-0.426439 -0.183597 0.0302494)
(-0.466841 -0.241623 0.019184)
(-0.48362 -0.29638 0.004764)
(-0.461533 -0.330117 -0.0138887)
(-0.401851 -0.320786 -0.0263451)
(-0.296806 -0.244167 -0.0295065)
(-0.190963 -0.0906693 -0.0178963)
(-0.068809 0.0441287 -0.0163191)
(0.00679512 0.0633805 -0.00542847)
(0.00737729 0.110409 -0.00252699)
(0.0735017 0.283824 -0.0325473)
(0.169051 0.368694 -0.0372805)
(0.242456 0.39202 -0.0170795)
(0.291652 0.38863 0.00810594)
(0.312879 0.376742 0.0160711)
(0.307846 0.367652 0.0248238)
(0.289174 0.354976 0.0267062)
(0.270779 0.343708 0.02619)
(0.248081 0.325508 0.0233593)
(0.22215 0.302788 0.0199976)
(0.190964 0.2716 0.0155574)
(0.154635 0.239386 0.010149)
(0.119001 0.205678 0.00642266)
(0.0872944 0.17774 0.00224056)
(0.0610473 0.155948 0.00415322)
(0.0357551 0.145524 0.00485968)
(0.0145734 0.139106 0.000153983)
(0.00375706 0.141607 -0.00221234)
(-0.00156514 0.141701 -0.00103728)
(-0.011233 0.14336 0.00231793)
(-0.0254433 0.122918 0.00515836)
(-0.0417703 0.101606 0.00696755)
(-0.0602349 0.076165 0.00781826)
(-0.0787933 0.0511733 0.00944881)
(-0.102427 0.0246298 0.0152487)
(-0.129952 -0.000642325 0.0263687)
(-0.168558 -0.030384 0.0281289)
(-0.219455 -0.0689727 0.030519)
(-0.274683 -0.110252 0.0311984)
(-0.333185 -0.157922 0.031242)
(-0.38889 -0.215167 0.0280881)
(-0.434046 -0.277478 0.0208327)
(-0.460904 -0.343539 0.00771194)
(-0.452505 -0.393383 -0.00995016)
(-0.403109 -0.408461 -0.026484)
(-0.306564 -0.346198 -0.0381459)
(-0.189425 -0.203643 -0.029498)
(-0.0645026 -0.0109401 -0.00960659)
(0.00188148 0.049214 -0.00839339)
(-0.00258011 0.0883793 -0.0142954)
(0.0530216 0.270563 -0.0391297)
(0.150713 0.3663 -0.0450098)
(0.232546 0.392361 -0.0237049)
(0.291926 0.390691 -0.00190095)
(0.32549 0.371332 0.0121184)
(0.330918 0.354315 0.0184364)
(0.31565 0.333315 0.0199381)
(0.296177 0.315186 0.0177613)
(0.270005 0.301675 0.0146383)
(0.24027 0.289386 0.0112724)
(0.205444 0.273195 0.00882205)
(0.168732 0.250203 0.00551294)
(0.13432 0.221177 0.00305974)
(0.107229 0.195251 0.000426882)
(0.0866969 0.175542 0.00135556)
(0.0761695 0.170225 0.00114701)
(0.067268 0.167924 -0.00288131)
(0.050772 0.164094 -0.00467357)
(0.0312183 0.148635 -0.0027117)
(0.010406 0.129908 0.00135905)
(-0.00709196 0.104312 0.00573864)
(-0.0236713 0.0799453 0.00814522)
(-0.0428529 0.0547955 0.00957946)
(-0.0606001 0.0287205 0.0115937)
(-0.080697 0.00196045 0.0149046)
(-0.108066 -0.0248426 0.0152329)
(-0.144309 -0.0613279 0.0161893)
(-0.188995 -0.0984637 0.0182087)
(-0.238792 -0.143338 0.0204488)
(-0.291875 -0.19217 0.0219921)
(-0.344858 -0.252898 0.0217048)
(-0.392043 -0.319289 0.0172047)
(-0.426306 -0.395208 0.00754687)
(-0.431366 -0.459152 -0.00911185)
(-0.393359 -0.494312 -0.0247491)
(-0.305819 -0.450497 -0.0495809)
(-0.191772 -0.319291 -0.0423843)
(-0.064613 -0.0938571 -0.0115112)
(0.00105037 0.0338006 0.000523144)
(-0.00214819 0.156342 -0.00263964)
(0.0497332 0.354222 -0.0163654)
(0.139938 0.454026 -0.0273203)
(0.224516 0.476625 -0.00794857)
(0.293242 0.466911 -0.000969094)
(0.332569 0.434681 0.0149957)
(0.341928 0.398684 0.019559)
(0.327647 0.37491 0.0221169)
(0.320435 0.373061 0.0194183)
(0.309779 0.372357 0.0140427)
(0.287083 0.365613 0.00743161)
(0.249161 0.349563 0.000850336)
(0.200757 0.32256 -0.00388229)
(0.158556 0.288639 -0.00547443)
(0.1305 0.2576 -0.0067788)
(0.120076 0.230578 -0.00402953)
(0.109155 0.208885 0.000874728)
(0.0887407 0.185017 -0.0052144)
(0.0656173 0.161575 -0.00894639)
(0.0459206 0.134847 -0.00475151)
(0.0258096 0.110964 -0.00157029)
(0.00495346 0.0853763 0.0034992)
(-0.0114281 0.0597948 0.00755395)
(-0.0308464 0.0332207 0.0103405)
(-0.0482316 0.00991797 0.0112001)
(-0.0675752 -0.0159848 0.0110176)
(-0.0963392 -0.0399346 0.00938285)
(-0.13297 -0.0713364 0.00853145)
(-0.175112 -0.104873 0.00957216)
(-0.21939 -0.148248 0.0120726)
(-0.26531 -0.19596 0.0152611)
(-0.310306 -0.257399 0.0173147)
(-0.354147 -0.328671 0.0162002)
(-0.390708 -0.414517 0.00936443)
(-0.403576 -0.497794 -0.00566287)
(-0.375502 -0.561385 -0.0242973)
(-0.305323 -0.561519 -0.05427)
(-0.194742 -0.434762 -0.0556408)
(-0.0566592 -0.216576 -0.0285207)
(0.00547079 -0.00830629 -0.00121885)
(-0.0163528 0.22909 -0.0197752)
(0.0206577 0.468671 -0.038993)
(0.108754 0.579027 -0.0476223)
(0.194587 0.618033 -0.0312242)
(0.266487 0.608744 -0.0211979)
(0.312924 0.575971 -0.00257747)
(0.344366 0.528821 0.00550236)
(0.36995 0.492942 0.00692492)
(0.376064 0.475068 -0.000507871)
(0.347708 0.449986 -0.00639704)
(0.306649 0.417573 -0.0100951)
(0.254829 0.379256 -0.0113003)
(0.201471 0.335595 -0.0113734)
(0.16148 0.297452 -0.0109434)
(0.137366 0.264324 -0.0112905)
(0.121917 0.233695 -0.00889076)
(0.112168 0.196983 -0.00457314)
(0.100229 0.166821 0.00171575)
(0.0795084 0.140572 -0.00259286)
(0.0584451 0.117291 -0.00516674)
(0.0370789 0.0910665 -0.00237748)
(0.0161901 0.0651148 0.00169945)
(-0.00216804 0.0388547 0.00702613)
(-0.0187182 0.0114603 0.010334)
(-0.0335832 -0.0120096 0.00986656)
(-0.0500445 -0.0395448 0.0103201)
(-0.0758336 -0.0650755 0.00543622)
(-0.110366 -0.0932636 0.000587711)
(-0.150547 -0.126762 -0.00414156)
(-0.19182 -0.173986 -0.0065259)
(-0.234111 -0.222821 -0.00680903)
(-0.276246 -0.287312 -0.00671025)
(-0.317212 -0.358127 -0.00539797)
(-0.355926 -0.452384 -0.00734757)
(-0.381821 -0.548811 -0.0171386)
(-0.381666 -0.64688 -0.0335703)
(-0.31232 -0.675873 -0.0578601)
(-0.226511 -0.576191 -0.0745684)
(-0.0835577 -0.298404 -0.0343964)
(0.0160333 -0.0317502 -0.00353628)
(0.00134158 0.193434 0.00310496)
(0.038434 0.43566 -0.035287)
(0.111937 0.560611 -0.0475877)
(0.197949 0.616913 -0.0436991)
(0.268743 0.619803 -0.0336593)
(0.31668 0.59811 -0.0223719)
(0.342822 0.557962 -0.0152489)
(0.358617 0.510554 -0.00632509)
(0.36262 0.460043 -0.00875061)
(0.338738 0.417441 -0.00901452)
(0.30395 0.378327 -0.00940372)
(0.25652 0.341378 -0.0084678)
(0.209081 0.302751 -0.00740945)
(0.176478 0.271904 -0.00653112)
(0.153968 0.243058 -0.00614046)
(0.137294 0.214934 -0.00425858)
(0.123887 0.185075 -0.00156008)
(0.111579 0.150483 0.00102718)
(0.0928626 0.123195 0.00472808)
(0.0705453 0.0978786 0.00140426)
(0.0456004 0.0745611 -0.00145154)
(0.0231168 0.0479858 0.00184873)
(0.00438343 0.0237059 0.00837082)
(-0.0119324 -0.00415491 0.0105272)
(-0.0276606 -0.027795 0.0116776)
(-0.0454866 -0.056899 0.0145089)
(-0.0687988 -0.0848895 0.0133964)
(-0.103729 -0.113703 0.00913003)
(-0.149773 -0.138317 0.00457613)
(-0.186708 -0.17875 0.0037977)
(-0.219141 -0.225674 0.00218098)
(-0.248811 -0.298715 -0.000340468)
(-0.282102 -0.390306 -0.00525739)
(-0.314239 -0.523932 -0.011794)
(-0.344318 -0.664257 -0.0183013)
(-0.350525 -0.797506 -0.0269852)
(-0.299237 -0.859142 -0.0485514)
(-0.19336 -0.809892 -0.0633215)
(-0.0711737 -0.509943 -0.0619732)
(-0.0041072 -0.136514 0.00977656)
(-0.000591036 0.20643 -0.00213964)
(0.0333238 0.422796 -0.0322846)
(0.0994107 0.54562 -0.0430262)
(0.176881 0.599217 -0.0409163)
(0.245159 0.603006 -0.0241235)
(0.296798 0.577357 -0.0177583)
(0.330905 0.53463 -0.00890462)
(0.352313 0.490972 -0.00240689)
(0.36227 0.44254 -0.00357975)
(0.344883 0.403724 -0.00414215)
(0.309212 0.367376 -0.00475707)
(0.260161 0.329387 -0.00445929)
(0.215447 0.293455 -0.00428399)
(0.186644 0.262152 -0.00424296)
(0.165051 0.232276 -0.00394165)
(0.147689 0.202109 -0.00236605)
(0.129429 0.172703 -0.000990677)
(0.117158 0.137185 0.00325969)
(0.102354 0.104272 0.00440815)
(0.0820805 0.078079 0.00742101)
(0.0568455 0.0567146 0.00307742)
(0.0332259 0.0333113 0.00164357)
(0.01284 0.0120415 0.00690006)
(-0.00277222 -0.012578 0.00906726)
(-0.0174052 -0.0353161 0.011142)
(-0.0352933 -0.0610943 0.0132169)
(-0.0556644 -0.0849711 0.0142948)
(-0.0785565 -0.110826 0.0136718)
(-0.117661 -0.125336 0.00821915)
(-0.161389 -0.14393 0.00635129)
(-0.206619 -0.172772 0.00762894)
(-0.254039 -0.229217 0.0107616)
(-0.309983 -0.305876 0.0151096)
(-0.353409 -0.430048 0.0181713)
(-0.363289 -0.579596 0.0130099)
(-0.354475 -0.748077 0.0050435)
(-0.308778 -0.871898 -0.0115671)
(-0.209214 -0.89719 -0.0383796)
(-0.0545697 -0.674633 -0.0491132)
(0.022666 -0.238032 -0.0143587)
(0.00387594 0.190989 -0.0031102)
(0.0394218 0.389601 -0.0258782)
(0.0991919 0.518442 -0.0368259)
(0.171998 0.577202 -0.0357652)
(0.236324 0.591135 -0.024255)
(0.283642 0.570727 -0.0140298)
(0.31991 0.529799 -0.00479226)
(0.339991 0.483656 0.000909844)
(0.350217 0.430629 -0.000256299)
(0.339894 0.384127 -0.0015943)
(0.306417 0.342241 -0.00279501)
(0.261462 0.302103 -0.00238716)
(0.223416 0.269076 -0.00247688)
(0.198957 0.238438 -0.00230539)
(0.178347 0.209779 -0.00214882)
(0.16182 0.180447 -0.00110197)
(0.141635 0.152088 0.000216585)
(0.122883 0.121379 0.00171564)
(0.109684 0.0849638 0.00747362)
(0.0950965 0.0568877 0.00756856)
(0.0698784 0.03749 0.00863662)
(0.0456157 0.017588 0.00543961)
(0.0248897 -0.000718768 0.00648001)
(0.00739769 -0.0208858 0.00841839)
(-0.00821401 -0.0418821 0.0104078)
(-0.0249129 -0.0669573 0.0111725)