/*--------------------------------*- C++ -*----------------------------------*\
| =========                 |                                                 |
| \\      /  F ield         | OpenFOAM: The Open Source CFD Toolbox           |
|  \\    /   O peration     | Version:  v1806                                 |
|   \\  /    A nd           | Web:      www.OpenFOAM.com                      |
|    \\/     M anipulation  |                                                 |
\*---------------------------------------------------------------------------*/
FoamFile
{
    version     2.0;
    format      ascii;
    class       volVectorField;
    location    "0.0025";
    object      U_0;
}
// * * * * * * * * * * * * * * * * * * * * * * * * * * * * * * * * * * * * * //

dimensions      [0 1 -1 0 0 0 0];


internalField   nonuniform List<vector> 
64000
(
(0.000817724 -0.00103131 0.000331266)
(0.00709624 -0.00260479 -0.000614809)
(0.0171028 -0.00283593 -0.000692497)
(0.0254775 -0.00255456 -0.000445411)
(0.0321809 -0.0021859 -0.000218715)
(0.0374092 -0.00212181 -0.000233905)
(0.041593 -0.00234546 -0.000538502)
(0.0447165 -0.00248397 -0.000893224)
(0.0467362 -0.00231663 -0.00109615)
(0.047068 -0.00209786 -0.00114496)
(0.0446873 -0.00206518 -0.000958439)
(0.038621 -0.00228548 -0.000397916)
(0.0280929 -0.00298743 0.00061339)
(0.0117407 -0.00428759 0.00185274)
(-0.0101782 -0.00563329 0.00383211)
(-0.0376151 -0.00736171 0.00571203)
(-0.0706817 -0.00851736 0.0074838)
(-0.106333 -0.00864279 0.00837435)
(-0.143194 -0.00804965 0.00607235)
(-0.18015 -0.00589821 0.00122126)
(-0.21397 -0.00179548 -0.00595028)
(-0.241497 0.00427217 -0.0153891)
(-0.259856 0.0120333 -0.0267341)
(-0.266405 0.0209823 -0.0393988)
(-0.258994 0.0303754 -0.0526799)
(-0.236521 0.0392909 -0.0654663)
(-0.199502 0.0467074 -0.0762187)
(-0.150421 0.0517401 -0.0830348)
(-0.093874 0.0536328 -0.0840584)
(-0.0357719 0.0518618 -0.0781745)
(0.0152992 0.0455815 -0.0666699)
(0.0497641 0.0392507 -0.0506663)
(0.0650615 0.0293457 -0.0332852)
(0.0647079 0.0199645 -0.0182919)
(0.0543857 0.0122348 -0.00788403)
(0.0406118 0.00681087 -0.00213699)
(0.0275981 0.00363712 0.000216598)
(0.017032 0.00222019 0.000695378)
(0.00783012 0.0016663 0.000717984)
(0.00161298 0.000326657 0.000579213)
(0.00189549 -0.00522095 0.000450347)
(0.0126706 -0.00974051 -0.00179511)
(0.0290723 -0.00941985 -0.00260116)
(0.0425487 -0.00689375 -0.00281001)
(0.0522766 -0.00384204 -0.00315795)
(0.0583664 -0.000806908 -0.00393765)
(0.061738 0.00209106 -0.00518859)
(0.0622874 0.00543768 -0.00682298)
(0.0588428 0.00964393 -0.00873672)
(0.0496169 0.0148756 -0.0105916)
(0.0329479 0.0206905 -0.0124631)
(0.00713811 0.0277464 -0.0143598)
(-0.0291119 0.0356514 -0.0163508)
(-0.0764014 0.0443686 -0.0186396)
(-0.134152 0.0548363 -0.0213612)
(-0.200489 0.0667868 -0.0251132)
(-0.272468 0.0814301 -0.0305578)
(-0.345698 0.0991769 -0.0385593)
(-0.415637 0.119247 -0.0499641)
(-0.47773 0.142005 -0.0646978)
(-0.527269 0.167026 -0.0822949)
(-0.560153 0.193254 -0.101886)
(-0.573246 0.219308 -0.122154)
(-0.564511 0.243574 -0.141626)
(-0.533099 0.264336 -0.158867)
(-0.479648 0.279748 -0.172081)
(-0.406863 0.288207 -0.179445)
(-0.319352 0.288335 -0.179194)
(-0.223945 0.279169 -0.170131)
(-0.129182 0.260335 -0.152206)
(-0.0413165 0.231826 -0.12698)
(0.0242859 0.196599 -0.100364)
(0.0618917 0.157999 -0.0714896)
(0.0780049 0.120431 -0.0473966)
(0.0754461 0.0871953 -0.0298329)
(0.0627327 0.0612313 -0.0188037)
(0.0469686 0.0432632 -0.0126483)
(0.0321631 0.0320026 -0.00916326)
(0.0178077 0.0240914 -0.00599479)
(0.0051763 0.0127954 -0.00222339)
(0.00214868 -0.0104697 -9.77127e-05)
(0.01483 -0.016751 -0.00364038)
(0.0337478 -0.0138383 -0.00504748)
(0.0479142 -0.00638269 -0.0055776)
(0.0567076 0.0029498 -0.00639146)
(0.0602355 0.01313 -0.00832305)
(0.058862 0.0243914 -0.0111851)
(0.052096 0.0375006 -0.0146104)
(0.0384599 0.0530899 -0.0187736)
(0.0154542 0.0719113 -0.0227595)
(-0.018251 0.0941961 -0.0265537)
(-0.0636756 0.119797 -0.0305172)
(-0.121364 0.14846 -0.0341933)
(-0.189391 0.179725 -0.0376897)
(-0.26494 0.213517 -0.0414464)
(-0.344129 0.249543 -0.0460395)
(-0.422581 0.28782 -0.0518967)
(-0.495824 0.328105 -0.0591741)
(-0.559741 0.36967 -0.0677739)
(-0.610873 0.411723 -0.0773223)
(-0.646414 0.452978 -0.0872483)
(-0.66429 0.491863 -0.0968863)
(-0.663321 0.526724 -0.105597)
(-0.643146 0.555364 -0.112836)
(-0.604148 0.575263 -0.117692)
(-0.547903 0.584086 -0.119506)
(-0.47715 0.580102 -0.117704)
(-0.395878 0.561987 -0.112005)
(-0.309119 0.52941 -0.102552)
(-0.222493 0.483427 -0.0900392)
(-0.141729 0.426873 -0.0757474)
(-0.0744183 0.360413 -0.0613436)
(-0.0242127 0.295272 -0.0474881)
(0.00856332 0.233619 -0.0361349)
(0.0252236 0.179778 -0.0271944)
(0.0307596 0.136543 -0.0211316)
(0.0296389 0.104639 -0.0171015)
(0.0251455 0.0822104 -0.0137728)
(0.0168424 0.0634286 -0.00920357)
(0.00568093 0.035551 -0.00298102)
(0.00223259 -0.0132667 -0.00138825)
(0.0162001 -0.0187218 -0.0065551)
(0.0363441 -0.0109477 -0.00846049)
(0.0497207 0.00403683 -0.00907516)
(0.0556271 0.0225507 -0.0106295)
(0.0543704 0.0432801 -0.0138322)
(0.0466476 0.0670908 -0.0183336)
(0.0315712 0.0950874 -0.0234008)
(0.00769147 0.127472 -0.0283884)
(-0.0264774 0.164806 -0.0329378)
(-0.0716701 0.20638 -0.036779)
(-0.127074 0.250432 -0.0396883)
(-0.190718 0.296218 -0.0414407)
(-0.259633 0.342831 -0.0420718)
(-0.330427 0.389697 -0.0418944)
(-0.39965 0.436455 -0.0413024)
(-0.464184 0.482952 -0.0405022)
(-0.521179 0.528866 -0.0395447)
(-0.56836 0.573524 -0.0383366)
(-0.604057 0.615769 -0.0366886)
(-0.626938 0.653906 -0.0344062)
(-0.63595 0.686425 -0.0316609)
(-0.631114 0.712755 -0.0291648)
(-0.613153 0.730304 -0.0269126)
(-0.582511 0.735944 -0.0244253)
(-0.540377 0.728194 -0.0216677)
(-0.488683 0.70597 -0.0188362)
(-0.430089 0.668957 -0.0162745)
(-0.367278 0.617961 -0.0144054)
(-0.302676 0.555383 -0.0137468)
(-0.23912 0.486302 -0.0148)
(-0.179781 0.41388 -0.0168007)
(-0.126733 0.344158 -0.0187422)
(-0.0817448 0.280404 -0.0200121)
(-0.0463156 0.2261 -0.0201766)
(-0.0203918 0.182399 -0.0195559)
(-0.00266834 0.149022 -0.0182335)
(0.00811353 0.123359 -0.0156304)
(0.0108497 0.0979667 -0.0103961)
(0.00492844 0.0554575 -0.00279843)
(0.00243192 -0.0120593 -0.0038073)
(0.0180443 -0.0130861 -0.011225)
(0.0399564 0.00238835 -0.0135107)
(0.052424 0.0272787 -0.0139979)
(0.0550023 0.0572639 -0.0158794)
(0.0491859 0.0915756 -0.0198544)
(0.0361664 0.130878 -0.0249474)
(0.0149889 0.175495 -0.0300108)
(-0.014516 0.225005 -0.0338502)
(-0.0527225 0.277895 -0.0367278)
(-0.0995774 0.332409 -0.0379837)
(-0.152702 0.386683 -0.037469)
(-0.209681 0.439451 -0.0350897)
(-0.267854 0.489903 -0.0309171)
(-0.324764 0.537591 -0.0252336)
(-0.378246 0.582096 -0.0183584)
(-0.42661 0.623737 -0.0105928)
(-0.468384 0.662241 -0.00212367)
(-0.502665 0.696877 0.00713752)
(-0.529183 0.726912 0.0171336)
(-0.547312 0.751056 0.0276177)
(-0.555301 0.768127 0.0376574)
(-0.553722 0.776816 0.0441156)
(-0.544988 0.775725 0.0472368)
(-0.530439 0.763942 0.0488803)
(-0.509364 0.740604 0.0488387)
(-0.482845 0.705334 0.0468351)
(-0.451829 0.658641 0.0427163)
(-0.416498 0.602134 0.0364278)
(-0.375067 0.538697 0.0280383)
(-0.327701 0.472275 0.0159632)
(-0.27745 0.406669 0.00342144)
(-0.224129 0.345537 -0.00738559)
(-0.169717 0.291309 -0.015322)
(-0.118144 0.245651 -0.0198326)
(-0.0733528 0.208861 -0.0212428)
(-0.0374931 0.179852 -0.0203357)
(-0.0112879 0.155128 -0.0171364)
(0.00356277 0.125742 -0.0110537)
(0.00391346 0.0717232 -0.00243531)
(0.00270984 -0.00523424 -0.00751574)
(0.0212699 0.00365456 -0.0178335)
(0.0465372 0.029098 -0.0203027)
(0.058981 0.0648039 -0.0200211)
(0.0594904 0.107099 -0.0214212)
(0.0509243 0.155221 -0.024943)
(0.0352582 0.208804 -0.0290105)
(0.0127542 0.266602 -0.0321511)
(-0.0167067 0.327163 -0.0336629)
(-0.0528343 0.387732 -0.0333266)
(-0.094375 0.446377 -0.031071)
(-0.139333 0.500982 -0.02679)
(-0.185483 0.550711 -0.0204538)
(-0.230873 0.594842 -0.0122048)
(-0.274233 0.633319 -0.00224468)
(-0.314155 0.66605 0.00927374)
(-0.349693 0.692965 0.0209791)
(-0.380438 0.713898 0.0321794)
(-0.406428 0.728985 0.0438919)
(-0.42796 0.738338 0.0556731)
(-0.44548 0.742134 0.0660368)
(-0.458556 0.740068 0.0742431)
(-0.46766 0.730497 0.0792093)
(-0.473931 0.713682 0.0807152)
(-0.478061 0.6906 0.0794808)
(-0.479585 0.66088 0.0756026)
(-0.478167 0.624432 0.0691)
(-0.472736 0.581697 0.0600683)
(-0.461085 0.533804 0.0486324)
(-0.440014 0.48244 0.0349887)
(-0.407567 0.428688 0.0203277)
(-0.364403 0.376472 0.00557564)
(-0.310896 0.328771 -0.00810157)
(-0.24914 0.287243 -0.018661)
(-0.183994 0.252679 -0.0249522)
(-0.122215 0.224639 -0.0267103)
(-0.0695191 0.201438 -0.0247554)
(-0.0292859 0.179054 -0.0199307)
(-0.00290961 0.147317 -0.0122002)
(0.00341476 0.0841383 -0.00264875)
(0.0041086 0.0104032 -0.0117303)
(0.0271027 0.0338054 -0.0258882)
(0.0570203 0.0698237 -0.0282504)
(0.0714205 0.115612 -0.0262766)
(0.0721552 0.168535 -0.0260856)
(0.063512 0.227491 -0.0278505)
(0.0483593 0.290744 -0.0296364)
(0.0276174 0.355576 -0.0299075)
(0.00188277 0.419028 -0.0282159)
(-0.0285 0.478626 -0.0248874)
(-0.0629366 0.534206 -0.0198446)
(-0.099241 0.581232 -0.0128205)
(-0.135418 0.620714 -0.00390147)
(-0.170402 0.651607 0.00654627)
(-0.20355 0.673916 0.0184032)
(-0.234423 0.68783 0.0310451)
(-0.263008 0.693632 0.043309)
(-0.289091 0.692138 0.0545288)
(-0.313016 0.68465 0.0644264)
(-0.335473 0.67243 0.0726372)
(-0.357187 0.657065 0.0786605)
(-0.378486 0.639425 0.0821938)
(-0.399706 0.619677 0.0831374)
(-0.421121 0.598157 0.0815819)
(-0.442653 0.575192 0.0778069)
(-0.463462 0.550353 0.0719963)
(-0.48205 0.523025 0.0642855)
(-0.495949 0.492675 0.0547622)
(-0.50183 0.45912 0.0434614)
(-0.495971 0.422481 0.03075)
(-0.475116 0.383418 0.0165609)
(-0.438011 0.344672 0.00295142)
(-0.385366 0.309315 -0.0108657)
(-0.318938 0.279395 -0.0225947)
(-0.243404 0.255441 -0.0304279)
(-0.166958 0.23616 -0.0330439)
(-0.0986277 0.218792 -0.0304493)
(-0.0451708 0.198883 -0.023939)
(-0.00852308 0.165784 -0.0144254)
(0.00290589 0.0946205 -0.00325549)
(0.00521438 0.0348795 -0.0167017)
(0.0339295 0.0765225 -0.0346483)
(0.0714414 0.122731 -0.0363097)
(0.0904207 0.176168 -0.0317563)
(0.0938356 0.235954 -0.0289455)
(0.0874274 0.300673 -0.0280734)
(0.0748674 0.367405 -0.027045)
(0.0573833 0.43251 -0.0244342)
(0.0355432 0.492773 -0.0199823)
(0.0118292 0.54576 -0.0139878)
(-0.015967 0.590457 -0.00806844)
(-0.0462309 0.625202 0.000515213)
(-0.0754985 0.650675 0.0109766)
(-0.104652 0.663897 0.022242)
(-0.132842 0.666167 0.0336696)
(-0.160192 0.658531 0.0444289)
(-0.187017 0.642931 0.0537914)
(-0.213435 0.621585 0.0612343)
(-0.23981 0.596892 0.0665188)
(-0.266723 0.57115 0.0696688)
(-0.294894 0.546406 0.0708337)
(-0.324857 0.523919 0.070265)
(-0.356812 0.504125 0.0682931)
(-0.390536 0.486788 0.065217)
(-0.425277 0.471109 0.0612169)
(-0.459606 0.455763 0.0563479)
(-0.491384 0.439294 0.0505529)
(-0.5177 0.420361 0.0436659)
(-0.53514 0.398089 0.0356125)
(-0.539999 0.372281 0.026121)
(-0.528594 0.343709 0.0149121)
(-0.497858 0.314332 0.00243404)
(-0.447389 0.288191 -0.0108481)
(-0.378922 0.267542 -0.0233584)
(-0.296366 0.253204 -0.0329158)
(-0.208291 0.243114 -0.0373815)
(-0.125928 0.232729 -0.0355456)
(-0.0598686 0.216245 -0.0281787)
(-0.0137872 0.182603 -0.0172127)
(0.00227155 0.104809 -0.00405342)
(0.00662017 0.0650288 -0.0210931)
(0.0422587 0.128821 -0.042809)
(0.0894223 0.184126 -0.0434275)
(0.115205 0.241759 -0.0357107)
(0.123193 0.303644 -0.0296774)
(0.120316 0.368528 -0.0258327)
(0.111015 0.432833 -0.022126)
(0.0969387 0.492626 -0.0172748)
(0.0789533 0.545007 -0.0112252)
(0.0581721 0.587951 -0.00446015)
(0.0343295 0.618514 0.0036414)
(0.00947235 0.638841 0.0129774)
(-0.0171928 0.646467 0.0221684)
(-0.0455214 0.641337 0.0322822)
(-0.0731925 0.624689 0.0413123)
(-0.101448 0.598896 0.0484756)
(-0.130365 0.567363 0.0533447)
(-0.160054 0.533655 0.0558872)
(-0.190824 0.500953 0.0564128)
(-0.223187 0.471656 0.0554465)
(-0.257743 0.447251 0.0535389)
(-0.294856 0.428244 0.0511755)
(-0.334442 0.414212 0.0487232)
(-0.375917 0.403985 0.0463997)
(-0.418211 0.395881 0.0442171)
(-0.459806 0.388004 0.0420063)
(-0.498733 0.378575 0.03945)
(-0.532491 0.366121 0.0360565)
(-0.558004 0.349756 0.0313865)
(-0.57154 0.329468 0.0248389)
(-0.568897 0.306369 0.016046)
(-0.545274 0.28278 0.00522705)
(-0.498729 0.262037 -0.00811991)
(-0.430359 0.248072 -0.021366)
(-0.343265 0.24211 -0.0325258)
(-0.246206 0.24186 -0.0390503)
(-0.151839 0.240805 -0.0388503)
(-0.0740856 0.230242 -0.0316683)
(-0.0189824 0.19797 -0.0198107)
(0.00157533 0.114978 -0.00492644)
(0.00815797 0.098918 -0.0242497)
(0.0514783 0.186776 -0.0493466)
(0.109703 0.249514 -0.0488739)
(0.143804 0.307707 -0.0378434)
(0.157436 0.367043 -0.0284477)
(0.158409 0.427111 -0.0217438)
(0.151985 0.484384 -0.0159119)
(0.140381 0.535084 -0.00970114)
(0.124658 0.576548 -0.00299461)
(0.105437 0.606745 0.0045799)
(0.0831203 0.624213 0.0127589)
(0.0585393 0.628945 0.0213176)
(0.0315205 0.619196 0.0295723)
(0.00225768 0.598035 0.037014)
(-0.0283875 0.566714 0.0425816)
(-0.0601544 0.528985 0.0456424)
(-0.0928638 0.489419 0.0462075)
(-0.126575 0.452002 0.0448255)
(-0.161608 0.419631 0.0422969)
(-0.198434 0.393818 0.0394099)
(-0.237416 0.374799 0.0367646)
(-0.278577 0.361831 0.0347368)
(-0.321559 0.353517 0.0335001)
(-0.365748 0.348128 0.0330539)
(-0.410379 0.343852 0.0332196)
(-0.454528 0.338968 0.0336496)
(-0.49698 0.331967 0.0338546)
(-0.53589 0.321624 0.0332644)
(-0.568432 0.30722 0.0310598)
(-0.59057 0.28881 0.0264758)
(-0.597143 0.267645 0.0189917)
(-0.58252 0.246346 0.00853135)
(-0.542465 0.228017 -0.00442345)
(-0.475868 0.218056 -0.018382)
(-0.385897 0.218855 -0.0309803)
(-0.281265 0.228677 -0.0392227)
(-0.176245 0.239517 -0.0406306)
(-0.0876413 0.238654 -0.0341823)
(-0.0240765 0.210912 -0.0218908)
(0.000755534 0.124602 -0.00579892)
(0.00961587 0.133405 -0.0257624)
(0.060732 0.245893 -0.0536376)
(0.130552 0.314431 -0.0523142)
(0.173715 0.370092 -0.038234)
(0.193325 0.423109 -0.0256496)
(0.197836 0.474652 -0.0165349)
(0.193477 0.521884 -0.00925239)
(0.18316 0.561529 -0.00247598)
(0.168036 0.590869 0.00451029)
(0.148657 0.608097 0.011753)
(0.125608 0.612271 0.0191977)
(0.0992361 0.602882 0.0265043)
(0.0696183 0.580203 0.0329297)
(0.0371155 0.546825 0.0375694)
(0.00248346 0.506411 0.0397179)
(-0.0332138 0.463363 0.0393356)
(-0.0693998 0.422815 0.0369118)
(-0.106225 0.387945 0.0334644)
(-0.144001 0.360463 0.0299643)
(-0.183066 0.340419 0.0271084)
(-0.223492 0.326705 0.0252627)
(-0.265059 0.317671 0.0245311)
(-0.30746 0.311604 0.0248521)
(-0.350504 0.306976 0.0260651)
(-0.394148 0.302487 0.0279207)
(-0.438322 0.296991 0.0300606)
(-0.482613 0.289426 0.0319987)
(-0.525767 0.278823 0.0330726)
(-0.565166 0.26445 0.032409)
(-0.596494 0.246175 0.029109)
(-0.613794 0.224938 0.0224692)
(-0.610209 0.20325 0.0122518)
(-0.579133 0.185258 -0.000879725)
(-0.517273 0.176532 -0.0158507)
(-0.426617 0.181645 -0.0296974)
(-0.31542 0.200931 -0.0394099)
(-0.199811 0.225853 -0.0420426)
(-0.100304 0.239114 -0.036187)
(-0.028795 0.220086 -0.0235368)
(-0.000119857 0.133303 -0.00672951)
(0.0107514 0.165443 -0.0255737)
(0.0690638 0.30188 -0.0554932)
(0.150163 0.375028 -0.0537624)
(0.20249 0.426 -0.0371872)
(0.227981 0.470143 -0.0218525)
(0.235471 0.510888 -0.0107736)
(0.232373 0.546437 -0.00261495)
(0.222208 0.574471 0.00409172)
(0.206332 0.59182 0.0105727)
(0.185581 0.597128 0.0169922)
(0.160455 0.589606 0.0233453)
(0.131129 0.569093 0.0291349)
(0.0978959 0.536905 0.0334833)
(0.0615657 0.496331 0.0355203)
(0.0231485 0.452129 0.0349146)
(-0.0154936 0.409331 0.0323987)
(-0.0536499 0.372007 0.0285564)
(-0.0919014 0.342281 0.0247412)
(-0.130325 0.320214 0.0217442)
(-0.169089 0.304447 0.019929)
(-0.208089 0.293071 0.0193227)
(-0.247169 0.284338 0.019783)
(-0.286403 0.276953 0.0211269)
(-0.32621 0.270046 0.023187)
(-0.36725 0.262983 0.025791)
(-0.410168 0.255147 0.0286902)
(-0.455189 0.2458 0.0314665)
(-0.501594 0.234061 0.0334907)
(-0.547153 0.219039 0.0338767)
(-0.587615 0.200189 0.0316109)
(-0.616536 0.177937 0.0256758)
(-0.625832 0.154447 0.0156115)
(-0.607178 0.134242 0.00183204)
(-0.554539 0.123746 -0.0141116)
(-0.466694 0.13025 -0.0292866)
(-0.350914 0.156997 -0.0404633)
(-0.224521 0.197199 -0.044044)
(-0.112759 0.22933 -0.0385017)
(-0.0330156 0.224288 -0.0251308)
(-0.000916537 0.140951 -0.00781928)
(0.0114035 0.192473 -0.0238957)
(0.0757137 0.351149 -0.055079)
(0.167006 0.428262 -0.0534945)
(0.228114 0.473533 -0.0350971)
(0.259231 0.507517 -0.0175875)
(0.269091 0.536587 -0.00505245)
(0.266687 0.560605 0.00364315)
(0.25602 0.576829 0.00966879)
(0.238482 0.583233 0.015218)
(0.215721 0.578374 0.0205953)
(0.187975 0.561516 0.0257332)
(0.15537 0.533009 0.0299436)
(0.118531 0.494941 0.0323441)
(0.0788405 0.451324 0.0323166)
(0.0381038 0.407258 0.0299999)
(-0.00195433 0.367691 0.0263621)
(-0.0407041 0.335009 0.0224843)
(-0.0785026 0.31004 0.019369)
(-0.115613 0.291394 0.0174873)
(-0.152052 0.276932 0.0168313)
(-0.187741 0.264753 0.0171663)
(-0.222799 0.253648 0.0182494)
(-0.257726 0.243039 0.0199291)
(-0.293403 0.232694 0.0221464)
(-0.330946 0.222443 0.0248732)
(-0.371462 0.211977 0.0280075)
(-0.415701 0.200709 0.0312603)
(-0.46357 0.187735 0.0340584)
(-0.513533 0.171919 0.0355281)
(-0.561888 0.152248 0.0343898)
(-0.602267 0.12848 0.0294046)
(-0.625852 0.102103 0.0196987)
(-0.622475 0.0773482 0.00533772)
(-0.583509 0.0626492 -0.0121775)
(-0.504712 0.0660859 -0.029164)
(-0.388692 0.0965152 -0.0421476)
(-0.252677 0.151357 -0.0472449)
(-0.12672 0.206751 -0.0416363)
(-0.0370229 0.2222 -0.0270767)
(-0.00148424 0.147503 -0.00909851)
(0.0115182 0.21275 -0.0210809)
(0.080176 0.391023 -0.052658)
(0.180047 0.472114 -0.0519276)
(0.249283 0.511611 -0.0324269)
(0.285828 0.535275 -0.0133815)
(0.298167 0.552671 0.000110653)
(0.295661 0.565497 0.0084661)
(0.283577 0.571077 0.0140712)
(0.264445 0.568169 0.0187023)
(0.239626 0.5552 0.0229882)
(0.209327 0.531517 0.0268447)
(0.173799 0.497904 0.0295905)
(0.134105 0.457039 0.0303785)
(0.0922516 0.413293 0.0289399)
(0.0505183 0.371583 0.0257768)
(0.0104961 0.335767 0.0220313)
(-0.0273775 0.307188 0.0188141)
(-0.0634466 0.285077 0.0167431)
(-0.0980216 0.267274 0.015911)
(-0.131129 0.251646 0.0160298)
(-0.162851 0.236862 0.0167644)
(-0.193556 0.222445 0.0179145)
(-0.224006 0.208399 0.0194447)
(-0.255289 0.194853 0.0214315)
(-0.288711 0.181826 0.0239828)
(-0.325626 0.169106 0.0271379)
(-0.367202 0.156159 0.0307564)
(-0.414033 0.142063 0.0343951)
(-0.465506 0.125509 0.0371287)
(-0.518951 0.105058 0.0376398)
(-0.568878 0.0797073 0.0343261)
(-0.606676 0.050119 0.0257844)
(-0.62024 0.0201506 0.0116028)
(-0.598924 -0.00314219 -0.00779934)
(-0.535307 -0.00675531 -0.0278653)
(-0.426687 0.0212772 -0.0434836)
(-0.285283 0.086732 -0.0506472)
(-0.144394 0.168224 -0.0457299)
(-0.0414676 0.211837 -0.0297029)
(-0.00162198 0.152654 -0.010459)
(0.0110943 0.225368 -0.0175651)
(0.0823211 0.419819 -0.0486473)
(0.188768 0.505287 -0.0490803)
(0.265213 0.539939 -0.0298555)
(0.306993 0.554024 -0.00973577)
(0.321825 0.560291 0.00465009)
(0.31931 0.562501 0.012636)
(0.305764 0.559201 0.0175637)
(0.285003 0.548812 0.0212458)
(0.258348 0.529784 0.0244579)
(0.225968 0.501564 0.0271179)
(0.1883 0.465234 0.0285889)
(0.146827 0.423786 0.0282334)
(0.104047 0.381543 0.0259682)
(0.0624809 0.342784 0.0226176)
(0.0235269 0.310246 0.0193138)
(-0.0126207 0.284178 0.0169532)
(-0.0463772 0.26287 0.0157897)
(-0.0780858 0.24406 0.0156126)
(-0.10786 0.226123 0.0160082)
(-0.135916 0.208453 0.0166765)
(-0.162759 0.191128 0.0175295)
(-0.189216 0.174428 0.0186499)
(-0.216387 0.158551 0.0202108)
(-0.245563 0.143493 0.0224057)
(-0.278159 0.129017 0.0253773)
(-0.315581 0.114604 0.029127)
(-0.358948 0.0993671 0.0333762)
(-0.408561 0.0819915 0.0373891)
(-0.463061 0.0607651 0.0398832)
(-0.518324 0.0339562 0.0390387)
(-0.566538 0.0010874 0.0327919)
(-0.597487 -0.0354079 0.019525)
(-0.597183 -0.0689812 0.000237809)
(-0.55263 -0.0844176 -0.0227457)
(-0.458801 -0.0649634 -0.0425683)
(-0.320243 0.00366917 -0.053288)
(-0.166968 0.110153 -0.0500611)
(-0.0469982 0.190126 -0.032968)
(-0.0010109 0.155432 -0.0115999)
(0.0102271 0.230184 -0.0137928)
(0.0822595 0.436827 -0.0437283)
(0.193221 0.527167 -0.0455908)
(0.275836 0.558628 -0.0273111)
(0.322577 0.564667 -0.00671342)
(0.340182 0.561273 0.00854225)
(0.338091 0.553879 0.0160432)
(0.3233 0.542903 0.0202735)
(0.301149 0.526622 0.0230459)
(0.273087 0.503329 0.0252659)
(0.239306 0.472472 0.0268736)
(0.200427 0.435227 0.0273416)
(0.158266 0.394577 0.0262125)
(0.115588 0.354493 0.0236578)
(0.0749505 0.318458 0.0204705)
(0.0375664 0.288163 0.0177861)
(0.0033695 0.263079 0.0161544)
(-0.0281407 0.241224 0.0155599)
(-0.0573343 0.220689 0.0156148)
(-0.0843983 0.200512 0.0159117)
(-0.109609 0.180649 0.0162542)
(-0.13349 0.16144 0.0166665)
(-0.156828 0.14317 0.0173069)
(-0.180618 0.125916 0.0183856)
(-0.206033 0.109543 0.0201163)
(-0.234398 0.0937349 0.0226891)
(-0.267148 0.0779657 0.0262142)
(-0.305658 0.0614159 0.0305956)
(-0.350879 0.0428341 0.0353806)
(-0.402716 0.0204262 0.0395291)
(-0.458775 -0.00783661 0.04136)
(-0.513331 -0.0437503 0.0385272)
(-0.556696 -0.0868641 0.0288299)
(-0.57487 -0.130379 0.0113354)
(-0.552446 -0.160914 -0.0125017)
(-0.478498 -0.156143 -0.0368939)
(-0.351551 -0.0942521 -0.0526633)
(-0.19304 0.0303481 -0.0533161)
(-0.0538222 0.153094 -0.0366901)
(0.00065493 0.153908 -0.0121211)
(0.00906854 0.227751 -0.0101114)
(0.0803228 0.442212 -0.0384059)
(0.193827 0.53778 -0.0418061)
(0.281597 0.567941 -0.0249841)
(0.333243 0.567922 -0.00454682)
(0.353726 0.556839 0.0110436)
(0.352336 0.540937 0.0184857)
(0.336931 0.523383 0.0222641)
(0.313875 0.502504 0.0242775)
(0.284959 0.476394 0.0256005)
(0.250524 0.444352 0.0263405)
(0.21133 0.407432 0.0260838)
(0.169382 0.368354 0.0245183)
(0.127529 0.330517 0.0219256)
(0.088198 0.296642 0.0191343)
(0.0524029 0.267632 0.0169892)
(0.0199371 0.242577 0.0158419)
(-0.00977685 0.219683 0.0154802)
(-0.0371279 0.197599 0.0154728)
(-0.0623105 0.175907 0.0154918)
(-0.0855945 0.154864 0.0154528)
(-0.107465 0.134815 0.0154577)
(-0.128619 0.115898 0.015688)
(-0.149917 0.0980062 0.0163396)
(-0.172368 0.0808578 0.0176014)
(-0.197136 0.064049 0.0196613)
(-0.225538 0.047036 0.0226786)
(-0.258984 0.0290437 0.0267153)
(-0.298791 0.00890418 0.0315841)
(-0.345572 -0.0150871 0.0366357)
(-0.398588 -0.0451463 0.0404226)
(-0.45431 -0.0836853 0.0408688)
(-0.504812 -0.131519 0.0353879)
(-0.537328 -0.18482 0.02186)
(-0.5355 -0.231371 0.000115291)
(-0.483695 -0.246866 -0.0259973)
(-0.373854 -0.200822 -0.046902)
(-0.218802 -0.0705639 -0.053209)
(-0.0616366 0.0960803 -0.0397673)
(0.00326242 0.144834 -0.0115532)
(0.00777304 0.219073 -0.00672449)
(0.0769172 0.436787 -0.0330108)
(0.19114 0.537638 -0.0379533)
(0.283058 0.568361 -0.0230667)
(0.339595 0.564306 -0.00335178)
(0.363072 0.546817 0.0120062)
(0.362739 0.524315 0.0198836)
(0.347481 0.501419 0.0235522)
(0.324105 0.477 0.0250228)
(0.294918 0.449152 0.0256252)
(0.260523 0.416941 0.0256842)
(0.221784 0.381134 0.0249382)
(0.180723 0.343999 0.0231889)
(0.140102 0.308303 0.0207207)
(0.102156 0.276062 0.0183135)
(0.06773 0.247736 0.016579)
(0.0365526 0.22238 0.0156807)
(0.0080539 0.198598 0.0153304)
(-0.0181388 0.175566 0.0151222)
(-0.042195 0.153228 0.0148425)
(-0.0643286 0.131892 0.0144896)
(-0.0849665 0.111768 0.0142019)
(-0.104711 0.0927987 0.0141469)
(-0.124295 0.0747123 0.0144798)
(-0.144574 0.057118 0.0153445)
(-0.166531 0.0395533 0.0168988)
(-0.191303 0.0214556 0.0193048)
(-0.220188 0.00207046 0.0227088)
(-0.254535 -0.019704 0.0271165)
(-0.295516 -0.0454965 0.032181)
(-0.343484 -0.077694 0.0369816)
(-0.396695 -0.118938 0.0397982)
(-0.44965 -0.17123 0.0381497)
(-0.491667 -0.233179 0.0293872)
(-0.506771 -0.295244 0.0120126)
(-0.476382 -0.333819 -0.0123018)
(-0.385882 -0.310529 -0.0365194)
(-0.240754 -0.188375 -0.0481041)
(-0.0703533 0.015077 -0.0402187)
(0.00607857 0.124214 -0.00922759)
(0.00647254 0.205367 -0.00378209)
(0.0724635 0.421801 -0.0278419)
(0.185748 0.527579 -0.0341848)
(0.280747 0.560516 -0.0215666)
(0.341899 0.554443 -0.00294851)
(0.368888 0.532174 0.0121903)
(0.370375 0.504691 0.0204628)
(0.35584 0.477564 0.0242073)
(0.332657 0.450432 0.0253593)
(0.303719 0.42157 0.0254436)
(0.26995 0.389837 0.0250047)
(0.232268 0.355603 0.0239473)
(0.19257 0.320575 0.0221643)
(0.15339 0.286885 0.0199308)
(0.116746 0.255995 0.0178434)
(0.0833828 0.228154 0.0163673)
(0.0530452 0.202604 0.0155506)
(0.0252269 0.178402 0.0150987)
(-0.000367903 0.155107 0.0146776)
(-0.0238558 0.132837 0.014156)
(-0.0454068 0.111817 0.0135919)
(-0.0653749 0.0920554 0.0131268)
(-0.0842797 0.0733342 0.0128989)
(-0.102754 0.0552656 0.0130176)
(-0.121523 0.037397 0.0135802)
(-0.14141 0.0192568 0.0146975)
(-0.163362 0.000258585 0.016513)
(-0.188485 -0.0203479 0.0191899)
(-0.21806 -0.0436453 0.0228403)
(-0.253449 -0.0712813 0.0273871)
(-0.295679 -0.105597 0.0323287)
(-0.344488 -0.149574 0.0364538)
(-0.396695 -0.206135 0.0376862)
(-0.444152 -0.275933 0.0333533)
(-0.472284 -0.352547 0.0211395)
(-0.461342 -0.414935 0.000829463)
(-0.390837 -0.421202 -0.0233272)
(-0.258654 -0.318126 -0.0393105)
(-0.0812418 -0.0905357 -0.0373991)
(0.00770492 0.0892394 -0.00427581)
(0.00526231 0.18788 -0.00137658)
(0.0673475 0.398754 -0.0231373)
(0.178226 0.508653 -0.0306422)
(0.275255 0.545165 -0.0204463)
(0.340718 0.539063 -0.00320271)
(0.371733 0.513907 0.0117014)
(0.375867 0.482745 0.0203357)
(0.362698 0.452267 0.0243001)
(0.3402 0.423002 0.0253508)
(0.311953 0.393556 0.0251211)
(0.279262 0.362643 0.0243549)
(0.243075 0.330203 0.0231295)
(0.205066 0.297346 0.0214108)
(0.167445 0.265599 0.0194224)
(0.132 0.236015 0.0176007)
(0.099433 0.208771 0.0162791)
(0.0695764 0.183378 0.0154551)
(0.042045 0.159287 0.014871)
(0.0166473 0.136314 0.0142768)
(-0.00666062 0.11458 0.013594)
(-0.0280224 0.094244 0.0129012)
(-0.0477309 0.075041 0.0123409)
(-0.0662211 0.0566908 0.0120128)
(-0.0840618 0.0387329 0.0119909)
(-0.101863 0.0206725 0.0123363)
(-0.120332 0.00210596 0.0130983)
(-0.140262 -0.0176231 0.0144005)
(-0.162534 -0.0392376 0.0163894)
(-0.188258 -0.0638251 0.0192205)
(-0.218785 -0.0930321 0.0229811)
(-0.255534 -0.129273 0.0275096)
(-0.29935 -0.175817 0.0321103)
(-0.349073 -0.236388 0.0352622)
(-0.399191 -0.313441 0.0345819)
(-0.437241 -0.403746 0.0273642)
(-0.443385 -0.489953 0.0119535)
(-0.392798 -0.529715 -0.00992736)
(-0.27515 -0.454827 -0.0291304)
(-0.0963497 -0.217456 -0.0308262)
(0.00639783 0.0397308 0.00150787)
(0.00420601 0.167814 0.000470492)
(0.0619006 0.369304 -0.0190311)
(0.169112 0.482088 -0.0274165)
(0.26714 0.523145 -0.0196627)
(0.336559 0.518806 -0.00400456)
(0.372036 0.492531 0.0106123)
(0.379619 0.458966 0.0195632)
(0.368513 0.425884 0.0238777)
(0.347221 0.394876 0.0250384)
(0.320053 0.365032 0.0246942)
(0.288776 0.335034 0.0237578)
(0.254387 0.304423 0.0224736)
(0.218294 0.27374 0.0208727)
(0.182335 0.24396 0.0191187)
(0.148053 0.215808 0.017517)
(0.116132 0.189449 0.0162967)
(0.0865396 0.164646 0.0154385)
(0.059045 0.141151 0.0147394)
(0.0335645 0.118931 0.0140218)
(0.0101888 0.0980563 0.0132603)
(-0.011272 0.0784896 0.0124743)
(-0.031065 0.0599587 0.0118729)
(-0.0494785 0.0420372 0.0114821)
(-0.0671064 0.0242613 0.011358)
(-0.084409 0.00617569 0.0115546)
(-0.102048 -0.012811 0.012021)
(-0.12071 -0.0331285 0.0129087)
(-0.141003 -0.055521 0.0143098)
(-0.163854 -0.0810928 0.0163789)
(-0.190502 -0.111526 0.0192963)
(-0.222542 -0.149346 0.0231598)
(-0.261624 -0.198128 0.0277465)
(-0.308289 -0.262363 0.0321442)
(-0.359524 -0.346186 0.0344328)
(-0.405285 -0.449425 0.0317629)
(-0.426326 -0.558764 0.0212137)
(-0.395238 -0.633278 0.00206484)
(-0.293297 -0.59456 -0.0191986)
(-0.116999 -0.360577 -0.0234318)
(0.00124148 -0.0246205 0.00490101)
(0.00333903 0.146312 0.00180687)
(0.0563725 0.335182 -0.0155751)
(0.158856 0.449237 -0.0245589)
(0.256879 0.495329 -0.0191605)
(0.329784 0.494271 -0.00523489)
(0.370072 0.468573 0.00903981)
(0.381873 0.433744 0.0181947)
(0.373539 0.398698 0.022965)
(0.354024 0.366205 0.0244378)
(0.328318 0.335975 0.0241756)
(0.29871 0.306791 0.0232126)
(0.26632 0.277894 0.0219522)
(0.232311 0.249321 0.0204969)
(0.198138 0.221561 0.0189645)
(0.165082 0.195048 0.0175551)
(0.133804 0.169926 0.0164197)
(0.104412 0.146138 0.0155374)
(0.0768461 0.123635 0.0147609)
(0.0511465 0.102457 0.0139662)
(0.0274197 0.0826208 0.013139)
(0.0056212 0.0639024 0.012369)
(-0.0144526 0.0460784 0.0117199)
(-0.0331206 0.0286177 0.0112764)
(-0.0508358 0.0110502 0.0110593)
(-0.0682136 -0.00706452 0.0110542)
(-0.0856801 -0.0262817 0.011363)
(-0.103647 -0.0469932 0.0119357)
(-0.122753 -0.0699264 0.0128598)
(-0.143692 -0.0961813 0.0142795)
(-0.167523 -0.127477 0.0164245)
(-0.195898 -0.166472 0.0195915)
(-0.231047 -0.217104 0.0239856)
(-0.27494 -0.284688 0.0293211)
(-0.326826 -0.375034 0.0342391)
(-0.37905 -0.490889 0.0358652)
(-0.413345 -0.622861 0.0300856)
(-0.400791 -0.732378 0.0138707)
(-0.314805 -0.734723 -0.00876021)
(-0.144799 -0.513239 -0.0177405)
(-0.00957461 -0.101568 0.00444982)
(0.00265614 0.124438 0.00269824)
(0.0509098 0.298113 -0.0127624)
(0.147792 0.41154 -0.0220795)
(0.244857 0.462636 -0.0188706)
(0.320741 0.466025 -0.00681638)
(0.365914 0.442478 0.00687517)
(0.382527 0.407288 0.0162115)
(0.377776 0.370878 0.021569)
(0.360725 0.337119 0.0235449)
(0.33691 0.306419 0.0235513)
(0.3092 0.27781 0.0226984)
(0.278947 0.250375 0.0215324)
(0.247151 0.223761 0.0202378)
(0.214913 0.198037 0.0189134)
(0.18324 0.173363 0.0176831)
(0.152738 0.149815 0.0166377)
(0.123627 0.127418 0.0157596)
(0.0959967 0.106222 0.0149484)
(0.0699998 0.0862909 0.0141231)
(0.0458039 0.0675807 0.0132844)
(0.0234543 0.049855 0.0124988)
(0.00280976 0.0327507 0.011841)
(-0.0164366 0.0157868 0.0113519)
(-0.0347088 -0.00151927 0.0110584)
(-0.052484 -0.0196274 0.0109598)
(-0.070169 -0.0388472 0.0110701)
(-0.0881397 -0.0597439 0.011379)
(-0.106826 -0.0829801 0.0119259)
(-0.126761 -0.109626 0.0128272)
(-0.148845 -0.141425 0.0143379)
(-0.174724 -0.181185 0.0169176)
(-0.207081 -0.233271 0.0211714)
(-0.249119 -0.303978 0.0274532)
(-0.302106 -0.400994 0.0350215)
(-0.360502 -0.529966 0.0410227)
(-0.406742 -0.684857 0.0401068)
(-0.410594 -0.828722 0.0267309)
(-0.339233 -0.871963 0.00188618)