/*--------------------------------*- C++ -*----------------------------------*\
| =========                 |                                                 |
| \\      /  F ield         | OpenFOAM: The Open Source CFD Toolbox           |
|  \\    /   O peration     | Version:  v1806                                 |
|   \\  /    A nd           | Web:      www.OpenFOAM.com                      |
|    \\/     M anipulation  |                                                 |
\*---------------------------------------------------------------------------*/
FoamFile
{
    version     2.0;
    format      ascii;
    class       surfaceScalarField;
    location    "0.0775";
    object      phi;
}
// * * * * * * * * * * * * * * * * * * * * * * * * * * * * * * * * * * * * * //

dimensions      [0 3 -1 0 0 0 0];
oriented        oriented;


internalField   nonuniform List<scalar> 
187200
(
7.07614e-06
2.52474e-06
-9.60311e-06
5.01688e-05
-2.16324e-05
-2.14601e-05
7.19755e-05
-9.74146e-06
-1.20651e-05
9.14585e-05
-9.57968e-06
-9.90315e-06
0.000107449
-5.89323e-06
-1.00974e-05
0.000124545
-4.97532e-06
-1.21205e-05
0.000139725
-7.10297e-07
-1.44697e-05
0.000156459
4.8546e-07
-1.72191e-05
0.000169774
5.06871e-06
-1.83834e-05
0.000182398
5.99923e-06
-1.86235e-05
0.000193971
7.80511e-06
-1.93776e-05
0.00020129
1.2833e-05
-2.01524e-05
0.000192048
2.19906e-05
-1.27488e-05
0.000163941
3.61741e-05
-8.06743e-06
0.000119057
4.4338e-05
5.45523e-07
7.99463e-05
2.93376e-05
9.77288e-06
2.60728e-05
3.16157e-05
2.22576e-05
-2.6369e-05
4.58025e-05
6.63898e-06
-0.000124305
9.93468e-05
-1.41129e-06
-0.000255687
0.000136234
-4.85192e-06
-0.000505663
0.000224745
2.52309e-05
-0.000688671
0.00023424
-5.12312e-05
-0.000816759
0.000281106
-0.000153019
-0.000859407
0.000307117
-0.000264469
-0.000842462
0.000338329
-0.000355275
-0.000772974
0.000367172
-0.00043666
-0.000662158
0.000391783
-0.000502599
-0.000524097
0.000408009
-0.000546069
-0.000357252
0.000399831
-0.000566675
-0.000193519
0.000384963
-0.000548696
-6.09116e-05
0.000342505
-0.000475112
2.46046e-05
0.000298619
-0.000384135
5.80714e-05
0.00023571
-0.000269177
5.18018e-05
0.000174469
-0.0001682
2.81543e-05
0.000120504
-9.68568e-05
7.19071e-06
8.08544e-05
-5.98911e-05
-4.4354e-06
5.50121e-05
-4.33862e-05
-9.08266e-06
4.26318e-05
-3.79844e-05
-8.86027e-06
3.28638e-05
-3.30862e-05
2.28871e-05
-3.17471e-05
4.42215e-06
1.56909e-05
-1.75882e-05
4.45554e-05
-3.14598e-05
-3.03055e-05
8.60109e-05
-2.45147e-05
-2.6682e-05
0.000116582
-1.44421e-05
-2.57086e-05
0.000138494
-2.95961e-06
-2.48455e-05
0.000155353
7.24997e-06
-2.90846e-05
0.000163013
2.69046e-05
-3.52745e-05
0.000166602
3.82374e-05
-4.13405e-05
0.00016011
6.31719e-05
-5.16109e-05
0.000142643
8.20202e-05
-5.85541e-05
0.000100605
0.000125143
-7.53006e-05
3.78359e-05
0.000166181
-9.05791e-05
-4.67023e-05
0.0002035
-9.6972e-05
-0.000148413
0.000245552
-0.000107667
-0.000272054
0.000299997
-0.000132019
-0.00045388
0.000374851
-0.000163688
-0.000631214
0.000450583
-0.000241633
-0.000818994
0.000533774
-0.000300191
-0.000985554
0.000635535
-0.000369628
-0.0011421
0.000734788
-0.000442007
-0.00129382
0.00086167
-0.00048521
-0.00139108
0.000937272
-0.000605764
-0.00144737
0.00104342
-0.000706028
-0.00143688
0.00108845
-0.000791824
-0.00135489
0.00113356
-0.000877214
-0.0012119
0.00115809
-0.000933913
-0.00101928
0.0011642
-0.000965041
-0.000791679
0.00114237
-0.000961954
-0.000554496
0.00108324
-0.000920595
-0.000327138
0.00100436
-0.000846751
-0.000133624
0.000876876
-0.000727885
2.58006e-05
0.000734647
-0.000595454
0.000112504
0.00058099
-0.000431983
0.00013887
0.000453276
-0.000305174
0.000126581
0.00033388
-0.000201087
9.77535e-05
0.000247682
-0.000138001
6.56959e-05
0.000185678
-9.86085e-05
4.04677e-05
0.000145705
-7.78448e-05
1.53834e-05
0.000116143
-5.81949e-05
8.0335e-05
-4.20648e-05
1.8921e-05
9.23742e-06
-1.24674e-05
5.71885e-05
-3.53292e-05
-3.43975e-05
9.81307e-05
-2.52834e-05
-4.01731e-05
0.000127431
-2.42802e-06
-4.13139e-05
0.00014333
2.87279e-05
-4.75873e-05
0.000148658
5.88058e-05
-5.68831e-05
0.000140262
0.000100491
-6.51904e-05
0.000123803
0.000137708
-8.30112e-05
9.55003e-05
0.000199406
-0.000107931
3.90183e-05
0.000266921
-0.000128419
-4.4699e-05
0.000350064
-0.000141204
-0.000148628
0.000433192
-0.000163082
-0.000303469
0.000537282
-0.00017894
-0.000481301
0.000645298
-0.000221915
-0.000680445
0.000754284
-0.000255143
-0.000864777
0.0008654
-0.000306218
-0.00102598
0.000973227
-0.000361444
-0.00117022
0.0010951
-0.000417085
-0.00130378
0.00123775
-0.000468665
-0.00143281
0.00138285
-0.000519024
-0.00155529
0.00152067
-0.000536524
-0.00162283
0.00160408
-0.000599271
-0.00164197
0.00171085
-0.000648291
-0.0016087
0.00173234
-0.000677162
-0.00151579
0.00175516
-0.000714509
-0.00137679
0.00174417
-0.000725069
-0.00120096
0.00170374
-0.000715369
-0.00100034
0.00162479
-0.000683045
-0.000788271
0.00150662
-0.000635447
-0.000568352
0.00135829
-0.000573856
-0.00038039
0.00118228
-0.000493366
-0.000219865
0.00100071
-0.000426587
-0.000101667
0.000800324
-0.000337532
-1.86707e-05
0.000638939
-0.000268658
2.34145e-05
0.000490247
-0.000198452
3.89435e-05
0.000384016
-0.000151862
4.06422e-05
0.000304972
-0.000120993
3.23074e-05
0.000253885
-9.98448e-05
1.45917e-05
0.000204947
-7.10887e-05
0.000136768
-4.18414e-05
2.0764e-05
6.16906e-06
-1.76952e-05
5.86743e-05
-2.64653e-05
-4.67738e-05
9.89814e-05
-6.91123e-06
-5.8679e-05
0.000120654
4.16668e-05
-6.57679e-05
0.000124946
9.6286e-05
-7.18497e-05
0.000114028
0.000154844
-8.5121e-05
9.39286e-05
0.000230612
-0.000110022
5.6306e-05
0.000311046
-0.000135715
4.14098e-07
0.000422779
-0.000167482
-8.18069e-05
0.000536095
-0.000186954
-0.00019856
0.000669205
-0.000202387
-0.000345001
0.00079995
-0.000220318
-0.000506011
0.000931328
-0.000233036
-0.000661194
0.00104981
-0.000249328
-0.000812477
0.00117669
-0.000271126
-0.000953934
0.00130491
-0.000298056
-0.00108404
0.00142886
-0.000325522
-0.00119936
0.00155218
-0.000341756
-0.0013053
0.00169122
-0.000347528
-0.00140711
0.00182019
-0.00033553
-0.00152033
0.00191874
-0.000284851
-0.00158248
0.00195746
-0.000291235
-0.00160025
0.00202006
-0.000291438
-0.00157666
0.00198698
-0.000278229
-0.00150449
0.00196431
-0.000281316
-0.00140224
0.00190972
-0.000267804
-0.00127616
0.00182772
-0.000250068
-0.00113407
0.00171322
-0.000230521
-0.00098033
0.00156238
-0.000209498
-0.000813696
0.00139689
-0.000205229
-0.000635299
0.00120791
-0.000204029
-0.0004594
0.00102711
-0.000202297
-0.000304323
0.00084232
-0.000197072
-0.000179395
0.000703682
-0.000189672
-9.24619e-05
0.00057318
-0.000169865
-3.28423e-05
0.000473635
-0.000149239
4.62217e-06
0.000401828
-0.00013432
1.86748e-05
0.0003492
-0.000109368
1.59027e-05
0.000285738
-7.80195e-05
0.000192091
-3.94206e-05
2.13514e-05
2.07204e-05
-3.59025e-05
6.06342e-05
1.01252e-05
-7.5873e-05
0.000102903
4.23064e-05
-9.14862e-05
0.000120965
0.000121889
-9.82841e-05
0.00011653
0.000206273
-0.000105552
8.80345e-05
0.000304215
-0.000120875
4.69358e-05
0.000423408
-0.000151698
5.58902e-06
0.00053484
-0.000182447
-4.13163e-05
0.000678819
-0.000209134
-0.000115898
0.000829237
-0.000218561
-0.000211792
0.000984951
-0.000219852
-0.00031944
0.00112401
-0.000216409
-0.000447703
0.00126716
-0.000207568
-0.000586686
0.001396
-0.000207204
-0.000724881
0.00151593
-0.00020104
-0.000846462
0.00162304
-0.000196544
-0.000949376
0.00171417
-0.000182391
-0.00102656
0.00178095
-0.000151586
-0.00111636
0.00186837
-8.73598e-05
-0.00120961
0.00193693
-2.34881e-05
-0.00134092
0.00197812
7.19299e-05
-0.00141012
0.00192917
9.74976e-05
-0.00144536
0.00194637
0.00010892
-0.00145324
0.00188118
0.000113688
-0.00142576
0.00183988
9.694e-05
-0.00138055
0.00177664
8.78716e-05
-0.00131665
0.0016897
7.41239e-05
-0.00124649
0.00158333
5.97362e-05
-0.00115108
0.00144768
1.92898e-05
-0.0010312
0.00130281
-2.58064e-05
-0.000884517
0.00113855
-7.73125e-05
-0.00071857
0.000988095
-0.000126936
-0.000551967
0.000832807
-0.00015709
-0.000389211
0.000716676
-0.000175748
-0.000251837
0.000617883
-0.000182078
-0.000138004
0.000526458
-0.000166655
-5.62029e-05
0.000467744
-0.000147718
-5.91578e-06
0.000421045
-0.000122132
9.10324e-06
0.000352685
-8.19657e-05
0.000236629
-3.54341e-05
1.45049e-05
6.88894e-05
-6.26738e-05
6.2748e-05
7.7883e-05
-0.000116001
0.000107446
0.000136262
-0.000138654
0.000126454
0.000240954
-0.000138073
0.000116918
0.000354783
-0.000138975
8.35866e-05
0.000487091
-0.000149545
5.67949e-05
0.000636188
-0.000185988
2.30248e-05
0.000784416
-0.000215806
-2.52476e-05
0.000953651
-0.000226561
-8.97959e-05
0.0011077
-0.000213911
-0.00016287
0.00125347
-0.000195443
-0.000246575
0.0013802
-0.000172483
-0.000333507
0.00149939
-0.000145304
-0.00041619
0.0015943
-0.000115625
-0.000497923
0.00167935
-8.16882e-05
-0.000566631
0.00173592
-4.41682e-05
-0.000657096
0.00177862
2.60142e-05
-0.000758946
0.0017944
8.83909e-05
-0.000858076
0.00180234
0.000165158
-0.000949982
0.00178304
0.000245788
-0.00108569
0.00180536
0.000308467
-0.00118496
0.00170581
0.000322632
-0.0012554
0.0016952
0.000321607
-0.00130932
0.0016169
0.000318206
-0.00133398
0.00156773
0.000296802
-0.00134577
0.00150993
0.000278507
-0.00134322
0.00144056
0.000246589
-0.00133027
0.00136182
0.000208553
-0.00129279
0.00126132
0.000148877
-0.00120862
0.00115853
6.01156e-05
-0.0010942
0.00103916
-1.50346e-05
-0.000932037
0.000925981
-0.000100049
-0.000755634
0.000813147
-0.000156743
-0.000562752
0.000717351
-0.000193556
-0.000384682
0.000647941
-0.000208128
-0.000233127
0.000566994
-0.000192091
-0.000111814
0.000519277
-0.000172845
-3.20308e-05
0.000477513
-0.000136253
5.44865e-06
0.000404365
-8.91587e-05
0.000276231
-3.41546e-05
1.77232e-05
0.000146108
-9.49416e-05
8.33773e-05
0.000181948
-0.000169719
0.000132664
0.000271413
-0.000184438
0.000154036
0.000394472
-0.00017489
0.000145653
0.000532186
-0.00016902
0.00010203
0.000703523
-0.000172809
9.08304e-05
0.000855687
-0.0002083
6.94499e-05
0.00102318
-0.00021738
4.97854e-05
0.0011775
-0.000204183
9.32852e-06
0.00131849
-0.000170337
-4.41977e-05
0.00144299
-0.000136001
-0.000110883
0.00154524
-9.83642e-05
-0.000180771
0.001629
-5.97177e-05
-0.000252294
0.00168048
-1.46513e-05
-0.000322715
0.00170953
4.02396e-05
-0.000384755
0.00170725
9.07085e-05
-0.000450146
0.00169283
0.000151179
-0.000517767
0.00164434
0.000217685
-0.000619408
0.00160871
0.000295275
-0.000723881
0.00152654
0.000360981
-0.000857851
0.00152235
0.000416982
-0.000994946
0.00140701
0.000435895
-0.00107817
0.00136188
0.000416546
-0.00117842
0.00131661
0.000400534
-0.0012513
0.00127926
0.000361346
-0.00131701
0.00124764
0.000328
-0.00136739
0.00120908
0.000281864
-0.00140126
0.001165
0.000230694
-0.00141093
0.00110773
0.000163256
-0.0013618
0.00104579
6.35996e-05
-0.00127592
0.000964934
-1.1658e-05
-0.0011368
0.00087882
-9.1952e-05
-0.000952075
0.000793752
-0.000165333
-0.000732367
0.000703103
-0.00020546
-0.000501668
0.000660733
-0.000243491
-0.000319755
0.000610666
-0.000225585
-0.000159956
0.000564018
-0.000204541
-5.45779e-05
0.000530401
-0.000158266
6.68438e-07
0.00045272
-0.000103601
0.000314141
-3.72422e-05
2.7686e-05
0.000246141
-0.000127719
0.000110863
0.000315748
-0.000216976
0.000176154
0.000433316
-0.000227193
0.000202447
0.000568649
-0.00020047
0.000193069
0.000721216
-0.000179653
0.000179879
0.000896989
-0.000180276
0.000186339
0.00104836
-0.000199132
0.00018252
0.00121711
-0.000190116
0.000166005
0.00135184
-0.000157832
0.000126167
0.00147107
-0.00011274
7.83068e-05
0.00156564
-7.47824e-05
2.20914e-05
0.00162803
-2.65674e-05
-3.94906e-05
0.00166343
2.71502e-05
-0.000103637
0.00166134
8.32846e-05
-0.000165806
0.00163606
0.000135641
-0.000230058
0.0015804
0.0001911
-0.000295493
0.00151371
0.000244554
-0.000366151
0.00142794
0.000287062
-0.000456722
0.00135964
0.00033964
-0.000561945
0.00125421
0.000377551
-0.000677666
0.00122241
0.000415665
-0.000843885
0.00115133
0.000421904
-0.000952655
0.00107214
0.000398508
-0.00108892
0.00107702
0.000375862
-0.00120091
0.00105165
0.000339593
-0.0013009
0.00104475
0.00030287
-0.00138603
0.00103108
0.000263143
-0.00145423
0.00101105
0.000222152
-0.00149178
0.000986115
0.000159169
-0.00147676
0.000943243
8.75297e-05
-0.00141521
0.000886554
1.6827e-05
-0.00129624
0.00081697
-5.71138e-05
-0.00110952
0.000752208
-0.000145179
-0.000893795
0.000687932
-0.000200556
-0.000640756
0.00064749
-0.000239796
-0.000412676
0.000639353
-0.000256768
-0.000215929
0.00059511
-0.00022784
-7.97599e-05
0.000575645
-0.000181413
-6.25672e-06
0.000495394
-0.000116176
0.000349599
-4.17129e-05
4.63958e-05
0.000356226
-0.00015648
0.000153046
0.000468996
-0.000259898
0.000246533
0.000607726
-0.000267897
0.000289615
0.000748959
-0.000223392
0.000285166
0.000913228
-0.000187563
0.000282705
0.00107396
-0.000174506
0.000279086
0.00121915
-0.000167172
0.0002829
0.00136107
-0.000147776
0.000276539
0.00147014
-0.000111932
0.000245247
0.00156306
-6.07014e-05
0.000201553
0.00161616
-6.83329e-06
0.000148365
0.00163484
4.63768e-05
8.19576e-05
0.00162772
0.000102122
1.39871e-05
0.00158006
0.000149249
-5.32554e-05
0.00150932
0.000193979
-0.000123572
0.00141529
0.000235428
-0.000196327
0.001318
0.000268461
-0.000270654
0.00121236
0.000289904
-0.000349794
0.00112843
0.000310353
-0.000464816
0.00103599
0.000333236
-0.000574305
0.0009826
0.000349298
-0.000739255
0.000962852
0.000353426
-0.000885822
0.000879245
0.000339465
-0.00103331
0.00090876
0.000315746
-0.00116919
0.000893288
0.000294246
-0.00128698
0.000901914
0.000260626
-0.00139617
0.000897739
0.000242534
-0.00148637
0.000896991
0.000204248
-0.00155379
0.000878431
0.000175107
-0.00157499
0.000844354
0.000120087
-0.00153416
0.000794603
5.11243e-05
-0.00142892
0.000740492
-2.87636e-05
-0.00124779
0.000682588
-0.000111511
-0.00101772
0.000636662
-0.000178799
-0.000747781
0.000605433
-0.000227885
-0.000491391
0.000633347
-0.000250385
-0.000268366
0.000618532
-0.000246447
-0.000101732
0.000608178
-0.000199169
-1.45284e-05
0.000538536
-0.000130345
0.000383633
-4.85617e-05
6.42336e-05
0.000463865
-0.000171872
0.000196907
0.00062719
-0.000290868
0.000316671
0.000782386
-0.000294425
0.000373758
0.000924989
-0.000233117
0.000388489
0.00107651
-0.000178009
0.000386545
0.00121764
-0.000141745
0.000377451
0.00135053
-0.000122286
0.000373448
0.00146147
-9.63984e-05
0.000365152
0.00153947
-6.10373e-05
0.000348016
0.00158826
-8.06006e-06
0.000310677
0.00161369
3.98154e-05
0.000240716
0.00160088
0.000103917
0.00017167
0.00154684
0.000149925
9.73528e-05
0.00146266
0.000191722
2.14446e-05
0.00136164
0.000223591
-5.7136e-05
0.00124703
0.000246837
-0.00013611
0.00113769
0.00025929
-0.000216291
0.00103232
0.000260223
-0.000301612
0.000953167
0.00026058
-0.000417389
0.000887031
0.00026474
-0.000541512
0.000834652
0.000272071
-0.000683966
0.000827352
0.000277953
-0.000851346
0.000765529
0.000281096
-0.000989171
0.000781124
0.000265461
-0.00113308
0.000775489
0.000261713
-0.00125405
0.000787049
0.000235831
-0.00137601
0.000786795
0.000232901
-0.00148746
0.000786781
0.000221661
-0.00157423
0.000763623
0.000201583
-0.00162113
0.000733466
0.000157784
-0.00160698
0.000695785
8.46643e-05
-0.00152166
0.000654511
6.64123e-07
-0.00136184
0.000612356
-8.95907e-05
-0.00113232
0.00057671
-0.000169562
-0.0008615
0.000543175
-0.000208565
-0.000568719
0.000576172
-0.000235606
-0.000319596
0.000613456
-0.000244047
-0.000127389
0.000622623
-0.000206651
-2.30212e-05
0.000571139
-0.000136971
0.000413583
-5.29713e-05
8.01084e-05
0.000561934
-0.000178178
0.000242081
0.000776092
-0.000310873
0.000388286
0.000945415
-0.000309235
0.000464285
0.00108316
-0.00023417
0.00049476
0.00121284
-0.000166806
0.000491573
0.00133042
-0.000109585
0.000482108
0.00143799
-7.79927e-05
0.000465812
0.00151942
-4.16502e-05
0.000439056
0.00157342
-7.1936e-06
0.000404253
0.00159464
2.84153e-05
0.000370091
0.00157212
7.573e-05
0.000313827
0.00152265
0.000134495
0.000237413
0.00144806
0.000175189
0.000149329
0.00133915
0.000211594
6.36258e-05
0.00121854
0.000228804
-2.33479e-05
0.00109741
0.000236594
-0.000110409
0.000990746
0.000234001
-0.000199466
0.000895753
0.000225622
-0.000297512
0.000831372
0.000219841
-0.000400944
0.000776883
0.00021358
-0.00051979
0.000737788
0.000215711
-0.000634347
0.000717627
0.000224282
-0.000801217
0.000693933
0.000238465
-0.000933475
0.000676292
0.00023709
-0.00107146
0.000671299
0.000242178
-0.00119788
0.000673624
0.00023984
-0.00132777
0.000676514
0.000240174
-0.00145566
0.000665337
0.000249335
-0.00156558
0.000646699
0.000226841
-0.00163595
0.000622567
0.000181277
-0.0016583
0.000589085
0.00012905
-0.00160459
0.00056404
3.67602e-05
-0.00146223
0.000527244
-5.72528e-05
-0.00122237
0.000502689
-0.000165839
-0.00093561
0.000475819
-0.000219406
-0.000631219
0.000505793
-0.000234011
-0.000366186
0.00057132
-0.000222898
-0.000149507
0.000624873
-0.000218928
-2.95806e-05
0.000593555
-0.000142342
0.000443897
-5.98941e-05
9.26699e-05
0.00064227
-0.000173006
0.000281384
0.000906209
-0.000318831
0.000452531
0.00108946
-0.000315197
0.000546878
0.00121497
-0.000226158
0.000589013
0.00132007
-0.00014937
0.000590786
0.00140962
-8.098e-05
0.000578729
0.00148902
-3.8973e-05
0.000550213
0.00154311
4.82855e-06
0.000510228
0.00157144
4.19634e-05
0.000457535
0.00156022
8.71153e-05
0.000400811
0.00152075
0.000108089
0.000334296
0.00144189
0.000147276
0.000264908
0.0013328
0.000184653
0.00017992
0.00121468
0.000209453
8.99373e-05
0.00109073
0.000217794
-2.13042e-06
0.00097527
0.000214207
-9.16371e-05
0.000876537
0.000203716
-0.000186057
0.000796136
0.000194036
-0.000287172
0.000744607
0.00018788
-0.000388693
0.000696154
0.000182251
-0.000495624
0.00066117
0.000183548
-0.00059553
0.000624725
0.000192808
-0.000737257
0.000621636
0.000214023
-0.000856859
0.000578954
0.000216941
-0.000982555
0.000563277
0.000233717
-0.00110493
0.000559492
0.000236511
-0.0012443
0.000550774
0.000265107
-0.00138358
0.000542134
0.000262482
-0.0015085
0.000529266
0.000242351
-0.00161106
0.000515124
0.000210005
-0.00165239
0.000502678
0.000127736
-0.00163128
0.000484779
5.81546e-05
-0.00152776
0.000451234
-2.75114e-05
-0.00133045
0.000426876
-0.0001215
-0.00103676
0.000411861
-0.000229737
-0.000701181
0.000426632
-0.000256414
-0.00040042
0.000497599
-0.00022704
-0.000172759
0.000594915
-0.000197704
-3.6992e-05
0.00060332
-0.000145532
0.000469863
-6.29576e-05
0.000102523
0.000699698
-0.000159951
0.0003142
0.0010113
-0.000316766
0.000510814
0.00120392
-0.000311066
0.000625048
0.00131512
-0.000214382
0.000673466
0.00139928
-0.000127629
0.000680752
0.00146217
-5.98295e-05
0.000665926
0.00150987
-6.0228e-06
0.00063033
0.0015349
4.38049e-05
0.000577938
0.00153662
8.72144e-05
0.000509878
0.00150642
0.000121856
0.000434005
0.00144348
0.000153149
0.00035244
0.0013505
0.000172959
0.00027117
0.00123243
0.000181635
0.000187285
0.00110346
0.00019511
9.91705e-05
0.000982936
0.000195906
9.53238e-06
0.000875325
0.000189584
-7.77714e-05
0.00078655
0.000177291
-0.000169958
0.000716603
0.00017172
-0.000265385
0.000670924
0.000169111
-0.000363256
0.000624151
0.000169875
-0.000454464
0.000580992
0.000171386
-0.000550825
0.00054376
0.000177326
-0.000655864
0.000532868
0.000193808
-0.000756392
0.000478414
0.000201068
-0.00086734
0.000456556
0.000217669
-0.000989688
0.000439632
0.000242207
-0.00112869
0.000430915
0.000258859
-0.00127305
0.000424617
0.000261874
-0.00141634
0.000420183
0.00025238
-0.00153397
0.00042214
0.000210609
-0.00162199
0.000419519
0.00017118
-0.00163589
0.00039759
0.00010109
-0.00157938
0.000355637
3.90795e-05
-0.00141488
0.000318935
-5.65505e-05
-0.00114446
0.000308024
-0.000166584
-0.00079342
0.000332635
-0.000257044
-0.000451039
0.000416683
-0.000261464
-0.000194963
0.000530778
-0.000191939
-4.45636e-05
0.000598873
-0.000145951
0.000494544
-6.92442e-05
0.000106238
0.00073622
-0.00014276
0.000336819
0.00108734
-0.000306624
0.000557851
0.00128919
-0.00030631
0.000689236
0.00138732
-0.00020359
0.000743905
0.0014504
-0.000105787
0.000750423
0.00148897
-3.33221e-05
0.000730473
0.00151258
1.72328e-05
0.000684188
0.00150741
7.37733e-05
0.000623373
0.00148404
0.000113391
0.000550245
0.00143057
0.000148979
0.000463236
0.00135411
0.000176378
0.000367877
0.00125022
0.000195632
0.000272501
0.00113085
0.000196962
0.000189167
0.00100362
0.000183166
0.000104383
0.000888721
0.000178999
2.30352e-05
0.000790625
0.000166048
-6.1875e-05
0.000712316
0.000159145
-0.00015205
0.000649151
0.000157627
-0.000234988
0.000596554
0.000157308
-0.000322206
0.000548132
0.000163237
-0.000401024
0.000497402
0.000162409
-0.000486931
0.000460783
0.000168884
-0.000556651
0.000432465
0.000170124
-0.000643668
0.00038212
0.000183311
-0.000743746
0.000355356
0.000201278
-0.0008549
0.00032506
0.000225725
-0.000986325
0.00031772
0.00024462
-0.00112843
0.000314044
0.00025268
-0.00127583
0.000324556
0.000243024
-0.00142422
0.000333323
0.00023721
-0.00153795
0.000323581
0.000209667
-0.00160621
0.000285303
0.000180542
-0.00159585
0.000233333
0.000111944
-0.00147825
0.000183255
1.8082e-05
-0.0012352
0.000157663
-9.26848e-05
-0.000890545
0.000188846
-0.000200868
-0.000508184
0.000302225
-0.000267902
-0.000217828
0.000461299
-0.000220876
-4.89776e-05
0.00057657
-0.000146548
0.000520211
-7.46463e-05
0.000111181
0.000742934
-0.000117896
0.000358446
0.00112739
-0.000287312
0.000598522
0.00134133
-0.000292215
0.000746641
0.00143345
-0.000194246
0.000806487
0.00147621
-8.56612e-05
0.000810914
0.00148892
-4.37518e-06
0.000784321
0.00148425
5.49233e-05
0.000736974
0.00145757
9.71859e-05
0.000670087
0.00141313
0.0001378
0.000588019
0.00134577
0.000166866
0.000493177
0.00125746
0.000191486
0.000389131
0.00114819
0.000206081
0.000282695
0.00103113
0.000206156
0.000190023
0.000911192
0.000185103
0.000106417
0.000806111
0.000166217
3.14675e-05
0.000712207
0.000153368
-4.26096e-05
0.000640715
0.000145678
-0.000121742
0.00057782
0.000150464
-0.000196977
0.000521742
0.000150048
-0.000270544
0.000468359
0.00015334
-0.000342457
0.000414129
0.000155185
-0.000408062
0.000375974
0.000150415
-0.000463081
0.000338978
0.000148505
-0.000531436
0.000292463
0.00015801
-0.000616151
0.000265822
0.000174248
-0.000715541
0.000228464
0.000195986
-0.000829976
0.000216505
0.00021565
-0.000962971
0.00022261
0.000224427
-0.00111454
0.000238638
0.000237486
-0.00126377
0.000241723
0.000240826
-0.00140795
0.000221792
0.000245973
-0.00151989
0.000180347
0.0002169
-0.00156604
0.000116618
0.000162867
-0.00150731
4.47654e-05
7.97575e-05
-0.00131288
-5.57996e-06
-3.11871e-05
-0.000998535
9.29415e-06
-0.000134795
-0.000592456
0.000129016
-0.000232871
-0.000245653
0.0003671
-0.000252603
-6.00683e-05
0.000534211
-0.000143224
0.0005351
-7.49571e-05
0.00011207
0.000723449
-9.25862e-05
0.000368655
0.00113265
-0.000261844
0.000622573
0.00136003
-0.00027261
0.000783865
0.00144937
-0.000177208
0.00085136
0.00147895
-7.02343e-05
0.000850423
0.0014673
2.256e-05
0.000817341
0.00144156
7.57792e-05
0.00075916
0.00139255
0.000123205
0.000686552
0.00133255
0.000153185
0.000603491
0.00125254
0.000176293
0.00050616
0.00115406
0.000200738
0.00040195
0.00104528
0.000207118
0.000298119
0.000930694
0.000204264
0.000202046
0.000820225
0.000187039
0.00012209
0.000723121
0.000162946
5.11221e-05
0.000636749
0.000146426
-1.755e-05
0.000569022
0.000140365
-8.85474e-05
0.000509372
0.000139445
-0.000152441
0.000446289
0.000139346
-0.000210719
0.000385855
0.000140783
-0.000274611
0.000340737
0.000137284
-0.000328163
0.00029949
0.000130035
-0.000377371
0.000260629
0.000127557
-0.000431349
0.000216161
0.00013028
-0.000497725
0.000186408
0.00014579
-0.000586785
0.000153069
0.000164454
-0.000682901
0.000134411
0.00017821
-0.000807984
0.000146956
0.000200737
-0.000941425
0.000148711
0.000223369
-0.0010934
0.000139587
0.000254111
-0.00125168
0.000118192
0.000261883
-0.00139313
7.14302e-05
0.000250368
-0.00148498
1.42571e-06
0.000207036
-0.00148232
-9.17593e-05
0.000133867
-0.00135081
-0.000170506
3.34121e-05
-0.00106916
-0.000193611
-7.87402e-05
-0.000678447
-8.31293e-05
-0.000178571
-0.000277813
0.000194664
-0.000228198
-6.25095e-05
0.000479835
-0.000160926
0.00054693
-7.43373e-05
0.000122157
0.000636871
-3.55792e-05
0.000388295
0.00108737
-0.000220858
0.000654743
0.00133666
-0.000243085
0.000834248
0.00142392
-0.000154057
0.000905204
0.00144211
-3.41106e-05
0.000900518
0.00141447
5.75075e-05
0.000859266
0.00136863
0.000114176
0.000798839
0.00130255
0.000150424
0.000724926
0.00123329
0.000173175
0.000638614
0.00114995
0.000188902
0.000540931
0.0010562
0.00019554
0.000432944
0.000950109
0.000203156
0.000324604
0.000844774
0.000194259
0.000224203
0.000741366
0.00017926
0.000141024
0.000648921
0.000157379
6.5079e-05
0.00056981
0.000142885
2.61767e-06
0.000499322
0.000132162
-4.69965e-05
0.000430193
0.000128793
-9.79314e-05
0.000373741
0.000123483
-0.000157867
0.000325479
0.000120312
-0.000212067
0.000279307
0.00011563
-0.000257492
0.000235274
0.000109641
-0.00030046
0.000195248
0.000108349
-0.000348227
0.000155121
0.000108807
-0.000399432
0.000119785
0.000117827
-0.000472196
8.69368e-05
0.000138896
-0.000556192
6.21752e-05
0.000156231
-0.000654613
6.38818e-05
0.000181495
-0.000775613
5.35004e-05
0.00021621
-0.000919721
3.94913e-05
0.000244203
-0.00108143
1.51002e-05
0.000264799
-0.00124044
-3.48406e-05
0.00026528
-0.00136831
-0.000110798
0.000240097
-0.00141933
-0.000221392
0.000180649
-0.00135074
-0.00032865
8.95619e-05
-0.00113257
-0.000390386
-2.14014e-05
-0.000775543
-0.000317586
-0.000122567
-0.000350112
-4.96714e-05
-0.000181097
-6.67103e-05
0.000376267
-0.000179834
0.000542603
-6.23845e-05
0.000118405
0.000527308
-8.8418e-06
0.000371907
0.00103411
-0.000200247
0.000649235
0.00129642
-0.000237088
0.000843014
0.00138551
-0.000155371
0.000925059
0.00139372
-3.36541e-05
0.000920574
0.00134944
6.95202e-05
0.000879237
0.00128402
0.000125949
0.000807283
0.00121223
0.000162277
0.000718815
0.00113607
0.000185685
0.000626332
0.00104351
0.000198929
0.000531378
0.000946257
0.000204896
0.000434379
0.000845828
0.00020128
0.000339348
0.000747785
0.000192021
0.000252613
0.000658319
0.000169781
0.000179244
0.000573606
0.000148684
0.000113983
0.000500357
0.000134715
5.00528e-05
0.000434488
0.000128765
-1.5088e-05
0.000377126
0.000118208
-6.95782e-05
0.000321585
0.000106645
-0.000114111
0.000269787
0.000100225
-0.000156931
0.000225195
9.69334e-05
-0.000195326
0.000182179
9.14894e-05
-0.000235697
0.000143539
9.20795e-05
-0.000274064
0.000104442
8.90451e-05
-0.000322556
6.69153e-05
0.000101361
-0.000381675
2.98802e-05
0.000116175
-0.000458168
-1.85951e-06
0.000140527
-0.000540966
-2.45919e-05
0.000171272
-0.00064417
-4.89661e-05
0.000205671
-0.000765618
-7.99554e-05
0.000240894
-0.000910693
-0.000109693
0.000269868
-0.00106913
-0.000160571
0.000284168
-0.00122094
-0.000231342
0.000272356
-0.00131606
-0.000353727
0.000227456
-0.00130459
-0.000490919
0.000150792
-0.00113631
-0.00061365
5.49901e-05
-0.000805806
-0.000591138
-5.6956e-05
-0.000391546
-0.000324101
-0.000139829
-6.08524e-05
0.000194896
-0.000149322
0.000524897
-4.31472e-05
0.000145519
0.000334449
4.73401e-05
0.000378873
0.000923975
-0.000123216
0.000661511
0.00120069
-0.000186905
0.000859195
0.00129595
-0.000108123
0.000951289
0.00129443
7.19057e-06
0.00094587
0.00124824
0.00010662
0.000900003
0.00117242
0.000157464
0.000832348
0.0010887
0.000191189
0.000762007
0.00100381
0.000202603
0.000685192
0.000915405
0.000204915
0.000599195
0.00083241
0.000199844
0.000502794
0.000751134
0.000191095
0.00040207
0.000671426
0.000177084
0.000305376
0.000598315
0.000156698
0.000222821
0.000527505
0.000128656
0.000148779
0.00046321
0.000111189
8.1626e-05
0.000395874
0.000105767
1.87653e-05
0.000334408
0.000105579
-3.03703e-05
0.000277697
9.30241e-05
-7.2169e-05
0.000227647
8.39384e-05
-0.000108608
0.000179999
8.16345e-05
-0.00014355
0.000139972
7.71486e-05
-0.000177431
0.000100801
7.6618e-05
-0.000213717
6.44593e-05
7.62676e-05
-0.000257955
2.3691e-05
8.74618e-05
-0.000307662
-1.74473e-05
9.70339e-05
-0.000365256
-5.63462e-05
0.00011208
-0.000432267
-0.000100758
0.000143177
-0.000520038
-0.000141035
0.00017984
-0.000633716
-0.000183417
0.000217139
-0.000776617
-0.000222721
0.00025593
-0.000934386
-0.000295063
0.000292261
-0.00109895
-0.000380692
0.000313918
-0.00122225
-0.000535294
0.00030486
-0.00127
-0.000699068
0.000255898
-0.00117879
-0.000878965
0.000174107
-0.000900258
-0.000929083
5.94137e-05
-0.000468124
-0.000707137
-4.90987e-05
-8.8542e-05
-8.79576e-05
-9.67287e-05
0.000447625
-1.12682e-05
0.000116309
0.000207259
1.08799e-05
0.000332802
0.0008457
-0.000138218
0.000619569
0.00111992
-0.000206
0.000832376
0.00121895
-0.000135809
0.000941302
0.00120598
-2.04711e-05
0.000963124
0.00114708
7.93419e-05
0.000928473
0.00105526
0.000151815
0.000867102
0.000975568
0.000174499
0.000788013
0.000900279
0.000182622
0.000696411
0.000825243
0.000181763
0.000601164
0.000750476
0.000177181
0.000504178
0.000678799
0.000169321
0.0004116
0.000608027
0.000155976
0.000323965
0.000545763
0.000140187
0.000244482
0.000483981
0.000123007
0.000181166
0.000427249
9.92765e-05
0.000127094
0.00036544
8.45066e-05
7.29558e-05
0.000307395
8.1151e-05
2.02653e-05
0.00024844
8.1948e-05
-1.97214e-05
0.000192577
7.5057e-05
-6.18532e-05
0.000151306
7.08246e-05
-9.37837e-05
0.00010354
6.83625e-05
-0.000128612
6.86552e-05
6.69741e-05
-0.000162353
2.76667e-05
7.0533e-05
-0.000202731
-1.43129e-05
7.83807e-05
-0.000253505
-5.18431e-05
8.51699e-05
-0.000308598
-9.30707e-05
9.18183e-05
-0.000370459
-0.00015011
0.000111213
-0.000439529
-0.000214182
0.000142216
-0.000514844
-0.000287522
0.000179421
-0.000604021
-0.000358943
0.000225398
-0.000719617
-0.000455986
0.000276519
-0.000868317
-0.000554715
0.000322723
-0.00103386
-0.000714483
0.000344729
-0.0011547
-0.000911479
0.000333257
-0.00114427
-0.0011554
0.000266003
-0.000966405
-0.00126926
0.000162306
-0.000571954
-0.00113813
3.6543e-05
-0.000145876
-0.00049155
-2.24869e-05
0.000251385
5.03629e-05
8.49947e-05
0.000105835
1.64294e-05
0.000324555
0.000728462
-0.000122324
0.000600861
0.00102868
-0.00018507
0.000828633
0.00113708
-0.000145901
0.000949129
0.00112776
-4.22751e-05
0.000977646
0.00106593
5.26248e-05
0.000933492
0.000972214
0.000127199
0.000866169
0.000884769
0.000158122
0.000797664
0.000803737