/*--------------------------------*- C++ -*----------------------------------*\
| =========                 |                                                 |
| \\      /  F ield         | OpenFOAM: The Open Source CFD Toolbox           |
|  \\    /   O peration     | Version:  v1806                                 |
|   \\  /    A nd           | Web:      www.OpenFOAM.com                      |
|    \\/     M anipulation  |                                                 |
\*---------------------------------------------------------------------------*/
FoamFile
{
    version     2.0;
    format      ascii;
    class       vectorField;
    location    "0.0725";
    object      currentcloudofpoints;
}
// * * * * * * * * * * * * * * * * * * * * * * * * * * * * * * * * * * * * * //


2409
(
(0.943071 1.39752 0.996484)
(0.704523 1.01787 1.01839)
(1.32169 1.32391 0.999124)
(0.970118 1.20718 0.835325)
(0.959816 1.20456 1.157)
(1.10914 1.10662 1.00027)
(0.878765 1.5812 1.00315)
(0.593694 0.847267 0.993442)
(1.50908 1.46095 0.999464)
(1.10422 1.11451 0.665657)
(1.08005 1.10223 1.30671)
(1.29591 1.3129 1.07313)
(1.22808 1.28353 1.12205)
(1.14809 1.22583 1.13971)
(1.06031 1.18514 1.1311)
(1.3111 1.32087 1.03858)
(1.26374 1.29683 1.09915)
(1.18295 1.2597 1.13597)
(1.10774 1.19249 1.13255)
(1.00526 1.20452 1.13887)
(0.738938 1.0437 1.18908)
(0.794249 1.08882 1.24577)
(0.853797 1.13254 1.21569)
(0.88769 1.15842 1.16536)
(0.721366 1.02939 1.12918)
(0.763375 1.06861 1.22253)
(0.830748 1.11331 1.23703)
(0.865137 1.14489 1.17783)
(0.917427 1.17913 1.15763)
(1.29043 1.31523 0.92327)
(1.22414 1.28392 0.875652)
(1.14085 1.23049 0.863858)
(1.05715 1.18212 0.868348)
(1.30794 1.32011 0.958484)
(1.25845 1.30005 0.898144)
(1.17986 1.25918 0.865904)
(1.10059 1.19944 0.868917)
(1.00779 1.19671 0.857875)
(0.887803 1.15721 0.832512)
(0.850288 1.13034 0.799886)
(0.807334 1.09077 0.781037)
(0.732292 1.02582 0.840176)
(0.923035 1.18324 0.836421)
(0.86183 1.14085 0.826578)
(0.832873 1.11454 0.786394)
(0.770736 1.05952 0.808158)
(0.707417 1.01689 0.905804)
(0.950167 1.28586 1.18383)
(0.976575 1.37396 1.22598)
(0.94201 1.40504 1.16346)
(0.926341 1.40516 1.09211)
(0.93807 1.2391 1.1537)
(0.971158 1.33308 1.21628)
(0.959845 1.39599 1.19513)
(0.932522 1.40615 1.12652)
(0.937885 1.39753 1.0426)
(0.928274 1.4069 0.895131)
(0.935695 1.40721 0.81722)
(0.983539 1.37877 0.760293)
(0.952897 1.28348 0.811991)
(0.940962 1.39821 0.948366)
(0.928602 1.40796 0.856868)
(0.959333 1.40093 0.787904)
(0.979795 1.33488 0.771561)
(0.94256 1.23682 0.84216)
(0.694619 1.05843 1.03254)
(0.694692 1.1007 1.03271)
(0.721806 1.1555 1.01239)
(0.798237 1.27859 0.999136)
(0.700373 1.04388 1.03553)
(0.694931 1.08469 1.0317)
(0.709394 1.1311 1.02602)
(0.75046 1.20577 1.00053)
(0.874113 1.34683 0.999868)
(1.06567 1.43943 1.00636)
(1.1494 1.42746 1.00513)
(1.20511 1.38996 0.998956)
(1.27138 1.3571 0.999678)
(1.00496 1.42912 0.99863)
(1.11398 1.43441 1.00892)
(1.17593 1.40967 1.00012)
(1.2258 1.36567 1.00001)
(1.30567 1.34886 0.99917)
(0.570399 0.897614 1.19912)
(0.665813 0.924618 1.30346)
(0.774583 0.969017 1.40057)
(0.847686 0.985527 1.44298)
(0.890193 0.99501 1.39838)
(0.957111 1.02949 1.33046)
(1.03981 1.0586 1.2915)
(0.580449 0.864947 1.11626)
(0.616941 0.894962 1.25359)
(0.719104 0.951764 1.35938)
(0.817306 0.978316 1.42688)
(0.872668 0.989096 1.42458)
(0.91349 1.0082 1.36381)
(1.00469 1.0477 1.28954)
(1.0656 1.07671 1.29206)
(1.14726 1.17371 1.37006)
(1.22165 1.19346 1.34966)
(1.27913 1.235 1.31224)
(1.33795 1.27779 1.2831)
(1.40524 1.32058 1.23825)
(1.46431 1.386 1.1757)
(1.50054 1.44234 1.09462)
(1.10303 1.14181 1.34458)
(1.18907 1.18182 1.36257)
(1.24986 1.21292 1.32724)
(1.30572 1.25735 1.29477)
(1.36863 1.2966 1.26166)
(1.4347 1.34989 1.20716)
(1.48411 1.41412 1.13726)
(1.50603 1.45311 1.0477)
(0.58197 0.889591 0.793529)
(0.668668 0.927075 0.690548)
(0.773676 0.956623 0.594153)
(0.844349 0.985712 0.55929)
(0.897611 1.00148 0.592976)
(0.958532 1.02961 0.664309)
(1.0517 1.0562 0.694116)
(0.590423 0.863577 0.884719)
(0.600623 0.932685 0.732492)
(0.729386 0.934224 0.632381)
(0.813463 0.973235 0.574413)
(0.875022 0.993143 0.572004)
(0.919524 1.01182 0.63031)
(1.01016 1.04278 0.697787)
(1.08513 1.08154 0.685176)
(1.49925 1.44205 0.905711)
(1.46498 1.38762 0.824081)
(1.40648 1.32212 0.762209)
(1.3398 1.27694 0.716519)
(1.27964 1.23345 0.68715)
(1.22383 1.19374 0.65385)
(1.16146 1.16588 0.634546)
(1.50464 1.45255 0.951704)
(1.48378 1.41488 0.86319)
(1.43583 1.35212 0.79254)
(1.37041 1.2966 0.739114)
(1.30701 1.25597 0.703338)
(1.24997 1.21223 0.674806)
(1.19354 1.17987 0.643043)
(1.129 1.14491 0.64484)
(0.886046 1.59537 1.1948)
(0.878968 1.56515 1.28827)
(0.887608 1.4921 1.3361)
(0.941925 1.38249 1.40968)
(0.969731 1.28146 1.43131)
(1.00003 1.20733 1.42928)
(1.04474 1.14963 1.34357)
(0.887844 1.60564 1.11801)
(0.884179 1.58103 1.25203)
(0.88008 1.52892 1.31485)
(0.916937 1.44336 1.37252)
(0.958439 1.32215 1.42881)
(0.980357 1.24445 1.42093)
(1.01447 1.17593 1.40498)
(1.05994 1.12583 1.29764)
(0.878083 1.59595 0.805666)
(0.87498 1.56417 0.714304)
(0.895044 1.48983 0.657962)
(0.944216 1.38171 0.591132)
(0.979633 1.28413 0.558931)
(0.992134 1.22082 0.578894)
(1.03351 1.15928 0.642457)
(0.876566 1.59006 0.882145)
(0.87554 1.58339 0.753227)
(0.882961 1.52612 0.682319)
(0.919961 1.44224 0.632175)
(0.966325 1.32297 0.560836)
(0.984318 1.25391 0.576511)
(0.996231 1.19265 0.594758)
(1.07072 1.13396 0.668159)
(0.574072 0.936945 0.998929)
(0.572162 1.01101 1.00726)
(0.586363 1.08887 0.994506)
(0.598023 1.18957 1.00015)
(0.632985 1.28109 1.00486)
(0.683965 1.34732 0.997001)
(0.754847 1.44683 1.00075)
(0.581746 0.895425 0.994488)
(0.57199 0.974673 1.00461)
(0.577776 1.04906 1.00357)
(0.591717 1.13461 0.990934)
(0.613828 1.23849 1.00793)
(0.6566 1.31445 0.998689)
(0.716653 1.38343 0.997429)
(0.808219 1.52068 1.00242)
(0.992232 1.60793 1.00354)
(1.07263 1.61721 1.00319)
(1.14959 1.62724 1.00566)
(1.24016 1.61631 1.00249)
(1.31923 1.6019 1.00014)
(1.38467 1.57399 0.999063)
(1.44969 1.52397 0.999904)
(0.942327 1.60368 1.00463)
(1.03433 1.60927 1.003)
(1.11181 1.62304 1.00477)
(1.19717 1.62141 1.0043)
(1.28511 1.60655 1.00119)
(1.35466 1.585 0.999213)
(1.41717 1.54561 0.999501)
(1.48229 1.49312 0.999701)
(1.03496 1.12535 0.811284)
(1.10059 1.09554 0.720272)
(1.00366 1.18608 0.825408)
(1.03156 1.13076 1.17884)
(0.993954 1.18659 1.16182)
(1.07472 1.09465 1.25661)
(0.683663 0.852197 0.996291)
(0.699853 0.956132 0.988485)
(0.608883 0.85677 0.991562)
(1.4141 1.36756 0.998834)
(1.36935 1.34655 0.999465)
(1.4657 1.3975 0.99875)
(1.09446 1.55253 1.30613)
(1.13086 1.63238 1.2062)
(1.12534 1.3113 1.37901)
(1.32109 1.57013 1.1919)
(1.0328 1.63564 1.14399)
(1.16087 1.2433 1.38746)
(1.44334 1.49628 1.15141)
(1.37228 1.51018 1.2473)
(1.04203 1.62599 1.23736)
(1.20944 1.58903 1.25638)
(1.22508 1.61105 1.15946)
(0.989162 1.52259 1.33415)
(1.25502 1.49968 1.30181)
(1.38344 1.55592 1.1501)
(1.15428 1.4841 1.3375)
(1.40994 1.55119 1.07293)
(1.2235 1.2895 1.38642)
(1.35361 1.58141 1.08806)
(0.967535 1.62133 1.21988)
(1.07257 1.21959 1.3644)
(1.03315 1.29869 1.39279)
(1.19732 1.39974 1.35893)
(1.40467 1.40774 1.25444)
(1.13108 1.63224 1.12106)
(0.956177 1.59033 1.29302)
(1.1107 1.39193 1.37089)
(1.35012 1.35105 1.30179)
(1.30617 1.42879 1.32606)
(0.970115 1.63216 1.135)
(1.09412 1.18274 1.35885)
(1.46695 1.50523 1.06417)
(1.06032 1.45809 1.35333)
(1.00325 1.38535 1.39819)
(1.29035 1.33171 1.34513)
(1.19346 1.62065 1.07613)
(1.29926 1.59712 1.0973)
(1.14875 1.21099 1.38348)
(1.19484 1.22451 1.37893)
(1.07767 1.13766 1.32958)
(1.11086 1.18353 1.37173)
(1.12669 1.21723 1.37537)
(1.22962 1.24143 1.36448)
(1.2594 1.26054 1.34189)
(1.19724 1.26576 1.38768)
(1.28732 1.28177 1.31891)
(1.31517 1.30382 1.30454)
(1.25764 1.30997 1.36342)
(1.34211 1.31325 1.28676)
(1.37476 1.33168 1.26232)
(1.31925 1.34244 1.32461)
(1.40455 1.35937 1.23955)
(1.43182 1.39307 1.20909)
(1.37773 1.37327 1.27784)
(1.45759 1.43909 1.16653)
(1.47221 1.46742 1.12124)
(1.428 1.45107 1.21144)
(1.48691 1.47579 1.07978)
(1.49065 1.4835 1.03131)
(1.45437 1.50027 1.1076)
(1.45834 1.51443 1.03265)
(1.06214 1.62183 1.07828)
(1.02139 1.62553 1.08907)
(1.00363 1.63382 1.14279)
(0.98818 1.62361 1.07226)
(0.932387 1.61954 1.08286)
(1.15013 1.62256 1.06943)
(1.11036 1.62223 1.07502)
(1.08242 1.63069 1.13474)
(1.2204 1.61547 1.04127)
(1.17441 1.62275 1.04283)
(1.16507 1.62443 1.10057)
(1.31034 1.5968 1.04817)
(1.27616 1.60347 1.05274)
(1.25579 1.60344 1.0949)
(1.36911 1.57443 1.0436)
(1.33843 1.58742 1.0462)
(1.32854 1.58681 1.09378)
(1.42936 1.5351 1.03746)
(1.39711 1.56042 1.03634)
(1.38239 1.56408 1.08103)
(1.43786 1.52506 1.07079)
(1.06861 1.59042 1.27833)
(1.08351 1.6262 1.22519)
(1.11248 1.60151 1.26488)
(1.16715 1.61304 1.2348)
(1.14986 1.57566 1.28762)
(1.08525 1.6357 1.17849)
(1.13273 1.63513 1.16481)
(1.1788 1.62305 1.18284)
(1.2177 1.60348 1.21096)
(1.17882 1.62313 1.13915)
(1.15215 1.27873 1.37802)
(1.18042 1.30735 1.38476)
(1.11975 1.23628 1.36423)
(1.09856 1.26737 1.36917)
(1.16223 1.35766 1.37213)
(1.20803 1.34332 1.3766)
(1.07253 1.30374 1.37775)
(1.04634 1.25417 1.38203)
(1.11283 1.3483 1.37526)
(1.06911 1.34767 1.37943)
(1.15448 1.40062 1.36084)
(1.31302 1.58111 1.15035)
(1.34215 1.57176 1.14451)
(1.27713 1.58335 1.18564)
(1.26952 1.59675 1.13707)
(1.31146 1.49962 1.27868)
(1.29747 1.53495 1.2542)
(1.35015 1.53969 1.22084)
(1.3555 1.55957 1.17349)
(1.38384 1.53416 1.20179)
(1.369 1.5673 1.11979)
(1.27306 1.56655 1.23224)
(1.23834 1.53822 1.28549)
(1.00685 1.62249 1.23271)
(1.00157 1.63277 1.18363)
(1.03601 1.6337 1.19545)
(0.968295 1.62684 1.18429)
(0.929505 1.60867 1.21453)
(0.926036 1.59625 1.26078)
(0.928774 1.61829 1.17024)
(0.91831 1.57856 1.29278)
(0.917746 1.54367 1.32008)
(0.962609 1.60656 1.26153)
(0.93947 1.51111 1.33658)
(0.958775 1.45951 1.36462)
(0.974241 1.55805 1.31877)
(0.984323 1.32242 1.41643)
(0.974326 1.38386 1.40442)
(0.992167 1.46087 1.36144)
(0.998874 1.28795 1.40704)
(1.01173 1.24838 1.40154)
(1.01817 1.33813 1.39762)
(1.02837 1.20509 1.39707)
(1.05834 1.18378 1.35718)
(1.07133 1.16182 1.3318)
(1.09216 1.20088 1.34787)
(1.04254 1.53001 1.31839)
(1.07392 1.50211 1.32633)
(1.02393 1.48781 1.34068)
(1.10486 1.4707 1.34347)
(1.12471 1.51441 1.32186)
(1.02101 1.57122 1.30171)
(1.18478 1.5342 1.30852)
(1.42793 1.52363 1.11484)
(1.03171 1.42468 1.37359)
(1.0508 1.37917 1.38134)
(1.08682 1.42291 1.36395)
(1.13036 1.44238 1.35359)
(1.21409 1.61499 1.12122)
(1.41444 1.52499 1.15596)
(1.4121 1.49817 1.20635)
(1.38873 1.4578 1.26247)
(1.39707 1.54974 1.11342)
(1.33588 1.46432 1.2931)
(1.27541 1.46605 1.3139)
(1.3601 1.41364 1.29619)
(1.00471 1.60585 1.27128)
(1.2062 1.49189 1.32082)
(1.17392 1.44269 1.34753)
(1.22182 1.44908 1.33541)
(1.24901 1.41488 1.34475)
(1.24514 1.36744 1.35998)
(1.29749 1.37801 1.34215)
(1.33255 1.38856 1.32147)
(0.77124 1.21743 1.43427)
(0.624522 1.35909 1.25744)
(0.586092 1.15359 1.25403)
(0.618715 1.09701 1.27432)
(0.693865 1.37729 1.31105)
(0.878137 1.22065 1.46618)
(0.582141 1.00638 1.25619)
(0.80217 1.53526 1.25684)
(0.947808 1.11037 1.43739)
(0.669478 1.30287 1.32456)
(0.715286 1.13259 1.36552)
(0.695545 1.45235 1.24992)
(0.803653 1.29451 1.42328)
(0.895402 1.09782 1.4639)
(0.906077 1.2882 1.45399)
(0.822936 1.38485 1.38374)
(0.689381 1.04264 1.33364)
(0.979551 1.1632 1.44404)
(0.560438 1.04918 1.18945)
(0.597379 1.32061 1.15722)
(0.926164 1.16663 1.45192)
(0.784575 1.45748 1.30851)
(0.944212 1.22745 1.43336)
(0.574864 1.22982 1.14621)
(0.820422 1.11169 1.43864)
(0.793174 1.05243 1.41883)
(0.649846 1.22193 1.32183)
(0.76575 1.16112 1.42581)
(0.855784 1.05316 1.45676)
(0.850905 1.16378 1.46069)
(0.562276 1.21765 1.22235)
(0.597707 1.28729 1.24863)
(0.566235 0.946805 1.15564)
(1.02743 1.10893 1.30432)
(0.563936 1.13457 1.12621)
(0.755334 1.49558 1.11892)
(0.665182 1.3777 1.10107)
(0.568688 1.04472 1.23172)
(0.581052 1.08324 1.24178)
(0.605596 1.0533 1.2664)
(0.558825 0.994193 1.21694)
(0.563264 1.00114 1.17841)
(0.652329 1.06924 1.29789)
(0.638008 1.01762 1.28674)
(0.566875 0.954386 1.2315)
(0.618019 0.957115 1.27296)
(0.562058 0.935155 1.17875)
(0.671017 0.986354 1.31746)
(0.956054 1.05725 1.3671)
(1.00961 1.07543 1.3035)
(0.89513 1.04868 1.44434)
(0.91681 1.05906 1.43464)
(0.922427 1.10491 1.4594)
(1.03299 1.08616 1.27653)
(1.05076 1.1049 1.27703)
(0.983741 1.09575 1.36342)
(0.65666 1.40544 1.25423)
(0.699029 1.41212 1.28617)
(0.663463 1.37061 1.28919)
(0.747402 1.4526 1.28658)
(0.742468 1.41101 1.31453)
(0.747391 1.33626 1.36664)
(0.760009 1.37568 1.35061)
(0.816107 1.33532 1.40712)
(0.681385 1.33752 1.31923)
(0.737678 1.30176 1.37711)
(0.797925 1.42074 1.34117)
(0.650848 1.33157 1.29399)
(0.60546 1.12643 1.26553)
(0.570223 1.10459 1.22624)
(0.557291 1.08539 1.15686)
(0.554618 1.14305 1.19827)
(0.560422 1.00719 1.11165)
(0.56675 0.965296 1.1125)
(0.573981 0.916481 1.08212)
(0.560619 1.06225 1.08238)
(0.751497 1.49093 1.2592)
(0.793646 1.49391 1.28807)
(0.723153 1.49236 1.20625)
(0.779266 1.53559 1.20661)
(0.629327 1.38495 1.20395)
(0.667488 1.43455 1.19169)
(0.704841 1.42978 1.10826)
(0.863809 1.28507 1.44709)
(0.87351 1.32904 1.427)
(0.891698 1.25342 1.45459)
(0.847347 1.24761 1.45848)
(0.791417 1.2523 1.43364)
(0.832803 1.21396 1.46118)
(0.722906 1.2615 1.38232)
(0.879608 1.0252 1.44521)
(0.876141 1.07508 1.45612)
(0.909788 1.13363 1.45301)
(0.93939 1.13845 1.4512)
(0.877774 1.13493 1.45267)
(0.891451 1.16872 1.45523)
(0.86316 1.10602 1.4485)
(0.839632 1.08498 1.44281)
(0.83552 1.13896 1.44648)
(0.923507 1.32679 1.43385)
(0.893024 1.38219 1.40482)
(0.940676 1.28771 1.44054)
(0.953352 1.25593 1.42758)
(0.925025 1.2606 1.4379)
(0.911616 1.22901 1.43872)
(0.860682 1.43346 1.36403)
(0.83877 1.47091 1.32566)
(0.999074 1.14855 1.39914)
(0.991182 1.18404 1.43794)
(0.966247 1.18838 1.43732)
(0.972662 1.21505 1.43237)
(1.03581 1.12841 1.32147)
(0.983965 1.12916 1.39455)
(0.961495 1.13614 1.43494)
(0.952866 1.16039 1.44144)
(0.935467 1.19442 1.43391)
(0.646761 1.1511 1.30628)
(0.660311 1.12081 1.312)
(0.619354 1.19342 1.28657)
(0.684888 1.17885 1.3483)
(0.556231 1.17727 1.1771)
(0.568364 1.18399 1.23652)
(0.607078 1.22677 1.27318)
(0.70707 1.0922 1.34844)
(0.841757 1.5476 1.27669)
(0.842479 1.56717 1.22852)
(0.818929 1.55858 1.16689)
(0.808781 1.53349 1.07027)
(0.829618 1.50615 1.30163)
(0.865135 1.19273 1.46182)
(0.81866 1.18473 1.45634)
(0.712582 1.22425 1.38099)
(0.664753 1.25853 1.32906)
(0.770038 1.18818 1.43238)
(0.710041 1.19617 1.37821)
(0.811423 1.16004 1.44731)
(0.580853 0.878695 1.08202)
(0.569359 1.10938 1.06827)
(0.581501 1.15406 1.06361)
(0.623722 1.30255 1.07847)
(0.604908 1.25518 1.08604)
(0.593313 1.20464 1.0787)
(0.57138 1.18244 1.13547)
(0.582261 1.27483 1.15272)
(0.677824 1.34962 1.04155)
(0.649755 1.32033 1.04469)
(0.630227 1.35575 1.13512)
(0.752356 1.45122 1.05502)
(0.71423 1.38815 1.04706)
(0.729262 1.00545 1.3707)
(0.826255 1.01954 1.43892)
(0.78727 1.01204 1.41107)
(0.743771 1.05021 1.38029)
(0.853927 1.01887 1.45174)
(0.828637 1.05269 1.43913)
(0.902446 1.19766 1.4489)
(0.754794 1.09186 1.39159)
(0.612235 1.3225 1.25448)
(0.639606 1.29755 1.29156)
(0.624717 1.25361 1.28592)
(0.807489 1.08336 1.42598)
(0.771649 1.11786 1.41075)
(0.744582 1.14739 1.39849)
(0.796512 1.13548 1.43361)
(0.586365 1.30635 1.20728)
(0.60311 1.34438 1.21403)
(0.560855 1.22404 1.18724)
(0.570401 1.26202 1.20242)
(0.580804 1.25333 1.2358)
(0.703447 1.17009 0.628999)
(0.739721 1.31655 0.643869)
(0.642662 1.14025 0.680077)
(0.597697 1.1014 0.740473)
(0.655634 1.41028 0.753284)
(0.893017 1.19449 0.530765)
(0.750031 1.48751 0.743696)
(0.954971 1.18334 0.54113)
(0.631937 1.20308 0.696201)
(0.642646 1.33824 0.702856)
(0.835619 1.09551 0.554361)
(0.833431 1.38339 0.617598)
(0.831435 1.23264 0.538042)
(0.687208 1.24309 0.657527)
(0.840627 1.17081 0.541602)
(0.710696 1.4049 0.687533)
(0.931734 1.24259 0.530567)
(0.66214 1.02723 0.677218)
(0.940586 1.10895 0.570526)
(0.576621 1.02043 0.748759)
(0.575962 1.10998 0.871688)
(0.596451 1.31827 0.82744)
(0.563597 1.20778 0.849034)
(0.569153 1.03165 0.830827)
(0.797624 1.46297 0.67878)
(0.580384 1.26038 0.740301)
(0.745772 1.0755 0.599646)
(0.554446 1.15542 0.782057)
(0.895878 1.29321 0.531201)
(0.684617 1.41898 0.889601)
(0.89553 1.10537 0.535604)
(0.576954 0.940474 0.848918)
(0.797037 1.54852 0.821008)
(0.772598 1.16165 0.56575)
(0.828696 1.30063 0.571753)
(1.01941 1.11188 0.669421)
(0.664526 1.22302 0.673599)
(0.702323 1.20802 0.637692)
(0.673106 1.19009 0.65971)
(0.677106 1.15675 0.652006)
(0.642656 1.1733 0.684548)
(0.740507 1.16373 0.594761)
(0.741009 1.2046 0.60196)
(0.696739 1.10355 0.635726)
(0.727306 1.11952 0.609617)
(0.762184 1.12034 0.582711)
(0.918769 1.15509 0.544309)
(0.925534 1.18888 0.544741)
(0.943437 1.14961 0.549948)
(0.909993 1.22043 0.533368)
(0.942005 1.21434 0.548975)
(0.919719 1.10731 0.544925)
(0.89364 1.15114 0.541051)
(0.867564 1.18333 0.536639)
(0.836618 1.20275 0.541188)
(0.865397 1.21426 0.531217)
(0.885534 1.23959 0.526412)
(0.870951 1.14184 0.543854)
(1.02088 1.13587 0.649233)
(1.06918 1.10809 0.688029)
(1.04641 1.0829 0.703014)
(0.730063 1.44149 0.70678)
(0.684726 1.40762 0.709994)
(0.702841 1.44798 0.74444)
(0.757739 1.42944 0.679623)
(0.773702 1.47327 0.704457)
(0.714701 1.47374 0.803595)
(0.671273 1.42782 0.818534)
(0.83721 1.50931 0.692307)
(0.81554 1.51863 0.720548)
(0.774832 1.52008 0.778995)
(0.838696 1.55526 0.751051)
(0.73621 1.49295 0.851147)
(0.962324 1.15073 0.571112)
(0.968433 1.10456 0.624517)
(0.961426 1.23494 0.559044)
(0.972147 1.20407 0.557253)
(0.976416 1.17069 0.573835)
(0.603261 1.22954 0.722503)
(0.633667 1.24847 0.702841)
(0.596445 1.15395 0.732772)
(0.587663 1.18656 0.737893)
(0.559744 1.20778 0.764614)
(0.957583 1.0581 0.641154)
(1.0107 1.07528 0.6903)
(0.922593 1.06153 0.571637)
(0.718797 1.27579 0.646444)
(0.662413 1.28003 0.688129)
(0.68737 1.32281 0.679906)
(0.617441 1.29662 0.717488)
(0.677296 1.36976 0.692894)
(0.646612 1.3744 0.71787)
(0.721439 1.35707 0.669674)
(0.607137 1.34109 0.742633)
(0.620002 1.36914 0.786983)
(0.569032 1.29281 0.770728)
(0.809655 1.16548 0.552082)
(0.837595 1.13423 0.552901)
(0.804755 1.12859 0.56063)
(0.869711 1.10146 0.5465)
(0.875241 1.05064 0.552164)
(0.846037 1.04044 0.558856)
(0.795613 1.0855 0.572595)
(0.808222 1.03133 0.575556)
(0.90037 1.05367 0.556399)
(0.793311 1.34733 0.622259)
(0.772603 1.39171 0.65536)
(0.813963 1.42359 0.64983)
(0.897255 1.38109 0.595605)
(0.8679 1.43301 0.635158)
(0.849809 1.47445 0.664575)
(0.869862 1.33104 0.570884)
(0.923523 1.32755 0.553888)
(0.832562 1.33959 0.593249)
(0.792094 1.31096 0.603002)
(0.864301 1.29438 0.547162)
(0.800372 1.27038 0.579338)
(0.775733 1.23754 0.585903)
(0.806095 1.19884 0.555501)
(0.918878 1.2657 0.525067)
(0.864902 1.26236 0.532172)
(0.832626 1.26224 0.549905)
(0.955402 1.26327 0.547588)
(0.945308 1.28962 0.538209)
(0.649738 1.08613 0.678139)
(0.622455 1.07555 0.708839)
(0.614594 1.12192 0.712991)
(0.592569 1.06407 0.744567)
(0.615965 1.03699 0.717457)
(0.666121 0.97514 0.684971)
(0.722782 0.983769 0.628562)
(0.605801 0.988129 0.721765)
(0.704493 1.04805 0.636581)
(0.765663 1.01576 0.598283)
(0.642851 1.36732 0.860485)
(0.580634 1.12655 0.762369)
(0.575498 1.02579 0.781532)
(0.578662 1.07127 0.777415)
(0.564858 1.09546 0.801738)
(0.835971 1.57291 0.808748)
(0.834046 1.56531 0.894978)
(0.571447 1.03091 0.910802)
(0.570289 0.990569 0.906565)
(0.573322 0.946778 0.921886)
(0.581633 0.898346 0.918295)
(0.57428 0.987331 0.834539)
(0.599136 1.08929 0.921498)
(0.583933 1.05839 0.930289)
(0.564891 1.06799 0.857112)
(0.607531 1.18468 0.899593)
(0.60462 1.14045 0.886845)
(0.57032 1.15934 0.856777)
(0.606412 1.25144 0.908557)
(0.621116 1.29412 0.916376)
(0.573716 1.26243 0.837197)
(0.685054 1.37364 0.948507)
(0.656251 1.33145 0.94923)
(0.720822 1.42517 0.945016)
(0.776816 1.51444 0.911)
(0.577054 0.91698 0.818676)
(0.570661 0.961325 0.76396)
(0.57136 0.977642 0.785748)
(0.549307 1.12909 0.825305)
(0.540221 1.17513 0.816338)
(0.544358 1.23327 0.794417)
(1.1674 1.61589 0.771252)
(1.09017 1.60356 0.718104)
(1.39035 1.54676 0.821852)
(1.10168 1.39874 0.618237)
(0.987177 1.6261 0.803818)
(1.4498 1.48905 0.852369)
(1.16818 1.2487 0.609554)
(1.17267 1.35052 0.619113)
(1.07664 1.62049 0.812745)
(1.13549 1.51311 0.681298)
(1.03036 1.49264 0.66129)
(1.17079 1.6149 0.881968)
(1.20417 1.46182 0.665648)
(1.10066 1.29952 0.618669)
(1.25128 1.55407 0.730613)
(1.06916 1.22986 0.637101)
(1.40996 1.44328 0.75892)
(1.03851 1.28069 0.608893)
(1.02275 1.60479 0.888246)
(1.41754 1.54736 0.924996)
(1.33936 1.59548 0.90156)
(1.31848 1.49753 0.71438)
(1.24958 1.28938 0.627471)
(0.984427 1.59602 0.710263)
(1.08993 1.61059 0.906879)
(1.32185 1.57894 0.801771)
(1.30538 1.32222 0.665674)
(1.25831 1.39436 0.645434)
(0.955569 1.60887 0.873698)
(1.46919 1.50097 0.936013)
(1.10437 1.18496 0.638259)
(1.25173 1.60683 0.830541)
(1.26937 1.61263 0.922142)
(1.35111 1.36947 0.69616)
(0.958831 1.50119 0.657094)
(1.01939 1.36119 0.601518)
(1.45993 1.51162 0.967266)
(1.49084 1.48145 0.968237)
(1.48664 1.47326 0.920505)
(1.1205 1.61813 0.784494)
(1.08728 1.62558 0.765897)
(1.13272 1.61172 0.741113)
(1.1112 1.55028 0.688553)
(1.16168 1.56892 0.707991)
(1.17205 1.6093 0.815508)
(1.12637 1.60605 0.831675)
(1.19501 1.52683 0.69954)
(1.21385 1.58811 0.74591)
(1.21079 1.60817 0.794659)
(1.21582 1.60764 0.850126)
(1.25609 1.59345 0.779881)
(1.00247 1.6016 0.940674)
(1.04416 1.60484 0.944884)
(0.915121 1.59704 0.9274)
(0.968126 1.6022 0.940363)
(0.991285 1.60646 0.88153)
(1.0784 1.61369 0.952143)
(1.11677 1.62244 0.955269)
(1.05803 1.60331 0.896492)
(1.15572 1.62393 0.938738)
(1.20556 1.62037 0.942486)
(1.13064 1.6119 0.888614)
(1.29855 1.60645 0.96051)
(1.2552 1.61468 0.959349)
(1.22395 1.61333 0.901314)
(1.33247 1.59666 0.948101)
(1.36665 1.57837 0.94786)
(1.30868 1.60209 0.9101)
(1.40247 1.55781 0.961808)
(1.43326 1.53164 0.961582)
(1.38159 1.56755 0.909935)
(1.44267 1.52049 0.928515)
(1.0922 1.14918 0.650998)
(1.07372 1.16863 0.653836)
(1.12785 1.18088 0.629423)
(0.929231 1.6107 0.7558)
(0.935322 1.61485 0.798923)
(0.973001 1.61616 0.830698)
(0.919978 1.60814 0.834159)
(0.932011 1.58178 0.709424)
(0.98591 1.62371 0.755879)
(1.0509 1.60849 0.840749)
(1.00722 1.61353 0.840718)
(1.03506 1.62194 0.807767)
(1.04007 1.62617 0.760112)
(1.42085 1.5145 0.831069)
(1.40375 1.49707 0.781502)
(1.43244 1.46525 0.802948)
(1.43669 1.41151 0.796966)
(1.46058 1.43715 0.836523)
(1.43485 1.51911 0.885475)
(1.45929 1.49498 0.894431)
(1.40532 1.54477 0.870848)
(1.47484 1.46394 0.881331)
(0.939664 1.54106 0.677944)
(0.947603 1.44529 0.635415)
(0.929054 1.49658 0.657103)
(0.970441 1.54637 0.676993)
(0.996813 1.31666 0.582972)
(0.984258 1.36979 0.595717)
(0.988876 1.43361 0.638716)
(1.01403 1.24804 0.604197)
(1.00474 1.28367 0.592122)
(1.02816 1.31763 0.600784)
(1.04965 1.19417 0.641812)
(1.0189 1.21984 0.613632)
(1.04967 1.25351 0.623767)
(1.09418 1.20616 0.646784)
(1.18746 1.40756 0.644207)
(1.15298 1.43647 0.648189)
(1.13282 1.3737 0.6212)
(1.0944 1.34228 0.613362)
(1.1365 1.33035 0.618353)
(1.06772 1.28842 0.618426)
(1.06646 1.33618 0.610363)
(1.06017 1.38188 0.615581)
(1.07808 1.50181 0.67468)
(1.06929 1.44671 0.648511)
(1.11621 1.46372 0.659938)
(1.17054 1.48439 0.677742)
(1.02386 1.43445 0.641715)
(1.0368 1.59822 0.713404)
(1.05382 1.54089 0.678847)
(1.00811 1.54151 0.675604)
(1.13948 1.27938 0.621122)
(1.17629 1.29894 0.615019)
(1.21145 1.27032 0.613731)
(1.21243 1.32261 0.617583)
(1.08908 1.26468 0.629093)
(1.12635 1.2437 0.631238)
(1.1396 1.21868 0.62571)
(1.2018 1.22684 0.619784)
(1.24232 1.23963 0.647044)
(1.16146 1.20883 0.619858)
(1.21613 1.37294 0.634811)
(1.22889 1.43005 0.655561)
(1.25263 1.33957 0.633611)
(1.08529 1.60574 0.84864)
(1.22422 1.49933 0.69611)
(0.995669 1.49756 0.659351)
(1.264 1.60573 0.873721)
(1.28338 1.52113 0.724407)
(1.25751 1.47748 0.686831)
(1.28412 1.44453 0.67288)
(1.32625 1.53563 0.753083)
(1.28999 1.56644 0.762799)
(1.28862 1.59475 0.815765)
(1.33425 1.43495 0.689945)
(1.38084 1.40001 0.724992)
(1.36638 1.46923 0.727216)
(1.37655 1.3416 0.738885)
(1.40957 1.37651 0.765831)
(1.36169 1.5191 0.761052)
(1.30755 1.38341 0.663698)
(1.32647 1.3455 0.680873)
(1.28435 1.35791 0.648664)
(1.3447 1.32105 0.713775)
(1.32208 1.2992 0.699785)
(1.36569 1.57258 0.861094)
(1.33247 1.58664 0.849937)
(1.30184 1.59639 0.863404)
(1.35876 1.55905 0.808257)
(1.27783 1.30544 0.648204)
(1.26993 1.25983 0.665723)
(1.29394 1.27688 0.683802)
(0.880194 1.2325 1.23819)
(0.742528 1.14243 1.20608)
(0.742372 1.2047 1.15441)
(0.918731 1.31405 1.25127)
(0.780858 1.27363 1.1269)
(0.843101 1.29001 1.26651)
(0.821188 1.18254 1.25907)
(0.790324 1.24303 1.22229)
(0.812239 1.31224 1.20188)
(0.896618 1.23221 1.17217)
(0.705416 1.10201 1.11026)
(0.878009 1.35799 1.24694)
(0.847302 1.35522 1.15877)
(0.71123 1.0647 1.1318)
(0.856561 1.34516 1.084)
(0.901586 1.36764 1.03421)
(0.891449 1.37733 1.08729)
(0.884536 1.38123 1.12293)
(0.892896 1.38647 1.15732)
(0.848782 1.34958 1.12349)
(0.781645 1.16583 1.24203)
(0.806715 1.21928 1.24829)
(0.771743 1.19524 1.21501)
(0.752544 1.18706 1.17974)
(0.773561 1.233 1.18906)
(0.728167 1.16208 1.13765)
(0.723577 1.12812 1.15999)
(0.724371 1.10525 1.17138)
(0.707791 1.08528 1.11786)
(0.807766 1.13404 1.25134)
(0.76621 1.11765 1.23582)
(0.738832 1.09521 1.20274)
(0.724577 1.05977 1.16633)
(0.788744 1.26721 1.17898)
(0.798692 1.29486 1.16426)
(0.762175 1.24083 1.14249)
(0.754792 1.21975 1.08781)
(0.736256 1.18884 1.10744)
(0.828578 1.33271 1.18056)
(0.815275 1.31618 1.14558)
(0.792587 1.27149 1.07147)
(0.816245 1.30848 1.10867)
(0.832718 1.31398 1.04724)
(0.876949 1.1936 1.18719)
(0.887543 1.19397 1.16303)
(0.891289 1.236 1.20524)
(0.913446 1.20997 1.14896)
(0.912489 1.27635 1.21198)
(0.897368 1.27609 1.24281)
(0.914011 1.25407 1.16609)
(0.933851 1.29906 1.20753)
(0.83932 1.23896 1.25992)
(0.817424 1.2707 1.24694)
(0.80658 1.28294 1.21114)
(0.829015 1.31184 1.23593)
(0.699391 1.07631 1.07751)
(0.701618 1.10507 1.07527)
(0.702109 1.05947 1.08522)
(0.7214 1.15606 1.10456)
(0.863382 1.17811 1.21963)
(0.855243 1.20852 1.25145)
(0.871683 1.26687 1.26131)
(0.842424 1.15646 1.24286)
(0.884476 1.30666 1.26644)
(0.94541 1.34641 1.24311)
(0.90891 1.38518 1.20057)
(0.929249 1.37262 1.24013)
(0.903908 1.34092 1.26145)
(0.866352 1.36233 1.19262)
(0.709674 1.03956 1.0979)
(0.8458 1.3415 1.22259)
(0.858016 1.32608 1.25975)
(1.03971 1.4324 1.12556)
(1.20192 1.34523 1.07625)
(1.20469 1.37133 1.05063)
(1.14651 1.35853 1.11128)
(1.14671 1.3964 1.18126)
(1.09744 1.32662 1.1946)
(1.1823 1.39918 1.12459)
(1.16207 1.42114 1.07254)
(1.06154 1.35389 1.22864)
(1.27396 1.35055 1.04772)
(1.12749 1.43739 1.14529)
(1.07462 1.41213 1.17122)
(1.09207 1.44338 1.07708)
(1.01427 1.4353 1.05563)
(1.02246 1.2868 1.20441)
(1.18535 1.39424 1.05895)
(1.18832 1.38521 1.08365)
(1.16925 1.41465 1.10086)
(1.13986 1.43204 1.11008)
(1.15751 1.423 1.13723)
(1.17951 1.36819 1.08943)
(1.1615 1.34634 1.0878)
(1.17195 1.37849 1.11761)
(1.20011 1.35908 1.06545)
(1.15588 1.38211 1.14742)
(1.16637 1.3993 1.15085)
(1.14239 1.41893 1.1631)
(0.972828 1.42283 1.0691)
(0.980582 1.4211 1.02424)
(0.996378 1.41897 1.13429)
(0.985334 1.42465 1.10182)
(1.0247 1.43424 1.09055)
(1.20673 1.31597 1.08715)
(1.25216 1.33086 1.07327)
(1.2338 1.3455 1.06203)
(1.28848 1.33821 1.0594)
(1.30854 1.34462 1.02548)
(1.05114 1.26841 1.16411)
(1.0759 1.28409 1.14466)
(1.10074 1.30867 1.11756)
(1.14829 1.30917 1.09508)
(1.12134 1.35898 1.15031)
(1.02317 1.25519 1.16494)
(0.976602 1.25005 1.16587)
(1.06446 1.29875 1.20703)
(1.01594 1.36325 1.21538)
(1.00394 1.3248 1.21547)
(1.04309 1.31886 1.22424)
(0.98199 1.29126 1.19221)
(1.06858 1.39044 1.19531)
(1.02222 1.39322 1.18623)
(1.08742 1.34109 1.2214)
(1.10478 1.38523 1.20207)
(1.11399 1.4094 1.17926)
(1.12568 1.37256 1.18838)
(1.0416 1.43777 1.03049)
(1.01511 1.41028 1.15803)
(1.05852 1.42163 1.14299)
(1.06618 1.43827 1.10182)
(1.05865 1.43957 1.0666)
(1.10417 1.43869 1.11091)
(1.08661 1.43302 1.13171)
(1.10607 1.42396 1.15635)
(1.27303 1.35336 1.02426)
(1.22642 1.35462 1.04469)
(1.22872 1.35838 1.0243)
(1.08311 1.43951 1.04082)
(1.12467 1.43504 1.04178)
(1.18305 1.40075 1.0312)
(1.15627 1.42181 1.03801)
(1.12868 1.43397 1.07642)
(1.20343 1.37819 1.02493)
(1.06478 1.35808 0.784678)
(1.21346 1.33343 0.919388)
(1.11371 1.42528 0.90969)
(1.07664 1.30821 0.822756)
(1.12081 1.40929 0.852471)
(1.18451 1.36911 0.894874)
(1.05019 1.40605 0.806317)
(1.13745 1.36604 0.851579)
(1.02882 1.44191 0.850799)
(1.1314 1.32483 0.895279)
(1.24555 1.35923 0.951782)
(1.01305 1.27636 0.804114)
(1.18442 1.4007 0.94706)
(1.04145 1.43914 0.94277)
(0.973882 1.43144 0.870344)
(0.987591 1.42825 0.834451)
(0.999032 1.42666 0.969897)
(0.989734 1.43281 0.916611)
(1.0264 1.44404 0.89263)
(1.04917 1.4266 0.833216)
(1.00055 1.41609 0.806781)
(1.01682 1.39506 0.7831)
(1.008 1.32369 0.781006)
(1.03654 1.31497 0.780238)
(0.977814 1.28114 0.815032)
(1.04621 1.28762 0.803402)
(1.07584 1.33421 0.794582)
(1.13253 1.38733 0.850838)
(1.10148 1.37006 0.821606)
(1.09334 1.38991 0.836567)
(1.10726 1.34776 0.838242)
(1.0295 1.36918 0.778431)
(1.05857 1.38398 0.799989)
(1.08662 1.40771 0.840789)
(1.0575 1.43656 0.977281)
(1.08579 1.42842 0.857097)
(1.07744 1.4358 0.884098)
(1.11801 1.41829 0.879773)
(1.07592 1.43359 0.926727)
(0.981557 1.24307 0.833109)
(1.01878 1.24489 0.841093)
(1.04133 1.257 0.849118)
(1.15773 1.34775 0.902801)
(1.13243 1.3474 0.878856)
(1.1592 1.36611 0.879342)
(1.0986 1.32553 0.864923)
(1.15504 1.38806 0.871896)
(1.16634 1.32364 0.911701)
(1.18152 1.34767 0.921399)
(1.2128 1.31026 0.903477)
(1.16135 1.29931 0.897512)
(1.10871 1.28998 0.884643)
(1.07246 1.27489 0.865071)
(1.19841 1.3611 0.933546)
(1.22496 1.34781 0.937381)
(1.26687 1.34315 0.941721)
(1.25421 1.32788 0.92047)
(1.10583 1.43 0.980658)
(1.19669 1.39575 0.974091)
(1.16473 1.41206 0.974367)
(1.14736 1.4099 0.932246)
(1.1286 1.42083 0.960969)
(1.26121 1.3582 0.973925)
(1.22297 1.37007 0.976415)
(1.21082 1.3749 0.953556)
(1.18434 1.38558 0.917388)
(1.29259 1.3472 0.970982)
(1.15474 1.39839 0.899127)
(0.766035 1.25487 0.882894)
(0.688636 1.12703 0.888916)
(0.848485 1.28114 0.736768)