/*--------------------------------*- C++ -*----------------------------------*\
| =========                 |                                                 |
| \\      /  F ield         | OpenFOAM: The Open Source CFD Toolbox           |
|  \\    /   O peration     | Version:  v1806                                 |
|   \\  /    A nd           | Web:      www.OpenFOAM.com                      |
|    \\/     M anipulation  |                                                 |
\*---------------------------------------------------------------------------*/
FoamFile
{
    version     2.0;
    format      ascii;
    class       volVectorField;
    location    "0.0725";
    object      U_0;
}
// * * * * * * * * * * * * * * * * * * * * * * * * * * * * * * * * * * * * * //

dimensions      [0 1 -1 0 0 0 0];


internalField   nonuniform List<vector> 
64000
(
(-0.00917379 -0.010201 -0.00673012)
(0.0137373 -0.0104584 -0.00416062)
(0.0199191 -0.00357156 0.000884773)
(0.0236929 -0.00350651 0.00136205)
(0.024403 -0.00257702 0.00183613)
(0.024437 -0.00279899 0.00263617)
(0.0238766 -0.00348391 0.00290596)
(0.0204909 -0.00395056 0.00309089)
(0.0191036 -0.00493097 0.00452932)
(0.0119569 -0.00440523 0.0038807)
(0.00665831 -0.00532999 0.00636806)
(-0.00665143 -0.00903756 0.0062159)
(-0.0267922 -0.0127464 0.00643953)
(-0.0503438 -0.0178885 0.0039944)
(-0.0807497 -0.0181671 0.00507562)
(-0.116128 -0.0160482 0.00267291)
(-0.147146 0.000706422 0.00201254)
(-0.190759 -0.00437351 -0.00245804)
(-0.192879 -0.00993909 0.00584364)
(-0.251819 -0.0287183 -0.0158067)
(-0.217311 -0.0233949 -0.0242119)
(-0.105285 -0.0246602 -0.0393439)
(-0.103781 -0.00998811 -0.026646)
(-0.0994743 -0.00410036 -0.0372393)
(-0.114449 0.00253942 -0.0479711)
(-0.109331 0.0109262 -0.0571166)
(-0.0969424 0.0208113 -0.0619041)
(-0.0623222 0.0322286 -0.0573224)
(-0.0298179 0.0382452 -0.0532021)
(0.0135772 0.0528475 -0.0355376)
(0.0615622 0.0455105 -0.0320666)
(0.09502 0.0375851 -0.0233273)
(0.111001 0.0265709 -0.0117644)
(0.106659 0.0130718 -0.00435168)
(0.0926675 0.00479238 0.0017146)
(0.0732172 -0.00335088 0.00429388)
(0.0527003 -0.00692424 0.00590649)
(0.0315742 -0.00603121 0.00676351)
(0.0168758 -0.00442291 0.00713412)
(0.00237538 -0.00282771 0.00498677)
(-0.00684136 0.000266223 -0.00310369)
(0.00904536 -0.0167979 -0.00282563)
(0.0245124 -0.0115898 -0.00106978)
(0.0336539 -0.00836165 -0.000666731)
(0.0388755 -0.00345231 -0.000669971)
(0.0387739 -0.000957437 -0.00137787)
(0.0371235 0.0030961 -0.00290119)
(0.0296419 0.00481318 -0.00271604)
(0.0227201 0.0105295 -0.00701947)
(0.00499835 0.0161719 -0.0043928)
(-0.0193606 0.0249115 -0.00808465)
(-0.0562729 0.0313059 0.000328826)
(-0.104398 0.0425538 -0.00402733)
(-0.156218 0.0633809 -0.00686798)
(-0.215589 0.076296 -0.0110506)
(-0.273407 0.0852425 -0.0182121)
(-0.355761 0.0928983 -0.0433941)
(-0.460328 0.0952207 -0.0583675)
(-0.511259 0.100975 -0.0758332)
(-0.593873 0.0984019 -0.0992824)
(-0.546373 0.125499 -0.0997597)
(-0.408323 0.140414 -0.126962)
(-0.387994 0.185624 -0.137772)
(-0.370724 0.211127 -0.146719)
(-0.358182 0.236518 -0.158006)
(-0.320428 0.258358 -0.164005)
(-0.269718 0.279068 -0.165329)
(-0.19976 0.29512 -0.153705)
(-0.122774 0.300809 -0.133664)
(-0.0527934 0.307774 -0.109789)
(0.0134527 0.289556 -0.0753878)
(0.0778877 0.259465 -0.0472093)
(0.113824 0.209216 -0.0387639)
(0.125949 0.159285 -0.0266709)
(0.120275 0.108266 -0.0127881)
(0.100839 0.0685717 -0.0052423)
(0.0807127 0.040029 -0.000812276)
(0.0553229 0.0254844 0.000226741)
(0.0330854 0.0156953 0.00181259)
(0.00822885 0.00725951 0.00230829)
(-0.000614851 -0.00745075 0.00151548)
(0.0150343 -0.0231835 -0.00134678)
(0.0321418 -0.0183619 -0.00227707)
(0.0423245 -0.00601245 -0.00298269)
(0.0445525 0.00474504 -0.00494732)
(0.0418123 0.0160545 -0.00647737)
(0.0341353 0.0316183 -0.0077494)
(0.0200909 0.0457106 -0.00950655)
(0.00404862 0.0695981 -0.00201095)
(-0.0262855 0.089917 -0.00475167)
(-0.0645749 0.117294 -0.00815379)
(-0.11774 0.149976 -0.0133027)
(-0.172582 0.183648 -0.0173137)
(-0.251074 0.210892 -0.0321188)
(-0.350526 0.229886 -0.0349213)
(-0.446527 0.243481 -0.0423124)
(-0.534076 0.248266 -0.0587285)
(-0.620823 0.269194 -0.0767195)
(-0.666198 0.298395 -0.0944355)
(-0.733173 0.331796 -0.116247)
(-0.671922 0.37015 -0.1089)
(-0.507706 0.398799 -0.123919)
(-0.463716 0.455539 -0.126547)
(-0.435748 0.487984 -0.123478)
(-0.414049 0.520069 -0.125688)
(-0.372358 0.542442 -0.123888)
(-0.321181 0.556444 -0.119385)
(-0.256609 0.560401 -0.104635)
(-0.189025 0.550361 -0.082987)
(-0.124822 0.53094 -0.0593123)
(-0.0683744 0.501133 -0.0399455)
(-0.0261391 0.452712 -0.0277682)
(0.00840044 0.379818 -0.0157626)
(0.0310845 0.307309 -0.0080919)
(0.042488 0.227642 -0.011012)
(0.0483915 0.162624 -0.0108509)
(0.0480171 0.114465 -0.00705142)
(0.0387974 0.0770131 -0.0047879)
(0.0274604 0.0509336 -0.000995119)
(0.00813462 0.024092 0.00189277)
(0.000250421 -0.0120109 0.00238306)
(0.0171637 -0.0253866 -0.00113521)
(0.0386527 -0.0124497 -0.00267559)
(0.0466673 0.00579423 -0.00615622)
(0.0442129 0.029557 -0.00670732)
(0.0394181 0.0547917 -0.00873722)
(0.0261923 0.0900704 -0.00869639)
(0.00672857 0.122647 -0.00545934)
(-0.0204074 0.167675 -0.0104805)
(-0.0657561 0.208014 -0.0128181)
(-0.11171 0.251952 -0.0170571)
(-0.177064 0.286413 -0.0242986)
(-0.26377 0.313994 -0.0267534)
(-0.355125 0.330012 -0.0287409)
(-0.441641 0.351277 -0.0309517)
(-0.520428 0.376152 -0.0367631)
(-0.592119 0.405984 -0.0509824)
(-0.665522 0.435358 -0.060176)
(-0.696546 0.475218 -0.0693443)
(-0.7487 0.518376 -0.077224)
(-0.675941 0.5522 -0.0509264)
(-0.49122 0.571703 -0.0465942)
(-0.433115 0.614357 -0.0416758)
(-0.405728 0.623394 -0.0295299)
(-0.385591 0.636378 -0.0264061)
(-0.353256 0.637663 -0.0210765)
(-0.313862 0.629987 -0.0176178)
(-0.266225 0.611995 -0.0103798)
(-0.216235 0.586666 0.00141875)
(-0.171661 0.554842 0.00861832)
(-0.139671 0.515306 0.0139752)
(-0.115567 0.471391 0.0124476)
(-0.0926136 0.415272 0.00706573)
(-0.0704502 0.350731 -0.00120395)
(-0.0481864 0.271243 -0.00498585)
(-0.0195178 0.202329 -0.0101621)
(0.000386058 0.146792 -0.0102743)
(0.00926244 0.110284 -0.00767327)
(0.0172988 0.0767158 -0.00319775)
(0.00648466 0.0359972 0.00156414)
(0.000754988 -0.0126614 0.000763035)
(0.023448 -0.0152227 -0.00451829)
(0.0471374 0.00247318 -0.00686737)
(0.0551376 0.0375225 -0.00803123)
(0.0521942 0.0764703 -0.00710353)
(0.0460776 0.1226 -0.014856)
(0.0265896 0.178692 -0.012068)
(-0.000706172 0.237396 -0.00580012)
(-0.033527 0.291951 -0.0076468)
(-0.087798 0.335641 -0.0097128)
(-0.15145 0.369274 -0.0124494)
(-0.231414 0.388408 -0.0150932)
(-0.304479 0.411132 -0.0160361)
(-0.378567 0.437741 -0.0212657)
(-0.452477 0.468729 -0.019589)
(-0.519375 0.501361 -0.0211598)
(-0.57767 0.529469 -0.0242061)
(-0.631316 0.566234 -0.0209878)
(-0.643091 0.609061 -0.0173388)
(-0.681766 0.653884 -0.0260207)
(-0.609739 0.682148 0.00102843)
(-0.418518 0.688055 0.01448)
(-0.356494 0.701509 0.0253389)
(-0.338118 0.678615 0.0364875)
(-0.329758 0.660846 0.0376196)
(-0.316807 0.635736 0.0436944)
(-0.29784 0.603424 0.0449345)
(-0.268451 0.567582 0.0489821)
(-0.239115 0.526911 0.0423658)
(-0.214717 0.488093 0.0346758)
(-0.194134 0.444021 0.0247853)
(-0.184735 0.411111 0.0173992)
(-0.177469 0.375156 0.00952035)
(-0.173023 0.344339 -0.0023561)
(-0.151515 0.279155 -0.0127473)
(-0.1034 0.208599 -0.0138402)
(-0.0519826 0.160533 -0.0133183)
(-0.0165863 0.129809 -0.0114082)
(0.00303536 0.0951395 -0.00575171)
(0.00360091 0.045168 0.00152376)
(0.00549169 -0.00867291 -0.000286427)
(0.0290207 -0.000283545 -0.00553318)
(0.0615466 0.0255645 -0.00549375)
(0.0749106 0.0774683 -0.00935829)
(0.0685928 0.135214 -0.0142274)
(0.0640673 0.199875 -0.0183418)
(0.0457558 0.274925 -0.0136894)
(0.00756514 0.323923 -0.00349886)
(-0.0480891 0.366798 -0.00523598)
(-0.119951 0.399741 -0.00706748)
(-0.186652 0.429434 -0.00911926)
(-0.249424 0.459235 -0.00932196)
(-0.308992 0.494058 -0.00744696)
(-0.366715 0.521927 -0.00454389)
(-0.418278 0.55225 0.00174986)
(-0.469358 0.580776 0.00667553)
(-0.503874 0.611363 0.00835209)
(-0.538074 0.643365 0.00866099)
(-0.544652 0.688908 0.0105429)
(-0.571105 0.722493 0.00879363)
(-0.501355 0.74711 0.0346421)
(-0.326431 0.69909 0.049661)
(-0.280728 0.681664 0.0598674)
(-0.283646 0.628303 0.0735097)
(-0.290732 0.586446 0.0767074)
(-0.296091 0.544898 0.0770618)
(-0.293472 0.501662 0.0744036)
(-0.284328 0.460982 0.0684844)
(-0.269069 0.413933 0.0660867)
(-0.258683 0.376351 0.0457915)
(-0.248979 0.333479 0.0349878)
(-0.238601 0.303018 0.0208772)
(-0.225378 0.278247 0.00912661)
(-0.233922 0.265532 -0.0024417)
(-0.239602 0.241444 -0.015113)
(-0.17443 0.192575 -0.013795)
(-0.0924715 0.161443 -0.0149355)
(-0.0402685 0.134876 -0.0117396)
(-0.00443851 0.103186 -0.00662857)
(0.00258903 0.048376 0.00204074)
(0.00809777 -0.00314719 0.000778556)
(0.0387623 0.0116234 -0.00999262)
(0.0811664 0.0515814 -0.00960257)
(0.105633 0.106156 -0.0112368)
(0.10137 0.168741 -0.0145975)
(0.0981262 0.243943 -0.017584)
(0.0521778 0.302488 -0.00905726)
(-0.0131918 0.334997 0.0026284)
(-0.0603742 0.378481 -0.00226468)
(-0.116989 0.419997 -0.00298328)
(-0.166094 0.466408 -0.00312438)
(-0.217058 0.508668 -0.00138282)
(-0.263768 0.547213 0.00177051)
(-0.310366 0.580827 0.00715412)
(-0.350867 0.613227 0.0143775)
(-0.385132 0.638571 0.0199656)
(-0.410076 0.6652 0.0258177)
(-0.426634 0.678625 0.0292756)
(-0.420988 0.703403 0.0259426)
(-0.442389 0.718658 0.0170466)
(-0.431199 0.73717 0.0315742)
(-0.290167 0.632755 0.0528191)
(-0.230757 0.583353 0.0569629)
(-0.250514 0.523499 0.0701381)
(-0.267468 0.48023 0.0711235)
(-0.289116 0.442546 0.0710683)
(-0.302296 0.406897 0.0672705)
(-0.309518 0.373051 0.0605693)
(-0.307715 0.336525 0.0479415)
(-0.308942 0.302491 0.0328099)
(-0.306274 0.269943 0.01991)
(-0.298211 0.242171 0.00799181)
(-0.285755 0.22308 -0.00151985)
(-0.283342 0.207377 -0.00821103)
(-0.287281 0.217667 -0.0176382)
(-0.226345 0.193096 -0.0204862)
(-0.127294 0.16652 -0.0217089)
(-0.0558838 0.145861 -0.0167233)
(-0.00973924 0.111786 -0.0105625)
(0.002484 0.052875 0.000306501)
(0.00722033 0.00436304 -0.00303543)
(0.0453903 0.0308673 -0.0132954)
(0.0996308 0.0801 -0.0136386)
(0.124813 0.135475 -0.0108783)
(0.12911 0.193958 -0.0117935)
(0.112346 0.265159 -0.0118541)
(0.0509286 0.293822 -0.000733512)
(0.00340731 0.346742 0.00534625)
(-0.0313446 0.393521 0.00154114)
(-0.0812379 0.446871 0.00292822)
(-0.123639 0.490546 0.00403218)
(-0.166251 0.527571 0.0100696)
(-0.202206 0.560451 0.0162082)
(-0.232851 0.58732 0.0236149)
(-0.261271 0.61216 0.0280948)
(-0.289306 0.627578 0.0322443)
(-0.309173 0.638621 0.0348411)
(-0.327229 0.639671 0.034169)
(-0.326668 0.634109 0.0310282)
(-0.342819 0.615441 0.0145709)
(-0.383117 0.6182 0.0153883)
(-0.293892 0.540379 0.0340851)
(-0.219489 0.456881 0.0368055)
(-0.239509 0.417819 0.0482616)
(-0.263698 0.380831 0.0523825)
(-0.294869 0.356637 0.0539183)
(-0.318316 0.330124 0.0549109)
(-0.3364 0.304768 0.0480915)
(-0.345792 0.276528 0.0392873)
(-0.35407 0.246658 0.0175786)
(-0.355718 0.215085 0.00969168)
(-0.346509 0.190652 0.000542695)
(-0.332659 0.177436 -0.00753765)
(-0.317163 0.169459 -0.0112606)
(-0.325453 0.19103 -0.0207301)
(-0.276291 0.196163 -0.020624)
(-0.161227 0.1719 -0.0224111)
(-0.0742669 0.154993 -0.0176073)
(-0.014851 0.11902 -0.0102512)
(0.00365208 0.0564656 0.00106177)
(0.00629326 0.0148072 -0.00568312)
(0.0534469 0.0612902 -0.0179789)
(0.119292 0.117655 -0.0193897)
(0.150738 0.172785 -0.0131758)
(0.15812 0.234283 -0.0141838)
(0.125698 0.282432 -0.0109628)
(0.0689899 0.320892 -0.0021137)
(0.0318667 0.377349 0.00531783)
(0.00352066 0.415315 0.0113396)
(-0.0315905 0.455817 0.0112613)
(-0.071252 0.494062 0.0154944)
(-0.102655 0.520704 0.0210058)
(-0.128668 0.543242 0.0280243)
(-0.153688 0.555731 0.0341336)
(-0.177538 0.559798 0.0362233)
(-0.202643 0.556592 0.0368094)
(-0.225252 0.549563 0.0355681)
(-0.251724 0.535192 0.0310204)
(-0.272835 0.521333 0.0249219)
(-0.292299 0.491694 0.00998265)
(-0.344285 0.480523 -0.000212151)
(-0.316766 0.452144 0.0100255)
(-0.239976 0.353456 0.0185224)
(-0.238281 0.336884 0.0246087)
(-0.268026 0.310883 0.0324941)
(-0.302792 0.2967 0.0370179)
(-0.335795 0.278624 0.0421762)
(-0.361128 0.256603 0.0386502)
(-0.380761 0.232862 0.024091)
(-0.398331 0.199808 0.00930081)
(-0.40142 0.175331 -0.000487105)
(-0.388977 0.152345 -0.00575286)
(-0.37404 0.138795 -0.011688)
(-0.347424 0.140334 -0.0194086)
(-0.337974 0.153209 -0.0233864)
(-0.305462 0.190621 -0.0283505)
(-0.196865 0.173998 -0.0264588)
(-0.0896426 0.164064 -0.02453)
(-0.0198702 0.128713 -0.0136227)
(0.0045234 0.0622615 -0.00110741)
(0.00774356 0.0315379 -0.00864777)
(0.0625015 0.10036 -0.0256889)
(0.137445 0.160951 -0.0249022)
(0.175874 0.214556 -0.0154211)
(0.176463 0.266783 -0.0146361)
(0.143959 0.299402 -0.0133974)
(0.102495 0.347572 -0.00274938)
(0.0698219 0.393995 0.00931142)
(0.0390196 0.430996 0.015981)
(0.0149352 0.457734 0.0263888)
(-0.0121983 0.479703 0.0232158)
(-0.0432761 0.492845 0.0335475)
(-0.0661863 0.501038 0.0384615)
(-0.0892033 0.491539 0.0439782)
(-0.112952 0.476228 0.0435332)
(-0.13956 0.453489 0.0403774)
(-0.167152 0.429945 0.0351626)
(-0.197628 0.404828 0.0278197)
(-0.227933 0.388531 0.0194985)
(-0.261463 0.371299 0.00452552)
(-0.316669 0.357061 -0.0077875)
(-0.339942 0.356712 -0.00715464)
(-0.270792 0.291918 0.00736256)
(-0.235598 0.281938 0.0101841)
(-0.269317 0.264615 0.0206154)
(-0.303995 0.256676 0.0281834)
(-0.343446 0.237606 0.0371763)
(-0.37596 0.220631 0.0320942)
(-0.404207 0.190682 0.0247099)
(-0.420142 0.164271 0.00969209)
(-0.425685 0.136275 0.0110865)
(-0.421695 0.114997 0.0174917)
(-0.4022 0.0955659 0.0145341)
(-0.378393 0.0974249 0.00895085)
(-0.358791 0.111155 -0.0129622)
(-0.328148 0.159589 -0.0242166)
(-0.227218 0.171558 -0.0248051)
(-0.106961 0.163935 -0.0215066)
(-0.0256824 0.13652 -0.0126187)
(0.00564721 0.0664663 8.8242e-05)
(0.00878666 0.0529016 -0.0112418)
(0.0705216 0.142427 -0.0319649)
(0.15492 0.206919 -0.0311257)
(0.197309 0.255052 -0.017913)
(0.194633 0.291906 -0.0118479)
(0.16981 0.326429 -0.0132209)
(0.141 0.367049 -0.00271791)
(0.110155 0.403858 0.0050857)
(0.0847615 0.432045 0.0133307)
(0.0567708 0.45271 0.0288675)
(0.0284028 0.457385 0.0372846)
(0.0116664 0.458181 0.0471248)
(-0.0122197 0.445181 0.0469244)
(-0.0421702 0.424151 0.0501268)
(-0.0686323 0.395587 0.0477791)
(-0.0998294 0.364151 0.0408816)
(-0.132547 0.334238 0.0325366)
(-0.167093 0.307603 0.023913)
(-0.201087 0.292732 0.0152587)
(-0.240785 0.277608 0.00238684)
(-0.293477 0.270208 -0.00716904)
(-0.33161 0.275207 -0.0112933)
(-0.27414 0.260598 0.000725493)
(-0.229262 0.245989 0.00100241)
(-0.257709 0.234015 0.0133932)
(-0.296162 0.222014 0.0222051)
(-0.340674 0.206528 0.0313429)
(-0.378051 0.183854 0.0297974)
(-0.410062 0.157794 0.0193962)
(-0.433526 0.128203 0.0303794)
(-0.447868 0.093781 0.0315943)
(-0.449921 0.0655156 0.0186679)
(-0.436815 0.0515864 0.0133539)
(-0.403422 0.0481765 0.00588093)
(-0.366247 0.0635283 -0.000221392)
(-0.335608 0.109505 -0.0219889)
(-0.251003 0.150865 -0.028393)
(-0.124504 0.159957 -0.0234968)
(-0.0285309 0.140267 -0.0150077)
(0.00488526 0.0706239 -0.00153214)
(0.00944306 0.0724066 -0.0118566)
(0.0766141 0.183756 -0.0358011)
(0.167482 0.250716 -0.0341937)
(0.210268 0.287166 -0.0176096)
(0.214203 0.315898 -0.00984508)
(0.199133 0.347805 -0.00681795)
(0.175924 0.379103 -0.00522373)
(0.149012 0.403327 0.00820621)
(0.122383 0.422919 0.0129958)
(0.0982668 0.431256 0.0252955)
(0.0753214 0.433813 0.036461)
(0.0470775 0.422385 0.0519241)
(0.0219529 0.3956 0.0554259)
(-0.00269175 0.361582 0.0548424)
(-0.0349113 0.330045 0.0480897)
(-0.0695603 0.297223 0.0377895)
(-0.106896 0.270355 0.0267938)
(-0.141053 0.248751 0.0179431)
(-0.179599 0.240213 0.00831425)
(-0.223524 0.228545 -0.000222329)
(-0.270156 0.227099 -0.00783692)
(-0.304643 0.229946 -0.0112489)
(-0.256123 0.243831 -0.0024831)
(-0.212627 0.224805 -0.00318136)
(-0.23864 0.207335 0.0084786)
(-0.274356 0.190421 0.0180323)
(-0.322013 0.172115 0.0252768)
(-0.363046 0.149039 0.0210758)
(-0.399563 0.121523 0.0378619)
(-0.432627 0.0867891 0.0452191)
(-0.454564 0.0537123 0.0403436)
(-0.456227 0.0280648 0.051359)
(-0.449162 0.00468711 0.0400002)
(-0.433023 0.00106237 0.0340959)
(-0.396418 0.0107441 0.0249579)
(-0.352303 0.0573816 0.00385911)
(-0.263709 0.111819 -0.0249371)
(-0.138425 0.148347 -0.0249403)
(-0.0345482 0.138771 -0.0142827)
(0.00601216 0.0739357 -0.00148946)
(0.0100894 0.0925597 -0.011334)
(0.0802653 0.223269 -0.038565)
(0.17173 0.290909 -0.0373307)
(0.220732 0.319601 -0.0187592)
(0.235768 0.341883 -0.00591899)
(0.228097 0.365137 0.000252385)
(0.207044 0.386667 0.0047002)
(0.18239 0.400476 0.00571224)
(0.161039 0.409668 0.0163227)
(0.137566 0.411048 0.0263939)
(0.110629 0.401306 0.0356814)
(0.0838937 0.381993 0.0426149)
(0.0508303 0.353461 0.0552365)
(0.0204645 0.316639 0.0551414)
(-0.00823522 0.277182 0.0467864)
(-0.0454915 0.250862 0.03249)
(-0.0841672 0.226107 0.0206517)
(-0.117599 0.210742 0.0123573)
(-0.156302 0.20365 0.00323522)
(-0.198625 0.198581 -0.00181966)
(-0.239465 0.198155 -0.00780874)
(-0.258247 0.205537 -0.00807177)
(-0.217567 0.236583 -0.00268831)
(-0.194169 0.210961 -0.00330867)
(-0.21299 0.181852 0.00487489)
(-0.246972 0.158384 0.0131125)
(-0.291762 0.132847 0.0178871)
(-0.334706 0.11042 0.0304985)
(-0.378975 0.0776757 0.0431986)
(-0.416592 0.0465384 0.0466049)
(-0.439427 0.0137575 0.0661688)
(-0.465528 -0.023857 0.0469773)
(-0.473015 -0.0651015 0.0353962)
(-0.455451 -0.0859186 0.014403)
(-0.415303 -0.0733444 0.00443253)
(-0.370593 -0.024497 0.00920701)
(-0.284924 0.0606374 -0.00238186)
(-0.152566 0.116955 -0.0310822)
(-0.0394859 0.131279 -0.0144081)
(0.00637342 0.0752544 -0.003073)
(0.00904267 0.0991869 -0.010391)
(0.0786938 0.247196 -0.0407544)
(0.172343 0.318597 -0.0414953)
(0.227129 0.344528 -0.0219134)
(0.252839 0.358334 -0.00350397)
(0.252306 0.36878 0.00639365)
(0.233291 0.380297 0.0125014)
(0.21043 0.388499 0.0160878)
(0.190182 0.393644 0.0190013)
(0.167383 0.38784 0.0230834)
(0.143483 0.372933 0.0291719)
(0.111871 0.348173 0.0397407)
(0.0781231 0.315338 0.0417527)
(0.0417371 0.281752 0.0494358)
(0.0113843 0.244031 0.0443087)
(-0.0208782 0.214316 0.0254316)
(-0.0623757 0.195673 0.0149154)
(-0.0921581 0.18353 0.00768495)
(-0.128042 0.176873 -0.000206044)
(-0.166801 0.173056 -0.00309832)
(-0.196881 0.172901 -0.00564733)
(-0.19259 0.200178 -0.000801274)
(-0.169642 0.216178 -0.00199238)
(-0.175877 0.188327 -0.00120507)
(-0.191538 0.155192 0.00246806)
(-0.215611 0.12053 0.00925557)
(-0.254621 0.0961519 0.0136511)
(-0.296483 0.066458 0.0316473)
(-0.340565 0.0395247 0.03946)
(-0.378748 0.00931729 0.0606224)
(-0.427103 -0.0327281 0.0452492)
(-0.468877 -0.0862202 0.0382724)
(-0.48674 -0.129873 0.0245948)
(-0.474761 -0.162113 0.0139619)
(-0.434177 -0.165317 -0.00552171)
(-0.373065 -0.123677 -0.00683879)
(-0.290983 -0.0211918 -0.000524823)
(-0.171404 0.0764757 -0.0168529)
(-0.0435347 0.11746 -0.0198859)
(0.00723488 0.0757498 -0.00204186)
(0.00780551 0.109402 -0.00897562)
(0.0768554 0.272029 -0.0406197)
(0.171185 0.348071 -0.0431333)
(0.232447 0.37148 -0.0231022)
(0.264688 0.377514 -0.00266223)
(0.270002 0.375343 0.0116245)
(0.258934 0.377962 0.0208138)
(0.241685 0.38007 0.0234825)
(0.222546 0.377914 0.0261069)
(0.19806 0.365916 0.0277239)
(0.170229 0.346067 0.0294806)
(0.138446 0.315873 0.0272498)
(0.101289 0.284193 0.0295101)
(0.0628741 0.247631 0.030349)
(0.0271033 0.220901 0.0320322)
(-0.00373778 0.187999 0.0187455)
(-0.035608 0.171969 0.00896234)
(-0.0653842 0.16417 0.00327379)
(-0.0974188 0.151492 -0.00253476)
(-0.129207 0.151258 -0.00284794)
(-0.132085 0.166067 0.00098411)
(-0.128121 0.187446 0.0020838)
(-0.134935 0.179488 0.00198181)
(-0.15261 0.155023 0.0012546)
(-0.169775 0.126986 0.00282022)
(-0.185958 0.0890729 0.00563709)
(-0.216082 0.0612433 0.0176512)
(-0.25267 0.0313109 0.0268802)
(-0.29046 0.00338711 0.0459843)
(-0.344065 -0.0364951 0.0396664)
(-0.400032 -0.0894679 0.0378635)
(-0.448371 -0.14148 0.0282894)
(-0.478676 -0.194082 0.018062)
(-0.483082 -0.234743 0.0031365)
(-0.449405 -0.25376 -0.0109418)
(-0.383843 -0.222275 -0.0202629)
(-0.293515 -0.132654 -0.0185416)
(-0.178324 0.0142278 0.00079663)
(-0.053648 0.0939055 -0.0269366)
(0.00647377 0.0767935 -0.00336122)
(0.00553175 0.0898284 -0.00788771)
(0.07111 0.26651 -0.0397209)
(0.165683 0.348498 -0.0417668)
(0.231628 0.371613 -0.0222143)
(0.270875 0.371719 0.00091451)
(0.284965 0.365071 0.0149234)
(0.280757 0.363602 0.0205376)
(0.26341 0.358218 0.0237187)
(0.242715 0.351012 0.0257672)
(0.21873 0.338063 0.0263151)
(0.191947 0.317817 0.0257263)
(0.159124 0.291373 0.022126)
(0.121944 0.258026 0.018233)
(0.0856086 0.225624 0.0121131)
(0.0491673 0.198215 0.0165884)
(0.0164336 0.174379 0.00894435)
(-0.00820856 0.157327 0.00346669)
(-0.0378508 0.145289 -0.0027072)
(-0.0641749 0.140148 -0.00265471)
(-0.0702309 0.149043 0.000569146)
(-0.0729631 0.161659 0.00319205)
(-0.0863593 0.155056 0.00545236)
(-0.103463 0.142024 0.00517628)
(-0.124577 0.120823 0.00446069)
(-0.146499 0.1003 0.00454835)
(-0.161394 0.0653643 0.00634647)
(-0.181882 0.0323326 0.0163384)
(-0.212129 0.00313458 0.0301685)
(-0.254622 -0.0326969 0.0291389)
(-0.30893 -0.0774257 0.032601)
(-0.364409 -0.12537 0.0294297)
(-0.417021 -0.181861 0.0255446)
(-0.455006 -0.240627 0.016124)
(-0.471198 -0.295539 0.00297069)
(-0.44977 -0.327987 -0.013786)
(-0.391339 -0.317775 -0.0272723)
(-0.288075 -0.237735 -0.0314283)
(-0.176842 -0.0848927 -0.0199702)
(-0.0570606 0.0498639 -0.0194222)
(0.00855383 0.0651205 -0.0088251)
(0.00481924 0.103707 -0.00556773)
(0.0678259 0.28622 -0.0361991)
(0.161182 0.372099 -0.0411067)
(0.233326 0.3934 -0.0201536)
(0.281991 0.388466 0.00430814)
(0.306535 0.373882 0.014391)
(0.30695 0.362639 0.0208729)
(0.291871 0.350408 0.022308)
(0.274154 0.338511 0.0205554)
(0.24908 0.318633 0.0173977)
(0.220552 0.292695 0.0142774)
(0.184661 0.261742 0.00945558)
(0.143441 0.231027 0.00570814)
(0.105551 0.201464 0.00241567)
(0.06913 0.181151 0.00195326)
(0.0399878 0.167156 -0.000446366)
(0.0144713 0.159003 -0.00362857)
(-0.00390778 0.151744 -0.00257125)
(-0.0123868 0.15549 -0.00115461)
(-0.0225919 0.154922 0.00168357)
(-0.0370439 0.142205 0.0046451)
(-0.0556203 0.126135 0.00739741)
(-0.074496 0.109275 0.00736121)
(-0.0960838 0.091117 0.00667878)
(-0.121999 0.0728793 0.00813081)
(-0.142817 0.0508361 0.00495489)
(-0.156685 0.0133815 0.00859231)
(-0.183007 -0.0201751 0.0117422)
(-0.221536 -0.0632379 0.0173441)
(-0.269146 -0.106764 0.019203)
(-0.323466 -0.157474 0.0206421)
(-0.376819 -0.216388 0.0183982)
(-0.419666 -0.28049 0.0127371)
(-0.445479 -0.346775 0.00136199)
(-0.43714 -0.396149 -0.0145871)
(-0.388932 -0.407073 -0.0314982)
(-0.29719 -0.341928 -0.046685)
(-0.182709 -0.187768 -0.0346808)
(-0.0578636 0.00710318 -0.00889781)
(0.00631668 0.0678992 -0.010958)
(-0.00526008 0.0765052 -0.0152715)
(0.0473273 0.268561 -0.0403452)
(0.142325 0.364475 -0.046403)
(0.221718 0.387122 -0.0272156)
(0.279794 0.383164 -0.0069295)
(0.313466 0.361154 0.00557223)
(0.322722 0.34286 0.0117847)
(0.309251 0.324436 0.0125434)
(0.287117 0.314225 0.0118547)
(0.258664 0.305285 0.00865131)
(0.230369 0.294716 0.00648852)
(0.199125 0.277908 0.00354714)
(0.164008 0.259163 0.00176886)
(0.133126 0.238196 0.000422729)
(0.104869 0.218756 0.00303657)
(0.0779497 0.207159 -0.00192954)
(0.0566783 0.194766 -0.0081583)
(0.0391453 0.180899 -0.00535909)
(0.0215393 0.167666 -0.00461637)
(0.00126744 0.147926 -0.00047621)
(-0.0155518 0.12546 0.00424652)
(-0.0322577 0.103789 0.00687093)
(-0.0508024 0.0844509 0.00733497)
(-0.0714109 0.0663873 0.00769465)
(-0.0937177 0.0482608 0.00389162)
(-0.121435 0.0310983 0.00173504)
(-0.143571 0.0044226 0.00186599)
(-0.166417 -0.030874 0.000891143)
(-0.201709 -0.0680648 0.00412948)
(-0.243317 -0.111021 0.00884732)
(-0.291049 -0.161164 0.0125146)
(-0.339577 -0.225371 0.0133464)
(-0.381914 -0.299127 0.00967627)
(-0.411235 -0.379032 0.000382655)
(-0.41102 -0.445782 -0.0137483)
(-0.370918 -0.477075 -0.0319945)
(-0.278831 -0.439623 -0.0547402)
(-0.16575 -0.307315 -0.056326)
(-0.0451124 -0.0879168 -0.0211478)
(0.00959481 0.0354999 -0.00791826)
(-0.0063313 0.168744 -0.00797601)
(0.0430286 0.379155 -0.023091)
(0.131134 0.478988 -0.0337151)
(0.212496 0.502049 -0.0138042)
(0.277729 0.490616 -0.00557304)
(0.319241 0.460366 0.0115463)
(0.337827 0.42503 0.0149279)
(0.337474 0.410102 0.0166017)
(0.333887 0.412115 0.0117775)
(0.313777 0.409503 0.00622631)
(0.283459 0.397883 0.000381094)
(0.244671 0.374062 -0.00380655)
(0.201138 0.342194 -0.00695227)
(0.159316 0.308654 -0.00681544)
(0.126181 0.273654 -0.00566394)
(0.0994952 0.242282 -0.00227042)
(0.0694993 0.2141 -0.00790803)
(0.0496336 0.187642 -0.00870503)
(0.0362586 0.156678 -0.00642558)
(0.0170466 0.131902 -0.00366506)
(6.87574e-05 0.110773 0.00123356)
(-0.0160372 0.0862883 0.0053871)
(-0.0315164 0.0661437 0.00648447)
(-0.0511275 0.0453169 0.00899789)
(-0.0735044 0.0269424 0.00182886)
(-0.0974739 0.00851113 0.00542542)
(-0.120939 -0.00519647 0.004393)
(-0.14519 -0.0305839 -8.33296e-05)
(-0.174153 -0.0674332 -0.00543313)
(-0.212855 -0.116681 -0.00845264)
(-0.26121 -0.169475 -0.00777791)
(-0.311528 -0.231121 -0.00573707)
(-0.355508 -0.298988 -0.0034219)
(-0.386764 -0.383502 -0.00784826)
(-0.390721 -0.46456 -0.020807)
(-0.366615 -0.528991 -0.0492203)
(-0.301459 -0.521166 -0.0748054)
(-0.193197 -0.396166 -0.0710972)
(-0.055736 -0.154986 -0.0427714)
(0.0102727 0.0349285 -0.00634114)
(-0.0188801 0.252846 -0.0227069)
(0.0171093 0.494081 -0.0442035)
(0.106306 0.604349 -0.0529217)
(0.190519 0.645719 -0.0398473)
(0.261148 0.638318 -0.0288813)
(0.30749 0.611377 -0.013747)
(0.345585 0.568942 -0.00289064)
(0.372208 0.541431 -0.00239368)
(0.36557 0.521376 -0.00700074)
(0.328198 0.492525 -0.00979385)
(0.283536 0.455809 -0.0105175)
(0.235862 0.411711 -0.0109877)
(0.192549 0.362721 -0.0101554)
(0.156898 0.316142 -0.008837)
(0.126691 0.272118 -0.0068569)
(0.101986 0.232953 -0.00407051)
(0.0834313 0.197825 -0.000271519)
(0.0620231 0.171003 -0.00543183)
(0.0447464 0.143487 -0.00558491)
(0.0332444 0.11693 -0.00407243)
(0.0151195 0.0934671 -0.00166848)
(-0.00198913 0.0737282 0.00288926)
(-0.017522 0.0486423 0.0058793)
(-0.0359955 0.0299813 0.00661505)
(-0.0536235 0.0117095 0.00556911)
(-0.0721868 -0.0041269 0.00956209)
(-0.0939168 -0.0186646 0.00883821)
(-0.128498 -0.0358342 0.00503863)
(-0.171052 -0.061017 0.00433707)
(-0.205675 -0.101846 0.00425687)
(-0.237181 -0.152285 0.00117766)
(-0.265459 -0.225309 -0.00519978)
(-0.29859 -0.316821 -0.0153718)
(-0.332144 -0.439901 -0.0243728)
(-0.352346 -0.555812 -0.034048)
(-0.343999 -0.66166 -0.0546157)
(-0.276286 -0.692647 -0.07942)
(-0.181262 -0.584859 -0.0888055)
(-0.0611105 -0.30194 -0.0641131)
(0.0106855 -0.0114151 -0.0104926)
(-0.000223902 0.218762 0.00185067)
(0.0370125 0.460956 -0.0344683)
(0.109343 0.585435 -0.0463966)
(0.19173 0.640612 -0.041936)
(0.26049 0.64397 -0.032706)
(0.309476 0.623196 -0.0222479)
(0.346231 0.587194 -0.0147164)
(0.370196 0.546967 -0.00686938)
(0.36586 0.505517 -0.00787629)
(0.33041 0.467615 -0.00709576)
(0.286911 0.429053 -0.0065917)
(0.238868 0.388794 -0.00536119)
(0.194681 0.345288 -0.00472705)
(0.157617 0.303616 -0.00343567)
(0.129958 0.260984 -0.00368253)
(0.109357 0.223008 -0.00169733)
(0.0887901 0.185507 -0.00173477)
(0.0744899 0.153931 0.000612362)
(0.0593252 0.130616 4.45758e-05)
(0.0416822 0.10442 -0.0033198)
(0.0293846 0.0835243 -0.00119184)
(0.0100071 0.0607169 0.000483056)
(-0.00524168 0.042403 0.00841056)
(-0.0177496 0.0213419 0.00691568)
(-0.0353046 0.00429831 0.00621093)
(-0.0519651 -0.0118169 0.00935549)
(-0.0703167 -0.0287812 0.0106782)
(-0.0954321 -0.0458606 0.009268)
(-0.133471 -0.0565491 0.00552692)
(-0.175912 -0.0724833 0.00437516)
(-0.22702 -0.102383 0.00469319)
(-0.283274 -0.157432 0.00706251)
(-0.337863 -0.238 0.00922332)
(-0.360425 -0.35595 0.00622029)
(-0.353916 -0.486088 -0.00294968)
(-0.336452 -0.627561 -0.0166507)
(-0.272796 -0.715586 -0.0349554)
(-0.163501 -0.698768 -0.0576983)
(-0.0315671 -0.439225 -0.0575457)
(0.0228908 -0.0756226 0.000425205)
(-0.000119962 0.236481 0.000154486)
(0.0362152 0.453754 -0.0291223)
(0.103487 0.576496 -0.0396116)
(0.179619 0.632805 -0.0372714)
(0.247053 0.638242 -0.0230383)
(0.297497 0.616264 -0.0165461)
(0.338985 0.577764 -0.0072704)
(0.365374 0.53796 -0.00157402)
(0.362086 0.492239 -0.00132625)
(0.329158 0.453517 -0.000689259)
(0.284242 0.412987 -0.000425587)
(0.235053 0.371494 -0.000111821)
(0.193163 0.329867 -0.000236116)
(0.159429 0.290233 -0.000598148)
(0.132178 0.250959 -0.000723022)
(0.110895 0.211913 0.000217744)
(0.0962642 0.173993 0.0013169)
(0.0861576 0.140571 0.002537)
(0.071147 0.113904 0.00238282)
(0.0591195 0.0913096 0.00479795)
(0.0418159 0.0717947 0.00121109)
(0.0254317 0.0526607 0.00085212)
(0.0108053 0.0342484 0.00466409)
(-0.00612903 0.0176493 0.00591104)
(-0.0172594 -0.00352444 0.00702818)
(-0.0326488 -0.0196285 0.00830758)
(-0.0500599 -0.0389665 0.00986639)
(-0.069969 -0.0591852 0.0107345)
(-0.0983705 -0.0771381 0.0108288)
(-0.132584 -0.0951081 0.00918056)
(-0.174359 -0.114067 0.00934321)
(-0.215017 -0.145685 0.00913183)
(-0.269611 -0.185754 0.00946076)
(-0.31558 -0.255847 0.00973631)
(-0.346972 -0.3573 0.00667937)
(-0.361852 -0.502569 0.00198559)
(-0.330024 -0.615063 -0.0104731)
(-0.230517 -0.649183 -0.0327192)
(-0.0603427 -0.441244 -0.0469214)
(0.0258638 -0.0392876 -0.0215471)
(0.0064946 0.208595 0.00018709)
(0.0439053 0.406149 -0.0239505)
(0.104145 0.536279 -0.0329453)
(0.177457 0.597475 -0.0320712)
(0.242671 0.613012 -0.0195673)
(0.292745 0.594544 -0.0122557)
(0.336239 0.558709 -0.00289729)
(0.360404 0.51556 0.0019859)
(0.357753 0.466172 0.00275461)
(0.328147 0.424003 0.00296249)
(0.282996 0.38274 0.00352089)
(0.236407 0.344775 0.00396957)
(0.196951 0.308364 0.00345503)
(0.16401 0.272362 0.00309956)
(0.137263 0.235859 0.00232854)
(0.1171 0.199784 0.00267018)
(0.100167 0.165633 0.00351512)
(0.0942017 0.1308 0.00588861)
(0.086375 0.103662 0.00570941)
(0.0723002 0.0790867 0.0050621)
(0.0605178 0.063366 0.00563165)
(0.0403635 0.0438884 0.00488166)
(0.0266974 0.02869 0.00376914)
(0.0116254 0.0116569 0.00309513)
(-0.0041725 -0.00445861 0.00686195)