/*--------------------------------*- C++ -*----------------------------------*\
| =========                 |                                                 |
| \\      /  F ield         | OpenFOAM: The Open Source CFD Toolbox           |
|  \\    /   O peration     | Version:  v1806                                 |
|   \\  /    A nd           | Web:      www.OpenFOAM.com                      |
|    \\/     M anipulation  |                                                 |
\*---------------------------------------------------------------------------*/
FoamFile
{
    version     2.0;
    format      ascii;
    class       volScalarField;
    location    "0.0275";
    object      p;
}
// * * * * * * * * * * * * * * * * * * * * * * * * * * * * * * * * * * * * * //

dimensions      [0 2 -2 0 0 0 0];


internalField   nonuniform List<scalar> 
64000
(
-2.12755e-05
-0.083674
-0.238547
-0.300273
-0.337141
-0.356328
-0.410886
-0.434328
-0.457327
-0.494862
-0.495498
-0.566149
-0.588887
-0.643504
-0.669364
-0.673526
-0.695567
-0.67636
-0.697467
-0.811884
-0.573152
-1.12554
-1.40391
-1.24291
-1.41517
-1.20415
-1.22021
-1.09085
-1.13288
-1.05315
-1.14082
-1.1628
-1.2469
-1.26844
-1.33196
-1.3453
-1.39625
-1.37637
-1.37494
-1.34899
-0.116171
-0.199664
-0.288153
-0.324631
-0.345961
-0.35415
-0.396138
-0.430753
-0.479064
-0.544933
-0.54283
-0.54884
-0.491164
-0.478955
-0.471756
-0.49316
-0.619332
-0.598739
-0.620239
-0.607037
-0.535602
-0.969425
-1.37286
-1.18802
-1.34536
-1.16302
-1.17568
-1.08562
-1.08591
-1.05204
-1.10581
-1.10855
-1.21541
-1.21131
-1.28148
-1.27639
-1.34124
-1.34583
-1.35436
-1.33985
-0.251515
-0.286184
-0.327648
-0.35591
-0.349352
-0.369687
-0.459168
-0.460731
-0.475601
-0.410773
-0.393421
-0.44089
-0.494337
-0.683003
-0.733742
-0.769537
-0.770098
-0.742033
-0.758184
-0.755726
-0.783087
-1.20367
-1.75558
-1.61154
-1.82783
-1.69405
-1.74148
-1.67601
-1.6631
-1.6068
-1.54551
-1.51296
-1.43795
-1.42369
-1.3931
-1.32854
-1.33811
-1.3301
-1.32614
-1.31911
-0.357451
-0.369761
-0.380259
-0.411328
-0.373697
-0.303811
-0.330234
-0.320085
-0.371641
-0.475301
-0.657886
-0.829879
-0.874464
-0.877977
-0.853493
-0.878371
-0.902656
-0.881122
-0.893707
-0.898464
-0.956095
-1.40103
-2.0715
-1.98124
-2.22109
-2.13277
-2.19027
-2.1558
-2.13947
-2.09339
-2.03855
-1.89513
-1.72001
-1.50665
-1.42991
-1.27304
-1.28461
-1.26354
-1.27882
-1.28165
-0.407542
-0.416547
-0.416715
-0.444297
-0.483393
-0.397008
-0.57587
-0.628567
-0.927143
-1.08668
-1.16186
-1.15702
-1.17718
-1.23141
-1.2122
-1.23428
-1.21328
-1.19009
-1.19693
-1.23042
-1.27498
-1.72327
-2.43533
-2.37245
-2.62507
-2.54711
-2.60826
-2.57052
-2.58641
-2.546
-2.50107
-2.41681
-2.3073
-2.07186
-1.79278
-1.25652
-1.22393
-1.32547
-1.27062
-1.28988
-0.510958
-0.530007
-0.551285
-0.605867
-0.663196
-0.694888
-1.18991
-1.2003
-1.35673
-1.42992
-1.47519
-1.50638
-1.50507
-1.49692
-1.4229
-1.482
-1.44923
-1.38283
-1.32904
-1.3074
-1.34392
-1.78442
-2.57211
-2.53064
-2.75203
-2.71188
-2.76413
-2.77415
-2.78016
-2.76805
-2.70892
-2.61867
-2.5281
-2.31546
-2.06752
-1.28384
-1.27785
-1.35046
-1.28791
-1.3096
-0.551801
-0.586869
-0.583149
-0.729943
-0.759771
-1.11427
-1.39855
-1.48534
-1.62406
-1.71692
-1.77494
-1.81971
-1.87357
-1.90045
-1.88771
-1.88575
-1.77095
-1.7214
-1.7366
-1.80763
-1.93001
-1.75771
-2.37266
-2.58585
-2.76954
-2.7917
-2.87258
-2.89291
-2.93024
-2.93108
-2.85847
-2.77238
-2.67278
-2.4806
-2.21691
-1.49027
-1.29151
-1.3802
-1.33051
-1.33837
-0.635659
-0.633793
-0.688653
-0.813124
-0.942875
-1.41799
-1.56243
-1.68284
-1.81619
-1.91965
-1.99347
-2.08232
-2.12106
-2.20413
-2.24536
-2.29934
-2.29985
-2.23767
-2.29002
-2.25689
-2.25988
-1.69876
-1.90585
-2.28939
-2.6863
-2.79193
-2.92496
-2.97719
-3.04237
-3.07455
-3.00984
-2.92534
-2.79156
-2.61647
-2.3694
-1.72744
-1.3271
-1.39925
-1.37238
-1.37786
-0.683756
-0.66884
-0.735685
-0.927532
-1.23189
-1.53585
-1.67387
-1.84607
-1.93526
-2.09364
-2.19008
-2.28351
-2.36208
-2.47838
-2.57552
-2.69335
-2.7837
-2.80559
-2.87319
-2.75995
-2.47329
-1.71317
-1.47467
-1.86109
-2.60762
-2.83257
-3.01045
-3.05302
-3.14186
-3.15758
-3.08676
-2.99937
-2.86706
-2.66374
-2.43023
-1.99344
-1.40953
-1.41262
-1.42173
-1.41971
-0.742928
-0.716339
-0.824672
-1.12962
-1.37695
-1.64301
-1.79164
-1.95854
-2.06059
-2.19206
-2.29271
-2.41271
-2.48211
-2.61302
-2.7333
-2.90038
-3.00853
-3.04521
-3.17049
-2.97084
-2.36055
-1.58928
-1.22453
-1.46913
-2.34024
-2.89411
-3.08406
-3.14649
-3.23079
-3.24586
-3.22994
-3.11357
-2.97076
-2.81289
-2.53631
-2.19691
-1.55046
-1.43956
-1.46338
-1.48147
-0.774301
-0.780229
-0.958624
-1.23239
-1.48363
-1.70426
-1.87639
-2.03394
-2.14715
-2.29222
-2.36292
-2.46941
-2.528
-2.6395
-2.75692
-2.93273
-2.92307
-3.13588
-2.96376
-2.53126
-2.16812
-1.63729
-1.22059
-1.29694
-1.81298
-2.89483
-3.13366
-3.244
-3.27431
-3.28599
-3.25441
-3.19385
-3.00514
-2.79851
-2.58313
-2.3136
-1.77733
-1.47555
-1.50946
-1.53258
-0.874943
-0.890124
-1.0604
-1.30557
-1.53129
-1.75385
-1.92419
-2.08023
-2.20033
-2.30912
-2.39038
-2.47854
-2.5247
-2.58115
-2.71557
-2.79854
-2.82271
-2.86032
-2.24699
-2.08771
-2.02967
-1.7339
-1.36236
-1.35235
-1.64692
-2.38968
-3.34126
-3.30944
-3.41297
-3.37572
-3.36085
-3.23874
-3.165
-2.93912
-2.68456
-2.3586
-1.97638
-1.57659
-1.54055
-1.60497
-0.973884
-0.990514
-1.14487
-1.36259
-1.57187
-1.78009
-1.95082
-2.09519
-2.1948
-2.29547
-2.35131
-2.40696
-2.4479
-2.50226
-2.56737
-2.66231
-2.66798
-2.03696
-1.81422
-1.67598
-1.71994
-1.63084
-1.48417
-1.46901
-1.61033
-1.87855
-2.97566
-3.39268
-3.40522
-3.4591
-3.37624
-3.33964
-3.13247
-2.98833
-2.72127
-2.50162
-2.05468
-1.73547
-1.58033
-1.67014
-1.04134
-1.05524
-1.19684
-1.3792
-1.57955
-1.77236
-1.95017
-2.06876
-2.1717
-2.24375
-2.27916
-2.34862
-2.34782
-2.40946
-2.3947
-2.37344
-1.99178
-1.64621
-1.46133
-1.34056
-1.31351
-1.2716
-1.37437
-1.59348
-1.68814
-1.83717
-2.13219
-3.28937
-3.35564
-3.48714
-3.50151
-3.38165
-3.23128
-3.01128
-2.78402
-2.49635
-2.22751
-1.86115
-1.65292
-1.74073
-1.18311
-1.17644
-1.29151
-1.44583
-1.62998
-1.79757
-1.95035
-2.06112
-2.11984
-2.16543
-2.20796
-2.30542
-2.31885
-2.35272
-1.96662
-1.70264
-1.34782
-1.12378
-1.12988
-1.05773
-1.08505
-1.09994
-1.09546
-1.63903
-1.7573
-1.91589
-2.11201
-2.67855
-3.47786
-3.49726
-3.49922
-3.40975
-3.21949
-3.0217
-2.77132
-2.51773
-2.22109
-1.99907
-1.77327
-1.8454
-1.09442
-1.11721
-1.22869
-1.37394
-1.54298
-1.70278
-1.8679
-1.96096
-2.06497
-2.11719
-2.17383
-2.15425
-1.84349
-1.52143
-1.22806
-1.30751
-1.1765
-1.19524
-1.19511
-1.19808
-1.19716
-1.23338
-1.15309
-1.5731
-1.848
-1.95377
-2.07677
-2.28171
-3.07852
-3.48366
-3.48255
-3.42182
-3.23903
-3.02628
-2.76902
-2.53237
-2.25389
-2.05797
-1.86558
-1.90186
-1.32273
-1.28248
-1.35562
-1.46017
-1.61345
-1.75579
-1.89957
-1.98742
-1.9891
-1.80932
-1.58064
-1.39025
-1.25281
-1.24862
-1.2213
-1.32621
-1.28844
-1.29483
-1.3584
-1.38704
-1.43281
-1.50716
-1.44651
-1.61465
-1.93603
-2.01327
-2.14734
-2.3369
-2.50569
-3.0862
-3.24063
-3.27542
-3.11045
-2.96246
-2.75449
-2.54954
-2.34327
-2.18965
-2.00311
-2.05632
-0.899684
-0.910563
-1.00355
-1.11126
-1.27593
-1.38922
-1.5719
-1.48838
-1.4115
-1.36262
-1.38722
-1.40657
-1.34881
-1.30891
-1.26842
-1.31884
-1.28128
-1.32348
-1.36458
-1.43127
-1.47841
-1.58437
-1.5954
-1.68865
-1.96059
-2.01115
-2.13017
-2.26938
-2.39755
-2.5043
-3.0207
-3.15348
-3.00264
-2.72291
-2.46901
-2.29751
-2.16858
-2.05156
-2.06489
-2.04209
-1.45843
-1.35202
-1.3885
-1.43496
-1.54578
-1.64341
-1.71977
-1.59038
-1.61116
-1.55596
-1.51705
-1.44881
-1.39494
-1.31288
-1.28101
-1.25571
-1.31005
-1.28521
-1.35863
-1.41842
-1.45687
-1.55335
-1.5918
-1.68574
-1.95115
-2.02666
-2.12627
-2.2428
-2.36338
-2.52707
-2.58196
-2.75704
-2.95169
-3.03743
-2.96191
-2.84641
-2.60812
-2.47523
-2.16963
-2.26368
-1.10562
-1.15742
-1.22047
-1.32724
-1.45049
-1.54937
-1.64009
-1.50681
-1.52346
-1.52282
-1.54872
-1.51192
-1.44549
-1.34283
-1.27592
-1.23129
-1.23936
-1.28763
-1.33655
-1.40399
-1.47091
-1.54913
-1.58661
-1.6802
-1.89603
-2.00167
-2.11448
-2.20788
-2.36874
-2.53751
-2.64403
-2.65744
-2.71319
-2.48151
-2.39452
-2.36353
-2.36701
-2.28134
-2.38181
-2.24815
-1.2945
-1.25972
-1.27526
-1.32443
-1.40905
-1.49494
-1.57517
-1.53344
-1.59102
-1.61773
-1.65737
-1.62064
-1.54048
-1.40608
-1.29603
-1.22155
-1.26643
-1.29178
-1.38094
-1.40623
-1.50599
-1.53695
-1.60373
-1.67627
-1.85923
-1.96746
-2.0479
-2.19816
-2.34609
-2.4963
-2.61831
-2.65352
-2.69817
-2.68716
-2.55213
-2.48029
-2.34432
-2.2619
-2.1809
-2.27751
-1.32819
-1.32936
-1.36947
-1.4202
-1.50706
-1.59073
-1.65503
-1.64415
-1.69912
-1.73141
-1.77562
-1.74982
-1.6359
-1.48072
-1.3317
-1.2016
-1.15996
-1.19635
-1.26636
-1.36532
-1.46669
-1.55763
-1.59569
-1.67719
-1.82915
-1.93743
-2.06274
-2.18358
-2.33605
-2.49823
-2.61139
-2.68916
-2.75607
-2.6386
-2.64608
-2.61212
-2.60603
-2.46944
-2.45695
-2.47737
-1.35567
-1.35084
-1.38212
-1.41852
-1.50516
-1.57386
-1.6454
-1.67544
-1.74273
-1.81583
-1.87417
-1.83439
-1.72724
-1.57947
-1.41362
-1.23195
-1.22515
-1.34919
-1.36947
-1.40925
-1.45923
-1.56545
-1.61352
-1.70731
-1.80982
-1.93318
-2.02764
-2.14939
-2.26211
-2.37492
-2.49074
-2.55856
-2.65294
-2.6527
-2.7019
-2.66372
-2.66699
-2.53829
-2.4496
-2.39457
-1.43274
-1.37689
-1.47188
-1.47874
-1.57556
-1.63048
-1.69855
-1.74987
-1.81677
-1.90365
-1.96484
-1.95129
-1.86087
-1.76511
-1.64882
-1.545
-1.71873
-1.75955
-1.41763
-1.46886
-1.52733
-1.57638
-1.66121
-1.74815
-1.82599
-1.94435
-2.0473
-2.17359
-2.29041
-2.42276
-2.55158
-2.6392
-2.75063
-2.74645
-2.85413
-2.81477
-2.8962
-2.74631
-2.7585
-2.65975
-1.48424
-1.41054
-1.52872
-1.52302
-1.63177
-1.6776
-1.75595
-1.81238
-1.88382
-1.98148
-2.05796
-2.07583
-2.03314
-1.96896
-1.94617
-1.93672
-2.04503
-1.9696
-1.4174
-1.48352
-1.52167
-1.62246
-1.64688
-1.75898
-1.84169
-1.92221
-2.00553
-2.10858
-2.18335
-2.24659
-2.32529
-2.36527
-2.47197
-2.45916
-2.58141
-2.51244
-2.62573
-2.48169
-2.56479
-2.44696
-1.54983
-1.44038
-1.56643
-1.57352
-1.6775
-1.73723
-1.81522
-1.87424
-1.95605
-2.06937
-2.14893
-2.19461
-2.21891
-2.23645
-2.30157
-2.28379
-2.27057
-2.20754
-1.41869
-1.49671
-1.53077
-1.60412
-1.66773
-1.77177
-1.83535
-1.98775
-2.03618
-2.16378
-2.23122
-2.37546
-2.52396
-2.59319
-2.73149
-2.69677
-2.8513
-2.72161
-2.86286
-2.62538
-2.73934
-2.56809
-1.58451
-1.52056
-1.58895
-1.64172
-1.73149
-1.79055
-1.87452
-1.91422
-1.99855
-2.07869
-2.17232
-2.24082
-2.30617
-2.39299
-2.48257
-2.46825
-2.38956
-2.30445
-1.48803
-1.53129
-1.56284
-1.62132
-1.67788
-1.77017
-1.81826
-1.96085
-2.05236
-2.13137
-2.23767
-2.2808
-2.32798
-2.29137
-2.37082
-2.27279
-2.42422
-2.24019
-2.42417
-2.15391
-2.32933
-2.2893
-1.62109
-1.59068
-1.5604
-1.69736
-1.76739
-1.85366
-1.95016
-1.99525
-2.0995
-2.19002
-2.27092
-2.33708
-2.39961
-2.4167
-2.49906
-2.54186
-2.42434
-2.37816
-1.53622
-1.51913
-1.52902
-1.60758
-1.67628
-1.76634
-1.78389
-1.97278
-2.02736
-2.17329
-2.23723
-2.29164
-2.36535
-2.32552
-2.43313
-2.2552
-2.42564
-2.11269
-2.29587
-1.87747
-1.99608
-1.82002
-1.66334
-1.66813
-1.60591
-1.72936
-1.816
-1.9016
-1.95172
-2.06421
-2.1589
-2.25616
-2.34685
-2.42018
-2.48848
-2.5343
-2.56385
-2.58902
-2.46208
-2.54315
-1.64577
-1.49147
-1.51999
-1.5764
-1.63121
-1.74372
-1.70161
-1.89867
-2.06022
-2.15699
-2.17406
-2.20235
-2.25337
-2.18227
-2.28846
-2.08862
-2.27156
-1.89118
-2.11239
-1.61091
-1.72629
-1.5789
-1.69159
-1.70437
-1.63176
-1.69976
-1.84821
-1.92783
-2.01028
-2.10629
-2.18918
-2.28201
-2.37224
-2.4493
-2.52784
-2.56834
-2.61495
-2.64595
-2.51545
-2.58267
-1.81581
-1.43761
-1.46223
-1.51403
-1.55807
-1.69356
-1.53092
-1.99845
-1.93733
-2.18441
-2.14353
-2.20888
-2.2706
-2.14261
-2.30764
-1.98937
-2.28047
-1.75226
-2.0638
-1.41276
-1.54036
-1.26316
-1.75119
-1.76514
-1.72662
-1.71276
-1.91682
-1.94807
-2.08282
-2.16555
-2.2708
-2.34894
-2.43667
-2.51818
-2.57458
-2.6617
-2.62563
-2.69257
-2.54444
-2.69692
-1.97045
-1.34565
-1.41144
-1.44534
-1.47813
-1.63312
-1.40254
-2.02508
-1.87377
-2.15165
-2.11495
-2.16674
-2.2318
-2.11616
-2.25157
-1.93834
-2.21062
-1.63318
-2.01192
-1.26504
-1.41149
-0.990471
-1.74332
-1.72585
-1.74961
-1.62934
-1.84831
-1.92379
-2.0326
-2.11826
-2.21885
-2.3133
-2.41301
-2.49134
-2.59811
-2.60312
-2.62767
-2.71009
-2.56212
-2.75363
-2.16838
-1.20264
-1.31908
-1.33004
-1.35976
-1.5436
-1.26976
-2.0125
-1.8609
-2.12571
-2.08362
-2.14244
-2.23198
-2.03523
-2.2955
-1.80244
-2.24643
-1.43364
-1.97391
-1.02719
-1.21832
-0.5871
-1.84707
-1.84198
-1.85173
-1.79438
-1.88678
-2.03432
-2.11863
-2.20311
-2.29424
-2.38591
-2.47923
-2.59914
-2.61383
-2.71312
-2.68375
-2.80348
-2.64662
-2.82353
-2.3868
-1.05477
-1.23894
-1.21925
-1.24461
-1.4427
-1.15127
-1.9416
-1.92424
-2.10461
-2.12349
-2.12199
-2.25366
-2.00073
-2.26234
-1.79115
-2.23965
-1.37346
-1.91984
-0.849551
-1.02577
-0.161458
-1.74704
-1.72273
-1.74153
-1.71539
-1.66088
-1.88406
-1.93746
-2.03645
-2.14026
-2.24679
-2.37266
-2.45042
-2.5642
-2.66394
-2.66712
-2.78408
-2.65204
-2.78738
-2.4743
-0.86121
-1.07552
-1.02651
-1.05313
-1.26842
-0.985765
-1.80048
-1.94458
-2.10306
-2.20759
-2.10018
-2.2783
-1.92596
-2.31236
-1.59664
-2.28715
-1.10686
-1.86738
-0.333625
-0.681075
0.590046
-1.91144
-1.96387
-1.89744
-1.9564
-1.88895
-1.9818
-2.06926
-2.14514
-2.2442
-2.32698
-2.43317
-2.55998
-2.65224
-2.78786
-2.80967
-2.96724
-2.7954
-2.8895
-2.6228
-0.722984
-0.965628
-0.875287
-0.893443
-1.09973
-0.86569
-1.68528
-2.02806
-2.19658
-2.24494
-2.14942
-2.37159
-1.88579
-2.41027
-1.52788
-2.35775
-1.09843
-1.87811
-0.0950204
-0.235386
1.46732
-1.77722
-1.67663
-1.755
-1.67281
-1.67167
-1.72143
-1.76943
-1.85893
-1.96233
-2.08709
-2.24262
-2.38511
-2.53175
-2.69265
-2.72544
-2.95955
-2.8043
-2.8313
-2.57786
-0.52472
-0.72883
-0.572293
-0.611721
-0.821199
-0.686953
-1.50771
-2.04781
-2.21484
-2.35735
-2.14886
-2.37211
-1.78178
-2.40664
-1.34526
-2.23455
-0.698435
-1.66657
0.795799
0.748964
3.44779
-1.91855
-2.03104
-1.88758
-2.02506
-1.86605
-1.93021
-1.95786
-1.97486
-2.08768
-2.18505
-2.32936
-2.48081
-2.62996
-2.80998
-2.87118
-3.08861
-2.95571
-2.98685
-2.62564
-0.492473
-0.513886
-0.351228
-0.35579
-0.571904
-0.566564
-1.42364
-2.09757
-2.2825
-2.49087
-2.19088
-2.56299
-1.75931
-2.60864
-1.23524
-2.57889
-0.64326
-1.77175
1.22734
1.75003
5.40838
-2.29345
-1.80516
-1.91765
-1.54147
-1.65227
-1.52302
-1.59648
-1.65152
-1.78051
-1.89949
-2.0831
-2.26045
-2.46689
-2.69099
-2.82882
-3.05568
-3.00321
-2.99478
-2.40692
-0.353909
-0.109608
0.0927575
0.061095
-0.191425
-0.420195
-1.34041
-2.10923
-2.33496
-2.58386
-2.18962
-2.56202
-1.67296
-2.48097
-1.0103
-2.31432
-0.0244081
-1.13705
2.7461
4.22643
10.4376
-2.07217
-2.40402
-2.13872
-2.17462
-1.6993
-1.74925
-1.70593
-1.74056
-1.84284
-1.94696
-2.09983
-2.27835
-2.49454
-2.7564
-2.94831
-3.22146
-3.21749
-3.15433
-2.32962
-0.422968
0.145601
0.427158
0.371815
0.0479845
-0.347889
-1.30802
-2.09024
-2.39831
-2.71178
-2.19655
-2.6413
-1.65386
-2.63616
-1.17439
-2.51422
-0.336641
-1.14586
3.66425
5.65844
14.0711
-4.63034
-1.87039
-2.22951
-1.68963
-1.60938
-1.43369
-1.52608
-1.56575
-1.69612
-1.80989
-1.99108
-2.17748
-2.41166
-2.70245
-2.99351
-3.31848
-3.36334
-3.20197
-2.13278
-0.350887
0.487705
0.838943
0.695254
0.247088
-0.348033
-1.36157
-2.19733
-2.48008
-2.81188
-2.18189
-2.6103
-1.50419
-2.50234
-0.977672
-2.35335
0.102369
0.345512
7.13784
12.6752
26.55
-0.104678
-0.200303
-0.283613
-0.312047
-0.33751
-0.363803
-0.412125
-0.43733
-0.472834
-0.504059
-0.517665
-0.589183
-0.62494
-0.662282
-0.689512
-0.692228
-0.712465
-0.675184
-0.765148
-0.777548
-0.661789
-1.10808
-1.54104
-1.35216
-1.51884
-1.3517
-1.37976
-1.3025
-1.28521
-1.22601
-1.2592
-1.25072
-1.31838
-1.30457
-1.36233
-1.3673
-1.42796
-1.41396
-1.40722
-1.37129
-0.223064
-0.265701
-0.327752
-0.329518
-0.351289
-0.360441
-0.393954
-0.438139
-0.45266
-0.529177
-0.513038
-0.5542
-0.467453
-0.466781
-0.467887
-0.558003
-0.626885
-0.60246
-0.615347
-0.591166
-0.665382
-1.06447
-1.53178
-1.40419
-1.55491
-1.42749
-1.46718
-1.42106
-1.40929
-1.33964
-1.30438
-1.28214
-1.30432
-1.26246
-1.32294
-1.30788
-1.36501
-1.36035
-1.36753
-1.35461
-0.292064
-0.326387
-0.350893
-0.370087
-0.35854
-0.354128
-0.423613
-0.438891
-0.492944
-0.426024
-0.419691
-0.459938
-0.525947
-0.651015
-0.780861
-0.830885
-0.81671
-0.766981
-0.769801
-0.754169
-0.910267
-1.34427
-1.9359
-1.87283
-2.05685
-1.96135
-2.0214
-1.98675
-1.98637
-1.90823
-1.80867
-1.61735
-1.52622
-1.48165
-1.40967
-1.32879
-1.35833
-1.3407
-1.33733
-1.32258
-0.382462
-0.370246
-0.408536
-0.37377
-0.368108
-0.321404
-0.366775
-0.333716
-0.380257
-0.484696
-0.655821
-0.832527
-0.886535
-0.91115
-0.979843
-0.984558
-0.961432
-0.914113
-0.905815
-0.904056
-1.10849
-1.61117
-2.28182
-2.27127
-2.45808
-2.38928
-2.4357
-2.40928
-2.39189
-2.31613
-2.23932
-2.0643
-1.80241
-1.53807
-1.44769
-1.26749
-1.25297
-1.27169
-1.2779
-1.28053
-0.42619
-0.42915
-0.432931
-0.448668
-0.475192
-0.359603
-0.412398
-0.638579
-0.91936
-1.1155
-1.19931
-1.22835
-1.22727
-1.27263
-1.34374
-1.32581
-1.27661
-1.2254
-1.20009
-1.15373
-1.31523
-1.85173
-2.57012
-2.5766
-2.7638
-2.72353
-2.75304
-2.75952
-2.73027
-2.66804
-2.60056
-2.493
-2.37557
-2.08024
-1.70007
-1.25743
-1.23376
-1.29978
-1.26721
-1.28711
-0.536864
-0.548905
-0.56784
-0.579615
-0.677168
-0.586779
-1.06792
-1.27839
-1.40712
-1.48422
-1.52472
-1.55855
-1.53231
-1.56921
-1.59233
-1.63107
-1.51671
-1.41453
-1.33074
-1.25879
-1.36154
-1.84351
-2.66667
-2.7261
-2.91193
-2.87397
-2.90605
-2.91227
-2.93271
-2.83061
-2.79183
-2.71096
-2.58246
-2.37472
-1.99949
-1.31023
-1.29276
-1.33193
-1.29407
-1.30848
-0.571449
-0.594222
-0.611992
-0.759778
-0.802078
-0.995969
-1.42662
-1.56561
-1.68086
-1.76554
-1.81399
-1.86745
-1.87991
-2.01341
-1.9634
-1.96215
-1.87439
-1.77789
-1.72128
-1.71809
-1.81357
-1.74731
-2.35487
-2.7093
-2.89796
-2.9221
-2.98495
-2.99109
-2.98495
-2.99093
-2.89053
-2.80115
-2.69594
-2.5031
-2.17847
-1.46478
-1.30564
-1.35597
-1.32543
-1.33561
-0.69116
-0.697285
-0.737938
-0.887549
-0.917878
-1.40079
-1.58703
-1.74874
-1.85594
-1.96306
-2.0423
-2.13363
-2.19783
-2.28112
-2.31675
-2.35556
-2.35425
-2.33987
-2.34182
-2.24812
-2.06137
-1.54704
-1.80162
-2.28311
-2.79584
-2.92658
-3.05203
-3.0697
-3.099
-3.02611
-3.00735
-2.91314
-2.80836
-2.62423
-2.35554
-1.69044
-1.36815
-1.4095
-1.3752
-1.38693
-0.69716
-0.741049
-0.830432
-1.04672
-1.26312
-1.50394
-1.65902
-1.86746
-2.003
-2.13209
-2.24416
-2.30795
-2.42528
-2.54262
-2.6329
-2.75131
-2.85921
-2.9535
-3.00693
-2.7361
-2.20023
-1.44241
-1.32649
-1.77525
-2.64394
-2.95589
-3.11767
-3.17877
-3.12745
-3.13002
-3.06413
-2.98171
-2.85286
-2.65617
-2.40625
-1.9205
-1.41719
-1.40957
-1.41596
-1.4193
-0.769583
-0.778454
-0.877945
-1.26099
-1.39846
-1.6604
-1.79088
-2.04352
-2.08175
-2.28415
-2.31695
-2.44197
-2.56455
-2.71405
-2.83247
-2.99169
-3.12858
-3.25892
-3.26855
-2.82683
-2.09106
-1.33799
-1.06384
-1.3662
-2.2651
-2.97898
-3.21421
-3.28175
-3.2876
-3.20616
-3.1999
-3.14869
-3.03466
-2.87206
-2.56914
-2.14978
-1.56173
-1.46542
-1.4791
-1.48784
-0.807592
-0.833707
-1.05256
-1.34916
-1.55481
-1.71213
-1.89514
-2.04718
-2.16603
-2.32524
-2.37577
-2.4804
-2.61874
-2.78992
-2.90874
-3.05847
-3.15287
-3.24815
-2.92051
-2.42298
-1.93598
-1.39246
-1.06921
-1.17882
-1.73833
-2.85309
-3.20362
-3.33467
-3.2898
-3.32087
-3.24298
-3.10319
-2.98982
-2.82054
-2.61008
-2.3173
-1.7038
-1.49389
-1.51753
-1.53143
-0.915253
-0.96283
-1.17171
-1.41965
-1.60014
-1.80116
-1.90597
-2.10576
-2.18141
-2.31896
-2.4002
-2.51721
-2.62022
-2.80838
-2.89426
-3.01239
-3.05946
-2.75878
-2.22467
-1.94496
-1.75956
-1.46758
-1.21725
-1.20612
-1.56042
-2.31501
-3.31981
-3.31381
-3.5404
-3.51976
-3.41698
-3.27406
-3.10681
-2.96076
-2.77229
-2.38034
-1.92709
-1.56827
-1.57669
-1.60795
-1.03832
-1.087
-1.2676
-1.46088
-1.64803
-1.8299
-1.9835
-2.10197
-2.21234
-2.32174
-2.38696
-2.48278
-2.63862
-2.7455
-2.8217
-2.92824
-2.66953
-1.99801
-1.63207
-1.46832
-1.4841
-1.42527
-1.35934
-1.33698
-1.49475
-1.83645
-2.89145
-3.41838
-3.5155
-3.52936
-3.55088
-3.42694
-3.24284
-3.00763
-2.7098
-2.62624
-2.06286
-1.66995
-1.60875
-1.67303
-1.12519
-1.15979
-1.30724
-1.47958
-1.66687
-1.83631
-1.9883
-2.09585
-2.18071
-2.26776
-2.30282
-2.47739
-2.456
-2.59788
-2.72409
-2.51638
-1.86978
-1.41758
-1.17262
-1.07599
-1.12464
-1.15291
-1.36378
-1.47336
-1.59422
-1.74413
-1.9749
-3.14891
-3.41375
-3.68093
-3.63099
-3.50572
-3.3192
-3.10555
-2.82448
-2.53571
-2.33075
-1.83682
-1.65134
-1.77189
-1.23255
-1.25529
-1.38265
-1.53696
-1.70818
-1.85723
-1.99259
-2.09194
-2.16528
-2.20749
-2.23261
-2.31663
-2.26455
-2.4341
-2.14843
-1.66308
-1.23964
-1.01556
-0.919095
-0.869061
-0.87216
-0.85817
-1.13279
-1.56004
-1.69977
-1.91319
-2.28969
-2.98775
-3.77864
-3.72009
-3.66709
-3.53156
-3.31856
-3.09807
-2.79661
-2.58947
-2.24401
-2.04956
-1.68864
-1.86087
-1.1949
-1.21414
-1.33483
-1.48158
-1.65845
-1.76301
-1.93465
-2.01505
-2.09544
-2.12681
-2.10913
-2.10359
-1.72485
-1.53701
-1.29804
-1.25238
-1.12132
-1.0799
-1.03671
-1.00348
-0.977136
-0.937691
-1.03988
-1.58003
-1.78237
-1.89433
-2.07252
-2.39185
-3.06677
-3.68547
-3.66255
-3.54777
-3.33443
-3.099
-2.81458
-2.55613
-2.30356
-2.11355
-1.85934
-1.87676
-1.31764
-1.3058
-1.38833
-1.50145
-1.6629
-1.77655
-1.93013
-2.00058
-1.99221
-1.81426
-1.55213
-1.36539
-1.1893
-1.24363
-1.18183
-1.22731
-1.21917
-1.22321
-1.23552
-1.24028
-1.2648
-1.27632
-1.27289
-1.62405
-1.84818
-1.96727
-2.09178
-2.25793
-2.47849
-2.98116
-3.39486
-3.40795
-3.21144
-3.00738
-2.75005
-2.53017
-2.2242
-2.15235
-2.00159
-2.02829
-1.01561
-1.05939
-1.13466
-1.25764
-1.35725
-1.47831
-1.61795
-1.56354
-1.45726
-1.37472
-1.32402
-1.29787
-1.22516
-1.21549
-1.24787
-1.25404
-1.25253
-1.28885
-1.31206
-1.35735
-1.4023
-1.47005
-1.47983
-1.67476
-1.83545
-1.94962
-2.0833
-2.21708
-2.33325
-2.526
-2.86619
-3.12114
-3.06206
-2.84074
-2.60881
-2.37946
-2.18062
-2.042
-2.07321
-2.04653
-1.38149
-1.34847
-1.38729
-1.47031
-1.53397
-1.65634
-1.73314
-1.5828
-1.58243
-1.49058
-1.43153
-1.34498
-1.28682
-1.2522
-1.22095
-1.25595
-1.26466
-1.26078
-1.32833
-1.35944
-1.42646
-1.48979
-1.5313
-1.69436
-1.85659
-1.97116
-2.07555
-2.19202
-2.31653
-2.44449
-2.56966
-2.7266
-2.79191
-2.8024
-2.62557
-2.46318
-2.33677
-2.22608
-2.18038
-2.23039
-1.2488
-1.23499
-1.29817
-1.39197
-1.47097
-1.58511
-1.65266
-1.49411
-1.47668
-1.46649
-1.48089
-1.43112
-1.36512
-1.2725
-1.21974
-1.1841
-1.22702
-1.25965
-1.28022
-1.35702
-1.4141
-1.48882
-1.5262
-1.69275
-1.80843
-1.9623
-2.07128
-2.19363
-2.32509
-2.47412
-2.56945
-2.61893
-2.70778
-2.50334
-2.34049
-2.27485
-2.18052
-2.15334
-2.19284
-2.29111
-1.28102
-1.2394
-1.27504
-1.32842
-1.42772
-1.49724
-1.57537
-1.51399
-1.54416
-1.55905
-1.5883
-1.53886
-1.44611
-1.31572
-1.19121
-1.13318
-1.17076
-1.21598
-1.32367
-1.32632
-1.43491
-1.477
-1.55399
-1.65647
-1.81189
-1.93839
-2.04576
-2.18082
-2.3349
-2.47782
-2.59572
-2.63911
-2.68057
-2.6595
-2.51653
-2.45022
-2.33309
-2.19381
-2.1348
-2.19592
-1.38498
-1.33269
-1.37643
-1.4152
-1.51542
-1.56769
-1.63541
-1.62194
-1.66464
-1.69144
-1.72464
-1.68412
-1.55551
-1.36115
-1.18089
-1.06352
-1.06994
-1.15447
-1.24218
-1.35322
-1.40523
-1.49242
-1.57189
-1.66101
-1.79164
-1.91186
-2.02742
-2.15848
-2.3115
-2.46717
-2.58651
-2.65745
-2.7353
-2.65366
-2.65117
-2.62594
-2.60861
-2.45571
-2.39909
-2.46135
-1.341
-1.33246
-1.37676
-1.4138
-1.50228
-1.55394
-1.62727
-1.65654
-1.72453
-1.80021
-1.8609
-1.82626
-1.68931
-1.43692
-1.18066
-1.04558
-1.11782
-1.24521
-1.30003
-1.33142
-1.43164
-1.49818
-1.57485
-1.67047
-1.77992
-1.89677
-2.00403
-2.12281
-2.24295
-2.3615
-2.48318
-2.55494
-2.64911
-2.66533
-2.75028
-2.73485
-2.75771
-2.5753
-2.49646
-2.45067
-1.43347
-1.39751
-1.45816
-1.47507
-1.56268
-1.60108
-1.68026
-1.7293
-1.80366
-1.89853
-1.97795
-1.9806
-1.88711
-1.6472
-1.46893
-1.48023
-1.66101
-1.6483
-1.39227
-1.39573
-1.45495
-1.51757
-1.62218
-1.68885
-1.79898
-1.90286
-2.01503
-2.13496
-2.25365
-2.37348
-2.50025
-2.58267
-2.70193
-2.71534
-2.85175
-2.8287
-2.94178
-2.77563
-2.77037
-2.69053
-1.4743
-1.42232
-1.51385
-1.52692
-1.61338
-1.67178
-1.73329
-1.80029
-1.88057
-1.98519
-2.07931
-2.12629
-2.11692
-2.03172
-1.98757
-2.02419
-2.05611
-1.86183
-1.40113
-1.38794
-1.44752
-1.55267
-1.6116
-1.73491
-1.81089
-1.88351
-1.9709
-2.06319
-2.14104
-2.20605
-2.29273
-2.33414
-2.4469
-2.43649
-2.58428
-2.51109
-2.65297
-2.48301
-2.57312
-2.44159
-1.54119
-1.45848
-1.54813
-1.57361
-1.67094
-1.72623
-1.80498
-1.87713
-1.96084
-2.06705
-2.16323
-2.23806
-2.2939
-2.33208
-2.3797
-2.34768
-2.3095
-2.02256
-1.42085
-1.39422
-1.43582
-1.52282
-1.6184
-1.7335
-1.81663
-1.91506
-2.02081
-2.09154
-2.19006
-2.31345
-2.45687
-2.51039
-2.65316
-2.61041
-2.78148
-2.63763
-2.79546
-2.55557
-2.67434
-2.53855
-1.59065
-1.53221
-1.57574
-1.63781
-1.7204
-1.79467
-1.87649
-1.95773
-2.04337
-2.13917
-2.23291
-2.31355
-2.39176
-2.46419
-2.54418
-2.50874
-2.44825
-2.20998
-1.47631
-1.40703
-1.41993
-1.52646
-1.62132
-1.744
-1.79431
-1.95152
-1.97652
-2.0852
-2.18035
-2.26074
-2.31931
-2.29327
-2.38075
-2.27138
-2.43649
-2.22687
-2.42629
-2.13476
-2.25501
-2.22021
-1.63232
-1.59541
-1.57916
-1.69166
-1.77167
-1.84287
-1.95296
-2.03513
-2.12981
-2.21994
-2.3047
-2.37898
-2.44972
-2.49978
-2.56288
-2.57464
-2.49357
-2.34867
-1.57761
-1.43865
-1.42964
-1.49957
-1.5928
-1.71369
-1.75504
-1.90637
-1.9954
-2.17717
-2.21766
-2.27567
-2.35734
-2.319
-2.43574
-2.24538
-2.44385
-2.10674
-2.32647
-1.87922
-2.03696
-1.79864
-1.67345
-1.67233
-1.61979
-1.72848
-1.83441
-1.91589
-1.98052
-2.11032
-2.20372
-2.29965
-2.38357
-2.45568
-2.52247
-2.56993
-2.60949
-2.62599
-2.53985
-2.48608
-1.68989
-1.45686
-1.42668
-1.49977
-1.55385
-1.67998
-1.66337
-1.87076
-2.04812
-2.16004
-2.18115
-2.22892
-2.26893
-2.17579
-2.3117
-2.08775
-2.30329
-1.91277
-2.18225
-1.64076
-1.74547
-1.47465
-1.7014
-1.70614
-1.64554
-1.69787
-1.85625
-1.93387
-2.02723
-2.1319
-2.2224
-2.32064
-2.41183
-2.48654
-2.56135
-2.61017
-2.65953
-2.69571
-2.60622
-2.62119
-1.75443
-1.42784
-1.34788
-1.44277
-1.47445
-1.6174
-1.54437
-1.93352
-1.99249
-2.16951
-2.17844
-2.17312
-2.28102
-2.16973
-2.32204
-2.01559
-2.35497
-1.80906
-2.22028
-1.52546
-1.64738
-1.23893
-1.75899
-1.77332
-1.7323
-1.72763
-1.92463
-1.99754
-2.10098
-2.20593
-2.27323
-2.37822
-2.47347
-2.55494
-2.62308
-2.68295
-2.71296
-2.76112
-2.66422
-2.73209
-1.96004
-1.37009
-1.33483
-1.36461
-1.38288
-1.54593
-1.43233
-1.95214
-1.96608
-2.13501
-2.16359
-2.13074
-2.25298
-2.09653
-2.33013
-1.94915
-2.2973
-1.74777
-2.22282
-1.46128
-1.6181
-1.07607
-1.75062
-1.73796
-1.73949
-1.65167
-1.84361
-1.94186
-2.05102
-2.13146
-2.24612
-2.32175
-2.43401
-2.51377
-2.60813
-2.65779
-2.72582
-2.7986
-2.6715
-2.80294
-2.12584
-1.26654
-1.21367
-1.24165
-1.24778
-1.4438
-1.2819
-1.93403
-1.95201
-2.15957
-2.13788
-2.12285
-2.20976
-2.06907
-2.30032
-1.88457
-2.36868
-1.54026
-2.29298
-1.30657
-1.59545
-0.825198
-1.85195
-1.84999
-1.84603
-1.80915
-1.8812
-2.05532
-2.1433
-2.22729
-2.33326
-2.41764
-2.53164
-2.59971
-2.67164
-2.74361
-2.74278
-2.87366
-2.74642
-2.93016
-2.35524
-1.15917
-1.11166
-1.12162
-1.12717
-1.3319
-1.16063
-1.86795
-1.99682
-2.20161
-2.19388
-2.10909
-2.27087
-1.97055
-2.35406
-1.79244
-2.38967
-1.5727
-2.25523
-1.27682
-1.61752
-0.559923
-1.75607
-1.72105
-1.76888
-1.6711
-1.68857
-1.86502
-1.96517
-2.05306
-2.1599
-2.27531
-2.40038
-2.50197
-2.60921
-2.67969
-2.74006
-2.83175
-2.76349
-2.87395
-2.41321
-0.986123
-0.937044
-0.919108
-0.932006
-1.14492
-0.986195
-1.73983
-1.98002
-2.20989
-2.23705
-2.1223
-2.29119
-1.92029
-2.34144
-1.63515
-2.40182
-1.29134
-2.35574
-0.819135
-1.44484
0.0184431
-1.91482
-1.95886
-1.90382
-1.99479
-1.82775
-2.00205
-2.09737
-2.17612
-2.27503
-2.3742
-2.50153
-2.61135
-2.70295
-2.8507
-2.90635
-3.0842
-2.91555
-3.01681
-2.5493
-0.930788
-0.810381
-0.752376
-0.765641
-0.967656
-0.864711
-1.62278
-2.03994
-2.25551
-2.35272
-2.17404
-2.39144
-1.8897
-2.45187
-1.56717
-2.46946
-1.25763
-2.34332
-0.843843
-1.05541
0.773931
-1.76879
-1.71492
-1.7736
-1.68154
-1.73689
-1.62004
-1.82595
-1.87813
-2.01135
-2.12457
-2.28793
-2.41613
-2.57365
-2.7443
-2.76433
-3.06906
-2.91611
-2.94837
-2.54746
-0.763206
-0.560507
-0.450756
-0.464595
-0.677758
-0.687047
-1.46565
-2.039
-2.27358
-2.4306
-2.19139
-2.44952
-1.80875
-2.4488
-1.35639
-2.41449
-0.831969
-2.04328
0.0439392
-0.439888
2.60727
-1.90928
-2.05364
-1.91719
-2.06148
-1.91384
-1.92368
-2.00732
-2.04662
-2.15994
-2.26261
-2.39422
-2.55536
-2.70877
-2.90552
-2.98776
-3.2897
-3.0943
-3.17681
-2.60989
-0.709165
-0.372954
-0.225244
-0.229899
-0.44581
-0.57648
-1.39661
-2.089
-2.34747
-2.5653
-2.23242
-2.61905
-1.82874
-2.64738
-1.36248
-2.66681
-0.862382
-2.09811
0.406504
0.539506
4.71412
-2.22833
-1.77849
-1.93132
-1.58219
-1.69249
-1.53316
-1.65816
-1.69051
-1.85071
-1.9592
-2.16541
-2.33964
-2.56509
-2.80382
-3.02774
-3.22043
-3.23218
-3.20994
-2.53322
-0.571616
-0.102394
0.160974
0.162272
-0.113122
-0.38407
-1.27598
-2.0969
-2.37962
-2.68275
-2.21887
-2.62953
-1.69015
-2.57411
-1.11804
-2.52068
-0.405854
-1.43741
2.07734
3.5236
10.448
-1.84986
-2.37191
-2.18392
-2.24808
-1.91737
-1.76578
-1.82419
-1.82951
-1.93804
-2.03278
-2.1932
-2.38826
-2.62387
-2.90008
-3.09771
-3.4628
-3.48226
-3.39636
-2.48798
-0.609056
0.147889
0.476229
0.445631
0.118104
-0.3336
-1.26033
-2.08112
-2.45594
-2.81682
-2.23586
-2.69983
-1.64197
-2.67189
-1.17733
-2.6453
-0.628168
-1.3816
2.92941
6.29522
17.2518
-4.48909
-1.76999
-2.1207
-1.61642
-1.58396
-1.43712
-1.55069
-1.59027
-1.74479
-1.86181
-2.04025
-2.23308
-2.49622
-2.82175
-3.1717
-3.48778
-3.63152
-3.43628
-2.32462
-0.501014
0.481022
0.90663
0.789157
0.365421
-0.266051
-1.28702
-2.2123
-2.52592
-2.92626
-2.22806
-2.67323
-1.4661
-2.52741
-0.948644
-2.30869
-0.0109584
0.460247
7.12044
15.8842
34.1611
-0.220811
-0.255351
-0.301234
-0.316242
-0.335971
-0.357152
-0.404949
-0.436873
-0.462727
-0.505162
-0.526959
-0.59042
-0.643334
-0.694597
-0.671159
-0.696921
-0.740852
-0.712048
-0.725498
-0.683517
-0.63441
-1.20105
-1.59063
-1.45761
-1.6017
-1.44072
-1.46319
-1.34864
-1.30961
-1.19514
-1.21537
-1.16697
-1.23795
-1.23552
-1.31995
-1.36051
-1.42816
-1.409
-1.4082
-1.36513
-0.278495