/*--------------------------------*- C++ -*----------------------------------*\
| =========                 |                                                 |
| \\      /  F ield         | OpenFOAM: The Open Source CFD Toolbox           |
|  \\    /   O peration     | Version:  v1806                                 |
|   \\  /    A nd           | Web:      www.OpenFOAM.com                      |
|    \\/     M anipulation  |                                                 |
\*---------------------------------------------------------------------------*/
FoamFile
{
    version     2.0;
    format      ascii;
    class       surfaceScalarField;
    location    "0.1215";
    object      phi;
}
// * * * * * * * * * * * * * * * * * * * * * * * * * * * * * * * * * * * * * //

dimensions      [0 3 -1 0 0 0 0];
oriented        oriented;


internalField   nonuniform List<scalar> 
187200
(
7.09298e-06
1.78904e-06
-8.88387e-06
6.01142e-05
-2.74516e-05
-2.55691e-05
8.29691e-05
-1.16721e-05
-1.11819e-05
0.00010139
-9.69516e-06
-8.72518e-06
0.000116877
-7.02663e-06
-8.46031e-06
0.000134839
-7.41636e-06
-1.05457e-05
0.000152424
-4.68983e-06
-1.28938e-05
0.000172167
-3.71e-06
-1.60322e-05
0.000190858
-1.21812e-06
-1.74718e-05
0.000206622
2.16432e-06
-1.79272e-05
0.000221945
1.19138e-06
-1.65135e-05
0.00023963
2.7443e-06
-2.04278e-05
0.000244575
9.09598e-06
-1.40407e-05
0.000232168
1.91051e-05
-6.69833e-06
0.000197874
3.15018e-05
2.79237e-06
0.000167079
2.25574e-05
8.23739e-06
0.000126451
1.78539e-05
2.27737e-05
8.14988e-05
2.76639e-05
1.72878e-05
-9.52315e-06
8.52133e-05
5.8089e-06
-0.000159398
0.000136009
1.38667e-05
-0.000435331
0.000226826
4.91068e-05
-0.000631782
0.000230155
-3.37037e-05
-0.000785868
0.000278446
-0.00012436
-0.000835487
0.000298452
-0.000248834
-0.000826562
0.000330074
-0.000338998
-0.000760885
0.000359276
-0.000424954
-0.000653654
0.000386016
-0.000493247
-0.000515873
0.000402947
-0.000540728
-0.000346843
0.000395808
-0.000564839
-0.000177168
0.000380098
-0.000549775
-4.62685e-05
0.000344254
-0.000475153
3.69089e-05
0.000297553
-0.000380731
7.01009e-05
0.000233395
-0.000266587
6.19372e-05
0.000171031
-0.000162867
3.484e-05
0.000117606
-9.05086e-05
1.17098e-05
7.77817e-05
-5.46512e-05
-1.86108e-06
5.2065e-05
-3.84936e-05
-7.56715e-06
3.89709e-05
-3.32646e-05
-8.34372e-06
2.85836e-05
-2.7806e-05
1.8941e-05
-2.72842e-05
6.70765e-07
2.18483e-05
-2.07296e-05
4.44942e-05
-3.36444e-05
-3.76291e-05
8.75792e-05
-2.55093e-05
-2.92469e-05
0.000119471
-1.60475e-05
-2.55391e-05
0.000143416
-7.27387e-06
-2.36968e-05
0.000161883
1.64707e-06
-2.75296e-05
0.000173341
1.6497e-05
-3.26425e-05
0.000181687
2.61591e-05
-3.82129e-05
0.000178744
4.97217e-05
-4.79954e-05
0.000170693
6.52148e-05
-5.4998e-05
0.000136443
0.000105246
-6.98035e-05
8.29228e-05
0.000145236
-8.89708e-05
2.22965e-06
0.00018552
-9.57311e-05
-9.09092e-05
0.000217524
-0.00010528
-0.000199399
0.00027102
-0.000131029
-0.000349187
0.000338414
-0.000166069
-0.000510899
0.000419813
-0.000240247
-0.00068123
0.00049848
-0.000300484
-0.000839516
0.000609837
-0.000366336
-0.00100639
0.000722336
-0.000419449
-0.00117772
0.000849204
-0.00045105
-0.00128559
0.000930381
-0.000592355
-0.00136779
0.00103542
-0.000674778
-0.00137131
0.00107276
-0.000770789
-0.00130104
0.0011177
-0.000857898
-0.0011662
0.00114173
-0.000917295
-0.000981161
0.00115087
-0.000949892
-0.000759686
0.00112942
-0.000947952
-0.000530366
0.00107296
-0.000906469
-0.000309302
0.000993448
-0.000834413
-0.000115208
0.000864227
-0.000714066
4.4535e-05
0.000720068
-0.000582258
0.000126784
0.000570302
-0.000419156
0.000151652
0.000438817
-0.000292654
0.000136962
0.000321063
-0.000188768
0.000105449
0.00023637
-0.000127075
7.06184e-05
0.00017569
-8.8792e-05
4.21317e-05
0.00013715
-6.96906e-05
1.62483e-05
0.00010724
-5.27724e-05
7.20473e-05
-3.68575e-05
1.76222e-05
1.63131e-05
-1.20859e-05
5.71524e-05
-3.70091e-05
-3.6164e-05
9.80624e-05
-2.5986e-05
-4.04327e-05
0.000129209
-5.97842e-06
-4.12148e-05
0.000146306
2.17423e-05
-4.61133e-05
0.000154499
4.90811e-05
-5.5626e-05
0.000147615
8.68012e-05
-6.34186e-05
0.000135571
0.000119579
-8.13746e-05
0.000112793
0.000177283
-0.000104784
6.36216e-05
0.00024104
-0.000126653
-1.60986e-05
0.000323325
-0.000138358
-0.000111513
0.000398859
-0.000158208
-0.000246496
0.000498911
-0.000178407
-0.000414649
0.000603837
-0.000218159
-0.000598059
0.000713201
-0.000258771
-0.000769427
0.000821126
-0.000311344
-0.000912939
0.000934646
-0.000371322
-0.00103722
0.00105192
-0.000429168
-0.00115967
0.00120978
-0.000477489
-0.00129874
0.00137129
-0.000509887
-0.00144116
0.00150645
-0.000514821
-0.00151913
0.00160571
-0.00059736
-0.00156045
0.00170424
-0.000627497
-0.00154028
0.00171735
-0.000664762
-0.00145813
0.00174142
-0.000705872
-0.00132621
0.00172844
-0.000718619
-0.00115795
0.00169082
-0.000708217
-0.000964152
0.00160914
-0.000673507
-0.000759092
0.00149176
-0.000623864
-0.000544297
0.0013394
-0.000560746
-0.000366939
0.00116437
-0.0004775
-0.00021093
0.000976248
-0.000412188
-8.91953e-05
0.000773764
-0.000325197
-3.88233e-06
0.000610503
-0.000256999
3.46738e-05
0.000467934
-0.000185428
4.99622e-05
0.000361945
-0.000140864
4.8498e-05
0.000287387
-0.000110233
3.66679e-05
0.000238921
-8.99408e-05
1.63744e-05
0.000190433
-6.28999e-05
0.000125601
-3.71789e-05
2.05468e-05
1.2343e-05
-1.65758e-05
5.75483e-05
-2.65361e-05
-4.74733e-05
9.51025e-05
-5.07673e-06
-5.8463e-05
0.000116179
3.76987e-05
-6.47532e-05
0.000121046
8.69607e-05
-7.00847e-05
0.000112921
0.000140116
-8.29099e-05
9.62064e-05
0.000211664
-0.000108148
6.50367e-05
0.000283984
-0.000133235
1.44203e-05
0.000392606
-0.000164706
-6.11353e-05
0.000499961
-0.000183365
-0.000162165
0.000626729
-0.000202374
-0.000302863
0.000757199
-0.000217641
-0.000453788
0.000887733
-0.000237897
-0.000598266
0.00100261
-0.00025429
-0.000733156
0.00112638
-0.000278293
-0.0008561
0.00125174
-0.000307668
-0.000966597
0.00138515
-0.000340004
-0.00106289
0.00150424
-0.000356021
-0.00116443
0.00167064
-0.000359323
-0.00128016
0.00181273
-0.000325704
-0.00141829
0.00190231
-0.00025774
-0.00148847
0.00195948
-0.000283585
-0.00152777
0.00201162
-0.000268076
-0.00151245
0.0019672
-0.000265167
-0.00144886
0.00195084
-0.000273009
-0.00135339
0.00189468
-0.000261704
-0.00123452
0.00181554
-0.000243588
-0.00109897
0.00169643
-0.000222837
-0.000952462
0.00154344
-0.000198194
-0.000791909
0.00137246
-0.000193618
-0.000615307
0.00118046
-0.000192692
-0.00044054
0.000995417
-0.000193935
-0.000288019
0.000810319
-0.000189077
-0.000161582
0.000666695
-0.000182629
-7.58824e-05
0.0005446
-0.000162366
-2.00246e-05
0.000447262
-0.000141175
1.36651e-05
0.00037861
-0.000124912
2.45439e-05
0.000328496
-0.000100453
1.71018e-05
0.000266733
-6.88576e-05
0.000176335
-3.36317e-05
2.06272e-05
2.39389e-05
-3.22224e-05
5.76445e-05
8.42363e-06
-7.1976e-05
9.86248e-05
4.47378e-05
-9.07944e-05
0.000113654
0.000117444
-9.47744e-05
0.000107152
0.000198276
-0.000104814
8.00888e-05
0.000287413
-0.000120234
4.50657e-05
0.000399239
-0.000152552
4.33964e-06
0.000506151
-0.000181441
-3.9115e-05
0.000644339
-0.000208279
-0.000105235
0.000785814
-0.000219732
-0.000190542
0.000936716
-0.00022468
-0.000285322
0.00107448
-0.000222497
-0.000388138
0.00120853
-0.000217984
-0.000510191
0.00133929
-0.000214629
-0.000630649
0.00146086
-0.000214015
-0.000739148
0.00157177
-0.000211533
-0.000827177
0.00167533
-0.000202156
-0.000896249
0.0017448
-0.000171489
-0.000979279
0.00184402
-9.03513e-05
-0.00108716
0.00192215
-1.53959e-06
-0.00124341
0.00194781
0.000110754
-0.00132048
0.00191816
0.000118395
-0.00137845
0.00193126
0.000138332
-0.00139304
0.00185484
0.000126946
-0.00137545
0.00182476
0.000108486
-0.00133777
0.00175889
9.81048e-05
-0.00128116
0.00167755
8.13754e-05
-0.00121863
0.00156648
6.74173e-05
-0.00112913
0.00143079
2.31533e-05
-0.00101311
0.00127955
-2.31037e-05
-0.00086852
0.00111172
-7.58549e-05
-0.000701129
0.000956031
-0.000128005
-0.000527339
0.000796879
-0.000160351
-0.000362859
0.000676028
-0.000173814
-0.000226211
0.000584564
-0.000176611
-0.000116243
0.000497133
-0.000159837
-3.98393e-05
0.000441041
-0.000138836
4.55838e-06
0.000396627
-0.000112529
1.46507e-05
0.000328743
-7.21034e-05
0.000219413
-2.84289e-05
1.30994e-05
7.1315e-05
-6.04749e-05
5.81112e-05
7.86587e-05
-0.000115246
9.88508e-05
0.000140131
-0.000136133
0.000112587
0.000239913
-0.000136205
0.000101307
0.000345883
-0.000136327
6.74211e-05
0.000471119
-0.00014982
4.16134e-05
0.00061234
-0.000187293
1.53566e-05
0.000752323
-0.000219915
-2.20811e-05
0.000916078
-0.000234301
-7.82818e-05
0.00106528
-0.00022327
-0.00014201
0.00120655
-0.000206108
-0.000213137
0.0013294
-0.000183801
-0.00028948
0.00144408
-0.000159202
-0.000360441
0.00154024
-0.000129987
-0.00042725
0.00162363
-9.59611e-05
-0.000479967
0.00168346
-5.897e-05
-0.000539266
0.00172566
8.9665e-06
-0.000618337
0.00174171
8.2166e-05
-0.000713458
0.00176909
0.000170049
-0.000822652
0.00175014
0.000281205
-0.000989053
0.00176426
0.000349952
-0.00109205
0.00166491
0.000356252
-0.00118685
0.00166842
0.000357642
-0.00125073
0.00157667
0.000342039
-0.00128596
0.00154525
0.00031474
-0.00130556
0.00148706
0.000291429
-0.00131067
0.00142605
0.000256616
-0.00130339
0.00134366
0.000215541
-0.00127157
0.0012432
0.000155773
-0.00119002
0.00113555
6.2434e-05
-0.00107738
0.00101438
-1.52982e-05
-0.00091462
0.000896542
-0.000103267
-0.000733033
0.000779229
-0.000163937
-0.000538882
0.000681754
-0.000199877
-0.000357327
0.000611832
-0.000208821
-0.000210317
0.000537319
-0.000187193
-9.38824e-05
0.000488197
-0.000163589
-1.87635e-05
0.000448326
-0.000126817
9.89435e-06
0.000378432
-7.83452e-05
0.000256071
-2.67639e-05
1.30955e-05
0.000151097
-9.28775e-05
7.08259e-05
0.00018764
-0.000166711
0.000117927
0.000276732
-0.000183701
0.000136252
0.000397853
-0.000176265
0.000124379
0.000531063
-0.000173307
8.1772e-05
0.00069439
-0.000180664
7.58505e-05
0.000839831
-0.000221568
5.79581e-05
0.000999147
-0.000228931
4.34114e-05
0.00114889
-0.000218269
1.22711e-05
0.00128191
-0.000185481
-2.7943e-05
0.00139813
-0.000151359
-8.1429e-05
0.00149569
-0.000112796
-0.000139379
0.00157358
-7.15488e-05
-0.000194377
0.00162327
-2.80365e-05
-0.000249919
0.00165022
2.89453e-05
-0.000295048
0.0016434
8.51859e-05
-0.000347538
0.00163079
0.000147359
-0.000394689
0.00157463
0.000214232
-0.000485193
0.00155107
0.000308523
-0.000575338
0.00144929
0.000390989
-0.000747555
0.0014691
0.000467374
-0.000881657
0.00132354
0.000475465
-0.000997707
0.00132725
0.000457216
-0.00111182
0.00126143
0.000429359
-0.00119939
0.00124756
0.000385262
-0.00127526
0.0012157
0.000347224
-0.00133577
0.00118946
0.000297099
-0.0013773
0.00114332
0.000241878
-0.00139341
0.00108866
0.000170654
-0.00134596
0.00102478
6.33239e-05
-0.00126244
0.000940202
-9.33778e-06
-0.00112093
0.000849508
-9.44776e-05
-0.000930679
0.000759409
-0.000170433
-0.000707411
0.000669367
-0.000210879
-0.00047295
0.000620058
-0.000242687
-0.000294307
0.000576624
-0.000217946
-0.000140689
0.000529219
-0.000194638
-4.10971e-05
0.000495838
-0.000147102
6.65521e-06
0.000421994
-9.13111e-05
0.000291107
-2.83803e-05
2.05012e-05
0.000257018
-0.000126421
9.35792e-05
0.000329
-0.000214437
0.000151241
0.000444167
-0.000225097
0.000173328
0.000576848
-0.000201082
0.000160806
0.000725078
-0.000181492
0.000151458
0.000894298
-0.000190559
0.000163471
0.00104082
-0.000213
0.000165016
0.00119921
-0.000201608
0.000160066
0.00132446
-0.000170616
0.000129693
0.00143848
-0.000126203
9.10921e-05
0.00152457
-8.78408e-05
4.69552e-05
0.00158288
-4.30585e-05
-4.72855e-07
0.00161164
9.36365e-06
-4.97228e-05
0.00160305
6.94704e-05
-9.48915e-05
0.00157185
0.000123542
-0.000142518
0.00150696
0.000184063
-0.000192126
0.00143934
0.000241061
-0.00024077
0.00133484
0.000288434
-0.000307864
0.00127826
0.000339906
-0.00040806
0.00114488
0.00040461
-0.000548395
0.00115751
0.000451932
-0.000718274
0.0010304
0.00046302
-0.000853815
0.00102917
0.000433626
-0.0010106
0.00100857
0.000409646
-0.00113951
0.0010094
0.000367062
-0.0012532
0.00100287
0.000326514
-0.0013536
0.00100234
0.000287529
-0.00143265
0.000984575
0.000237787
-0.00147641
0.000965448
0.000166973
-0.00146574
0.000919367
9.47468e-05
-0.00140537
0.000859213
2.06199e-05
-0.00128425
0.000784158
-5.57738e-05
-0.00109325
0.000714506
-0.000146103
-0.000869154
0.000650093
-0.000204817
-0.000613472
0.000603321
-0.000238945
-0.000386447
0.000597084
-0.000247484
-0.000196572
0.000555388
-0.000216045
-6.70836e-05
0.000534712
-0.000168363
-3.99583e-07
0.000458765
-0.000103454
0.000322572
-3.18628e-05
3.59256e-05
0.000376513
-0.00015542
0.000134245
0.000486551
-0.000255872
0.000219602
0.000623191
-0.000264381
0.000256489
0.000761418
-0.000221457
0.000248726
0.000922647
-0.000189805
0.000252083
0.00107621
-0.000185269
0.000258299
0.00121614
-0.000181533
0.000268007
0.00134843
-0.000158929
0.000261724
0.0014537
-0.00012296
0.000239416
0.0015356
-7.4807e-05
0.000204839
0.00157984
-2.06918e-05
0.000164737
0.00159194
3.10475e-05
0.000113915
0.00157311
8.93536e-05
6.27771e-05
0.00151796
0.000136234
1.37867e-05
0.00143746
0.000183385
-3.66923e-05
0.00133093
0.000226514
-8.81494e-05
0.00122899
0.000261811
-0.000149009
0.00110901
0.000286684
-0.000207406
0.00103046
0.0003062
-0.000318955
0.000915665
0.000340765
-0.000428471
0.00090198
0.00036504
-0.00061516
0.00082996
0.00038713
-0.000772462
0.000818427
0.000368042
-0.000946075
0.000829795
0.000352391
-0.00109861
0.00083847
0.000323471
-0.00123411
0.000851306
0.00028706
-0.00136106
0.000861015
0.000268274
-0.00146461
0.000865601
0.000222517
-0.00154226
0.000850697
0.000192403
-0.00156727
0.000812516
0.000131864
-0.001527
0.000761358
5.75817e-05
-0.00142081
0.000705023
-2.70531e-05
-0.0012366
0.000644574
-0.000114279
-0.000997409
0.000594047
-0.000183149
-0.000723307
0.000555362
-0.000226143
-0.000466069
0.000580484
-0.000240637
-0.000248474
0.000572277
-0.000234485
-8.89741e-05
0.000560035
-0.000184824
-8.31448e-06
0.000494314
-0.00011621
0.000351896
-3.76365e-05
5.50309e-05
0.000493815
-0.000172333
0.00017676
0.000651435
-0.000286614
0.000288688
0.000801403
-0.000290141
0.000337449
0.000941835
-0.000229179
0.000348491
0.00108971
-0.000178106
0.000351123
0.00122583
-0.000152252
0.000347079
0.00135263
-0.000132451
0.00035004
0.00145366
-0.000108188
0.000350117
0.00152525
-7.16203e-05
0.000334839
0.00156842
-1.7549e-05
0.00030284
0.0015821
2.97308e-05
0.000249136
0.00155365
9.19918e-05
0.000194033
0.00149039
0.000137829
0.0001373
0.00139389
0.0001808
8.10955e-05
0.00128072
0.000212942
2.40059e-05
0.00115109
0.000236927
-3.15952e-05
0.00103479
0.000249797
-9.62237e-05
0.000919133
0.00025451
-0.00015493
0.000837345
0.000251822
-0.000266559
0.000757336
0.000269958
-0.000370398
0.00072716
0.000278658
-0.000546383
0.000695231
0.000310713
-0.000718097
0.000680751
0.000309391
-0.000888132
0.000695366
0.000304463
-0.00104894
0.000705861
0.000293411
-0.00119337
0.000724414
0.000271323
-0.00133602
0.000739261
0.0002644
-0.0014665
0.000743432
0.000252653
-0.00156371
0.000725527
0.000222375
-0.00161533
0.000695079
0.00016906
-0.0016003
0.000656172
9.01597e-05
-0.00151472
0.000609836
9.60244e-06
-0.00135075
0.000565148
-8.45419e-05
-0.00111324
0.000527992
-0.000171456
-0.00083638
0.000489708
-0.000211207
-0.000542424
0.000514157
-0.00022763
-0.000301815
0.000553401
-0.000221734
-0.000116658
0.00056641
-0.000191532
-1.78135e-05
0.000516847
-0.00012138
0.000375984
-4.19015e-05
7.10722e-05
0.00059892
-0.000176178
0.0002215
0.000804106
-0.0003031
0.000358267
0.000966609
-0.000301974
0.000426357
0.00110232
-0.000228577
0.000452773
0.00122915
-0.000165852
0.000448525
0.00134407
-0.000113985
0.000443836
0.00144436
-8.70438e-05
0.000430955
0.00151709
-5.05475e-05
0.00041261
0.00156261
-1.9022e-05
0.000390192
0.00157188
1.89623e-05
0.000363563
0.00153986
6.88782e-05
0.000312716
0.00147784
0.000126653
0.000249081
0.00138598
0.000168046
0.000182775
0.00125885
0.000201345
0.000118154
0.00112466
0.000220681
5.52603e-05
0.000987618
0.000226368
-4.92538e-06
0.000871708
0.000223272
-7.20885e-05
0.000769998
0.000216299
-0.000136635
0.000695872
0.00020602
-0.000239697
0.000643112
0.000217287
-0.000343563
0.00060767
0.000223356
-0.000495415
0.000589536
0.000257546
-0.000661781
0.000577967
0.000269149
-0.000820426
0.000577538
0.000276472
-0.000977318
0.000586461
0.000276291
-0.00112822
0.00059848
0.000276836
-0.00128352
0.000614782
0.000279779
-0.00143014
0.000609989
0.000280059
-0.00155229
0.00059834
0.000249339
-0.0016303
0.000574227
0.00019886
-0.00165431
0.000539215
0.000140968
-0.00159764
0.000509075
4.4088e-05
-0.00145207
0.000472943
-5.3364e-05
-0.00120765
0.000447311
-0.000163742
-0.00091268
0.000418005
-0.000223262
-0.000605629
0.00044121
-0.000234106
-0.000343927
0.000502177
-0.000210478
-0.000136179
0.000557471
-0.000198807
-2.44079e-05
0.000530159
-0.000125085
0.000399086
-4.75103e-05
8.33739e-05
0.000685891
-0.000170346
0.000259589
0.000938099
-0.000310208
0.000419577
0.00111413
-0.000307512
0.000506169
0.00123772
-0.000221991
0.000543529
0.00133919
-0.0001474
0.000541167
0.00142655
-8.01228e-05
0.000529857
0.00150066
-4.49902e-05
0.000503972
0.00154598
-3.01026e-06
0.000468342
0.00156386
3.43795e-05
0.000423436
0.00154097
7.58186e-05
0.000378087
0.00148685
9.83593e-05
0.000327354
0.00138863
0.00013995
0.000270617
0.00126536
0.000177355
0.000200542
0.0011251
0.000203826
0.000133529
0.00098235
0.000209327
6.81971e-05
0.000848076
0.000204875
9.13601e-06
0.000738381
0.000192389
-5.54226e-05
0.000651398
0.000183159
-0.000121926
0.00058657
0.000175806
-0.000218326
0.000549726
0.000189785
-0.000315587
0.000507854
0.000197077
-0.000448737
0.000492319
0.000230367
-0.000591008
0.000473436
0.000246802
-0.000732529
0.000458632
0.000260427
-0.000877639
0.000461328
0.000270241
-0.00102675
0.000468758
0.000278834
-0.00119297
0.00047451
0.000306489
-0.00135052
0.000472788
0.000294754
-0.00148864
0.00046798
0.000268478
-0.0015988
0.00045515
0.00022924
-0.00163972
0.000446551
0.000133586
-0.00161676
0.000414762
7.13507e-05
-0.00151322
0.000379935
-1.05332e-05
-0.00131519
0.000355274
-0.000105992
-0.00101829
0.000336364
-0.000215266
-0.000679295
0.000356423
-0.000254205
-0.000380811
0.000424034
-0.000220341
-0.000162008
0.000516337
-0.00017767
-3.25849e-05
0.000530507
-0.00012977
0.000418878
-5.23778e-05
9.31823e-05
0.000745443
-0.000152733
0.000292488
0.00104277
-0.000303975
0.000477847
0.00122966
-0.000300884
0.000582593
0.00133963
-0.000206654
0.000623559
0.00142056
-0.00012234
0.000625538
0.00147984
-5.52656e-05
0.000605813
0.00152204
-1.65264e-06
0.000570621
0.00154248
3.86916e-05
0.000518387
0.00153232
8.37804e-05
0.000454721
0.00148546
0.000119169
0.000388465
0.00140422
0.000148882
0.000322372
0.00128894
0.000165781
0.000260165
0.00115154
0.000176025
0.000197553
0.000999131
0.000188584
0.000131811
0.000857535
0.000190559
7.21383e-05
0.000730444
0.000177305
1.56047e-05
0.000630522
0.000164393
-4.05019e-05
0.000551061
0.000156444
-0.000102036
0.000490523
0.000157583
-0.000186739
0.000458637
0.000175793
-0.000270463
0.000402824
0.000188755
-0.000386764
0.000390451
0.000218169
-0.000502553
0.000356868
0.000232357
-0.000624718
0.000333528
0.00024727
-0.000757387
0.00032976
0.000264237
-0.000907701
0.000329062
0.00029001
-0.00107005
0.000335679
0.000301183
-0.00123488
0.000342254
0.000295366
-0.00139113
0.000344888
0.000279341
-0.00151806
0.000350075
0.000232002
-0.00160482
0.000334807
0.000198502
-0.00162927
0.00031049
0.000128723
-0.00157133
0.000265752
5.6247e-05
-0.00140028
0.000225423
-4.12048e-05
-0.00112803
0.000216774
-0.000152654
-0.000769567
0.000238026
-0.000240067
-0.000426388
0.000334481
-0.000253625
-0.00017796
0.000449439
-0.000181531
-4.09077e-05
0.000515191
-0.000121736
0.000435619
-5.76465e-05
9.59766e-05
0.000783268
-0.0001338
0.000313476
0.00111874
-0.000293473
0.000522806
0.00131454
-0.000294215
0.000643506
0.0014125
-0.000193571
0.000687964
0.00147294
-9.68424e-05
0.00069065
0.00150928
-3.21298e-05
0.000662462
0.00152498
2.52504e-05
0.000612421
0.00151235
8.01749e-05
0.000547267
0.00147576
0.00012171
0.000474406
0.00140817
0.000150152
0.000393578
0.00131102
0.000174025
0.000309686
0.0011817
0.000191129
0.000236363
0.00103676
0.000188102
0.000175711
0.000883628
0.000176157
0.000118743
0.000747029
0.000167473
6.96475e-05
0.000627993
0.000151546
2.52276e-05
0.000533782
0.00014116
-1.99887e-05
0.00045877
0.000137508
-7.25978e-05
0.000397678
0.000145455
-0.000140667
0.00036
0.000166708
-0.000214971
0.000292939
0.000184191
-0.000312245
0.000279863
0.000207863
-0.000401538
0.000232117
0.000214044
-0.000504656
0.000208554
0.000228092
-0.000622934
0.000199133
0.000248905
-0.000764524
0.000197098
0.000273555
-0.000918575
0.000205744
0.000283986
-0.00108182
0.000217598
0.0002879
-0.00124166
0.000227714
0.00027702
-0.00139505
0.000232624
0.000270838
-0.00152482
0.000220414
0.000244161
-0.00159629
0.000180257
0.000201709
-0.00158587
0.000128992
0.000126334
-0.00146474
7.7268e-05
2.70274e-05
-0.00121866
5.17348e-05
-8.10405e-05
-0.000877427
8.16295e-05
-0.000184837
-0.000489229
0.00019392
-0.000247638
-0.000205718
0.000375452
-0.000209526
-4.37034e-05
0.000480567
-0.000127394
0.000456122
-6.4206e-05
0.000100873
0.000784805
-0.000102411
0.000335463
0.00115215
-0.000268
0.000563141
0.00136072
-0.000273854
0.000698274
0.00145389
-0.00017653
0.000744717
0.00149554
-6.90404e-05
0.000740723
0.00150717
6.10658e-06
0.000702235
0.00149583
6.7635e-05
0.000643202
0.00145683
0.000114546
0.000569204
0.00139683
0.000152928
0.000485087
0.00131142
0.000180869
0.000394108
0.00119953
0.000202466
0.000302805
0.00106532
0.00020769
0.000218684
0.000919784
0.0002011
0.000154185
0.00077349
0.000174637
0.000108715
0.000642113
0.000150385
6.87862e-05
0.000533241
0.000134681
3.5794e-05
0.000444499
0.000122277
2.65304e-06
0.000367895
0.000124018
-3.92889e-05
0.000302101
0.000137521
-8.36118e-05
0.000247668
0.000156658
-0.000153492
0.000185032
0.000177789
-0.000226295
0.00016031
0.000192357
-0.000300892
0.00011146
0.000195254
-0.000387884
8.9025e-05
0.000206523
-0.000495356
7.82752e-05
0.00022833
-0.000618624
7.73577e-05
0.00024301
-0.000756631
8.28864e-05
0.000260865
-0.000905662
9.83705e-05
0.000268258
-0.0010735
0.000112342
0.000283207
-0.0012409
0.000113048
0.000286983
-0.00139793
9.66534e-05
0.000280791
-0.00151772
5.59113e-05
0.000244138
-0.00156399
-5.55447e-06
0.00018081
-0.00150072
-7.84756e-05
9.24748e-05
-0.00129725
-0.000127508
-2.4226e-05
-0.000975891
-0.000114473
-0.000125258
-0.00057203
3.34014e-06
-0.000213281
-0.000215801
0.000249794
-0.000230569
-5.50976e-05
0.000450519
-0.000130654
0.000464504
-6.3484e-05
9.91423e-05
0.000764502
-7.88389e-05
0.00034311
0.00115308
-0.000244895
0.000585043
0.00137512
-0.000256338
0.000732155
0.00146657
-0.00015979
0.00078446
0.00149467
-5.14349e-05
0.000773469
0.0014789
3.92563e-05
0.000724964
0.00144417
0.000100161
0.00065407
0.00138198
0.000145744
0.00057245
0.00130438
0.000174078
0.00048113
0.00120293
0.000199808
0.000383374
0.0010815
0.000215787
0.000286383
0.000944156
0.00021815
0.000199933
0.000802022
0.000204211
0.000134701
0.000664914
0.000173807
9.08799e-05
0.000542769
0.000143167
6.66768e-05
0.000436594
0.000120852
4.8584e-05
0.000349117
0.000113475
3.02515e-05
0.000273497
0.000112731
-5.26531e-06
0.000209195
0.000128424
-3.68233e-05
0.000135885
0.000143342
-9.46878e-05
8.03523e-05
0.000162546
-0.00014475
4.36699e-05
0.000166703
-0.000210607
2.25708e-06
0.000175059
-0.000285731
-2.02153e-05
0.000184365
-0.000374321
-3.20851e-05
0.00019895
-0.000476067
-3.22044e-05
0.000211309
-0.000595498
-2.42547e-05
0.000226573
-0.000731607
-1.78899e-05
0.000252371
-0.000885425
-8.36149e-06
0.000274522
-0.00105635
-1.12426e-05
0.000295213
-0.00123251
-2.44031e-05
0.000297217
-0.00138703
-6.74393e-05
0.00027787
-0.00148523
-0.000133734
0.000226387
-0.00148279
-0.000226372
0.000145454
-0.00134733
-0.000304524
4.15555e-05
-0.00105898
-0.000327418
-7.54034e-05
-0.000674426
-0.000211182
-0.000170035
-0.000273641
5.71777e-05
-0.000208166
-5.57984e-05
0.000374176
-0.000141495
0.000473276
-6.45719e-05
0.000113875
0.00066481
-1.41835e-05
0.000367895
0.00109062
-0.000191556
0.00062033
0.00133557
-0.000212883
0.000781049
0.00142827
-0.000122422
0.000830347
0.00144651
-1.138e-06
0.000808436
0.00141512
8.56897e-05
0.000745179
0.00136002
0.000147412
0.000663916
0.00127863
0.000184615
0.000574587
0.00118731
0.000206398
0.000478885
0.00107821
0.000220425
0.000381535
0.000955717
0.000223133
0.000286093
0.000823119
0.000216479
0.000200974
0.000690392
0.000196749
0.000136025
0.000563211
0.000166654
9.39986e-05
0.000450918
0.000133879
6.87572e-05
0.000351679
0.000110157
5.17885e-05
0.000267992
9.80948e-05
4.04261e-05
0.000183949
0.000100911
2.84215e-05
0.000109946
0.000111255
3.15977e-06
3.74193e-05
0.000123729
-4.30187e-05
-9.0084e-06
0.00013554
-8.22407e-05
-5.91126e-05
0.000142005
-0.000139928
-9.40011e-05
0.000153945
-0.00020158
-0.000123772
0.000165208
-0.000270459
-0.000137376
0.000174171
-0.000355169
-0.000136537
0.000189044
-0.000454569
-0.000135258
0.000210405
-0.000574611
-0.000133543
0.000235696
-0.000717434
-0.000130408
0.000264869
-0.000880608
-0.000138491
0.000290424
-0.00105868
-0.000153538
0.000307207
-0.00123081
-0.000197227
0.000301919
-0.00136743
-0.000264434
0.000267319
-0.00142016
-0.000372276
0.00019863
-0.00134591
-0.000477747
9.89718e-05
-0.0011123
-0.000545838
-1.51826e-05
-0.000741273
-0.000466331
-0.000115881
-0.000330124
-0.000184469
-0.000169503
-4.88789e-05
0.000254272
-0.000161339
0.00048038
-5.59797e-05
0.000107643
0.000549259
7.90721e-06
0.000352692
0.00102455
-0.000178985
0.000618723
0.00128454
-0.000215001
0.000794977
0.00137624
-0.000124217
0.00085403
0.00138269
4.7694e-06
0.000832262
0.00132821
0.000108684
0.000767864
0.00125473
0.000169688
0.000675728
0.00116392
0.000206851
0.000570824
0.00106931
0.000222901
0.000463799
0.0009562
0.000229032
0.000362937
0.000831958
0.000224621
0.000271518
0.000704311
0.000210227
0.0001947
0.000580195
0.000187014
0.000135435
0.000465729
0.000156748
9.65147e-05
0.000364602
0.000125237
7.80748e-05
0.000268561
0.000101558
7.62679e-05
0.000180843
8.89557e-05
7.55162e-05
9.85087e-05
8.61924e-05
6.72145e-05
2.7861e-05
9.03873e-05
4.59064e-05
-3.98687e-05
9.85966e-05
2.41093e-05
-9.49571e-05
0.000107746
-9.51328e-06
-0.000142778
0.000117287
-5.84255e-05
-0.000178053
0.000132963
-0.000118709
-0.000209653
0.000146164
-0.000184549
-0.000230947
0.00015941
-0.000248876
-0.000247476
0.000175267
-0.00032964
-0.000251465
0.000196971
-0.000430551
-0.000254496
0.000221865
-0.00055264
-0.00025728
0.000248961
-0.000698535
-0.000270948
0.000278352
-0.00087055
-0.00028369
0.000302167
-0.00105276
-0.000327013
0.000311994
-0.00122102
-0.000392511
0.000296338
-0.00132788
-0.000513008
0.000247589
-0.0013212
-0.000646855
0.000162435
-0.0011444
-0.000785537
6.28907e-05
-0.00079827
-0.000764374
-4.80826e-05
-0.000394534
-0.000465114
-0.000123093
-6.1383e-05
4.66179e-05
-0.000125499
0.000439182
-2.01833e-05
0.00014084
0.000333016
7.5403e-05
0.000360565
0.000890911
-8.60835e-05
0.00062722
0.00116903
-0.000151142
0.000807002
0.00126467
-6.82114e-05
0.000871301
0.00126684
5.15456e-05
0.000839695
0.00121254
0.000147275
0.000760895
0.00112689
0.000206637
0.000658418
0.00102566
0.000240734
0.000556882
0.000917723
0.000253121
0.000462525
0.000803591
0.000246966
0.000372808
0.000692751
0.000228924
0.00028767
0.000585271
0.00020418
0.000214853
0.00047984
0.000173172
0.000160575
0.000381337
0.000138669
0.000128747
0.000289098
0.000107333
0.000113688
0.000202743
8.0878e-05
0.000110274
0.000120678
6.358e-05
0.000104586
4.2354e-05
6.18426e-05
0.000100455
-3.04354e-05
6.24278e-05
9.02428e-05
-9.70826e-05
6.74256e-05
7.3742e-05
-0.000157967
7.9511e-05
5.18606e-05
-0.000212663
9.17656e-05
1.38288e-05
-0.00025232
0.000112298
-3.82238e-05
-0.000286568
0.000128968
-0.000100907
-0.000312473
0.000144209
-0.000167526
-0.000341754
0.000160898
-0.000241439
-0.000356759
0.000179207
-0.000327921
-0.000374014
0.000206001
-0.000435417
-0.000388474
0.000238689
-0.000559785
-0.000421526
0.000274946
-0.000707539
-0.000447358
0.000311421
-0.000872727
-0.000500826
0.000339002
-0.00105364
-0.000555968
0.000344373
-0.00119191
-0.000696188
0.000321441
-0.00123515
-0.000860476
0.000256863
-0.00114118
-0.00103667
0.000157165
-0.000860819
-0.00108322
3.84777e-05
-0.000425155
-0.000844489
-5.62886e-05
-8.34571e-05
-0.000212957
-8.21255e-05
0.000340243
1.54823e-05
0.000114502
0.000175922
4.25923e-05
0.000312238
0.000797502
-0.000104326
0.000579725
0.00107146
-0.000169922
0.000768672
0.00116713
-9.14142e-05
0.000854575
0.00115054
3.03977e-05
0.000842361
0.00108269
0.000142057
0.000786812
0.00098474
0.000197701
0.000695455
0.000887667
0.00022935
0.000590504
0.000793967
0.000228707
0.000479565
0.000700825
0.000213705
0.000376299
0.000605429
0.000190588
0.000285237
0.000512207
0.000164126
0.000212863
0.000417794
0.00013442
0.000161036
0.000326667
0.000106496
0.000130128
0.000238285
8.17211e-05
0.000115419
0.000158355
5.90979e-05
0.000111955
8.4884e-05
3.92571e-05
0.000119908
3.63444e-06
3.0766e-05
0.000126644
-6.94198e-05
3.22479e-05
0.000133802
-0.000138281
3.40415e-05
0.000129739
-0.000202113
4.8209e-05
0.000111601
-0.000261019
6.64938e-05
7.58428e-05
-0.000307053
9.04904e-05
3.26309e-05
-0.000352273
0.000108917
-1.99944e-05
-0.000384708
0.00012486
-8.34316e-05
-0.00041832
0.000140002
-0.000147404
-0.000446219
0.000153432
-0.00021332
-0.000482525
0.000174426
-0.000295789
-0.000508874
0.000202868
-0.000403958
-0.000552151
0.000238795
-0.000543782
-0.000590012
0.000282477
-0.000709904
-0.00066459
0.000329888
-0.000893785
-0.000744298
0.00037221
-0.00107049
-0.000904174
0.00038469
-0.00118516
-0.00109603
0.000350223
-0.00115271
-0.00133543
0.000266307
-0.000958938
-0.00143655
0.000159566
-0.000535612
-0.00129813
3.03102e-05
-0.000133293
-0.000602467
-1.28116e-05
0.000160911
4.60412e-05
7.55286e-05
5.95449e-05
4.08481e-05
0.000297235
0.000670726
-9.49319e-05
0.000558759
0.00097129
-0.000161353
0.000764429
0.00107476
-0.000113297
0.000861302
0.00106352
-9.85014e-06
0.000854418
0.00100034
8.92356e-05
0.000777102
0.000900087
0.000161969
0.000670808