/*--------------------------------*- C++ -*----------------------------------*\
| =========                 |                                                 |
| \\      /  F ield         | OpenFOAM: The Open Source CFD Toolbox           |
|  \\    /   O peration     | Version:  v1806                                 |
|   \\  /    A nd           | Web:      www.OpenFOAM.com                      |
|    \\/     M anipulation  |                                                 |
\*---------------------------------------------------------------------------*/
FoamFile
{
    version     2.0;
    format      ascii;
    class       volVectorField;
    location    "0.1215";
    object      U;
}
// * * * * * * * * * * * * * * * * * * * * * * * * * * * * * * * * * * * * * //

dimensions      [0 1 -1 0 0 0 0];


internalField   nonuniform List<vector> 
64000
(
(-0.0124236 -0.0136047 -0.0106415)
(0.0156889 -0.0130496 -0.00794665)
(0.0209009 -0.00403247 4.13795e-05)
(0.0254673 -0.00319563 0.00137801)
(0.0262917 -0.00233757 0.00167455)
(0.027079 -0.00303893 0.00219742)
(0.0275935 -0.00409477 0.00205702)
(0.0258911 -0.00504966 0.00278527)
(0.0265444 -0.00631095 0.00296584)
(0.0222855 -0.0067799 0.00442537)
(0.0186528 -0.00803341 0.00246091)
(0.00994496 -0.00875496 0.00811778)
(0.0010807 -0.0126469 0.00709193)
(-0.0175106 -0.0190213 0.00484918)
(-0.038584 -0.0204422 0.00432924)
(-0.0702546 -0.0216263 0.00356961)
(-0.086417 -0.00654924 0.000598242)
(-0.126986 -0.00761811 -0.0028878)
(-0.11486 -0.0117574 0.00196937)
(-0.172777 -0.0285684 -0.0113001)
(-0.135436 -0.0203736 -0.0153586)
(-0.0521754 -0.0234188 -0.0351581)
(-0.08082 -0.00483591 -0.0198066)
(-0.0792502 -0.00248059 -0.0344166)
(-0.102642 0.00368182 -0.0453011)
(-0.0959178 0.011551 -0.0560973)
(-0.0872947 0.0221437 -0.0609704)
(-0.0512315 0.0333089 -0.0577933)
(-0.0229878 0.0410216 -0.0533937)
(0.0231236 0.056281 -0.0355943)
(0.0733256 0.0478674 -0.033605)
(0.109212 0.0390587 -0.0249716)
(0.123103 0.0289029 -0.0115281)
(0.119895 0.0146174 -0.00447169)
(0.10318 0.00589393 0.0021027)
(0.0815737 -0.00223954 0.00457745)
(0.0600664 -0.00600503 0.00688307)
(0.0380243 -0.00566723 0.00800686)
(0.0206959 -0.0039903 0.00747729)
(0.00394367 -0.00251705 0.00531583)
(-0.00915809 0.00545079 -0.00680583)
(0.00619076 -0.0162723 -0.00678964)
(0.0205905 -0.00994109 -0.00268759)
(0.031915 -0.00664757 -0.000889101)
(0.0380117 -0.00272671 -0.00159821)
(0.039242 -0.00126386 -0.00166984)
(0.0389342 0.00188492 -0.00366096)
(0.0331585 0.00317825 -0.00282376)
(0.0277286 0.00588105 -0.00802315)
(0.0123351 0.0117939 -0.00344019)
(-0.00660798 0.0180171 -0.00813204)
(-0.0389423 0.0261343 6.66936e-05)
(-0.0800732 0.0354829 -0.00391103)
(-0.128181 0.0512664 -0.00690769)
(-0.179726 0.0664532 -0.0119525)
(-0.233534 0.0754878 -0.0172066)
(-0.293623 0.0836594 -0.0428982)
(-0.391214 0.0847693 -0.059822)
(-0.428915 0.0918032 -0.0777654)
(-0.512815 0.0943343 -0.0933062)
(-0.451449 0.12315 -0.08498)
(-0.336927 0.140477 -0.122617)
(-0.348931 0.189732 -0.127704)
(-0.335861 0.210392 -0.141033)
(-0.333073 0.234218 -0.153507)
(-0.293269 0.255089 -0.16108)
(-0.249153 0.276246 -0.163287)
(-0.177689 0.292545 -0.152232)
(-0.107167 0.2996 -0.132527)
(-0.0390343 0.308097 -0.108667)
(0.0262873 0.290793 -0.071404)
(0.0947314 0.258417 -0.0455016)
(0.128467 0.206506 -0.0366563)
(0.14056 0.157052 -0.0245798)
(0.13293 0.107395 -0.0108888)
(0.111219 0.0677013 -0.00348237)
(0.0890902 0.0396903 0.00105801)
(0.0623786 0.0249263 0.00192919)
(0.0373802 0.0155872 0.00287475)
(0.00956434 0.00799941 0.00328745)
(-0.000765321 2.252e-05 0.00153699)
(0.0133954 -0.0201431 -0.00254756)
(0.0284483 -0.0148894 -0.00325161)
(0.0392376 -0.00438221 -0.00430437)
(0.0420237 0.00365624 -0.00613617)
(0.0408303 0.0131782 -0.00744847)
(0.0349505 0.0261882 -0.00904205)
(0.0202061 0.0381793 -0.010535)
(0.00657387 0.0606369 -0.00280665)
(-0.0210864 0.0797418 -0.00424484)
(-0.0564026 0.105853 -0.00816027)
(-0.104155 0.133773 -0.0124098)
(-0.153985 0.169252 -0.0173643)
(-0.223533 0.197219 -0.0310969)
(-0.307952 0.218392 -0.0376234)
(-0.401252 0.233115 -0.0440911)
(-0.473564 0.239957 -0.0617462)
(-0.555945 0.254571 -0.0808047)
(-0.584898 0.288424 -0.0985945)
(-0.654788 0.326609 -0.113408)
(-0.576959 0.363006 -0.0962102)
(-0.434499 0.400827 -0.123049)
(-0.425001 0.457189 -0.118966)
(-0.400832 0.485979 -0.120511)
(-0.389397 0.517481 -0.124948)
(-0.344709 0.537581 -0.124679)
(-0.29968 0.55189 -0.120391)
(-0.233696 0.554037 -0.105181)
(-0.172331 0.544693 -0.0824089)
(-0.108042 0.524091 -0.0591281)
(-0.0547445 0.496879 -0.0381103)
(-0.0126969 0.444973 -0.0269924)
(0.0220013 0.372386 -0.0122492)
(0.0492174 0.299332 -0.00679228)
(0.0574564 0.222989 -0.00862997)
(0.0601744 0.160859 -0.00898692)
(0.0581263 0.112839 -0.00498179)
(0.0469683 0.0772057 -0.00318201)
(0.0329794 0.0510093 0.000143247)
(0.0101302 0.0259545 0.00240083)
(0.000655485 -0.00385215 0.00222101)
(0.0156197 -0.0206687 -0.00164761)
(0.033351 -0.00907385 -0.00422276)
(0.0397554 0.00603776 -0.00743365)
(0.0381273 0.028308 -0.00809396)
(0.0346922 0.0506336 -0.00946428)
(0.0222286 0.0822964 -0.0082867)
(0.00519817 0.112843 -0.00474533)
(-0.0199714 0.155784 -0.0106184)
(-0.0627843 0.192518 -0.0125435)
(-0.10639 0.235344 -0.0177566)
(-0.163488 0.272044 -0.0238511)
(-0.237478 0.301621 -0.02951)
(-0.324348 0.316832 -0.0301547)
(-0.400809 0.337707 -0.0336095)
(-0.47437 0.359725 -0.0383888)
(-0.531662 0.391853 -0.0548648)
(-0.599982 0.421554 -0.0651567)
(-0.61543 0.469034 -0.075617)
(-0.676012 0.519602 -0.0767442)
(-0.584713 0.548989 -0.0357862)
(-0.420128 0.579705 -0.0439815)
(-0.398694 0.617633 -0.0332966)
(-0.37396 0.622216 -0.0269744)
(-0.363593 0.634956 -0.0263178)
(-0.327741 0.633308 -0.0224587)
(-0.294367 0.625286 -0.019064)
(-0.24462 0.6043 -0.0110295)
(-0.200535 0.577613 0.00127308)
(-0.155778 0.543069 0.00866029)
(-0.127381 0.502093 0.0132893)
(-0.101393 0.456056 0.0118261)
(-0.0775499 0.399849 0.0059922)
(-0.0519641 0.335615 -0.00155689)
(-0.0283817 0.264794 -0.00445359)
(-0.00517857 0.199902 -0.00890686)
(0.0113675 0.146366 -0.00680054)
(0.0182468 0.110329 -0.00640855)
(0.0222784 0.0764672 -0.00178919)
(0.00852375 0.03799 0.0023063)
(0.00039445 -0.00358328 0.000650061)
(0.0199562 -0.00954584 -0.00338115)
(0.0394539 0.00667171 -0.00868102)
(0.0471772 0.0380801 -0.00857301)
(0.044789 0.0733575 -0.00899853)
(0.0376922 0.116615 -0.0141796)
(0.0205452 0.17044 -0.0114877)
(-0.00605121 0.223112 -0.00594501)
(-0.0377424 0.277749 -0.00866585)
(-0.0873894 0.323449 -0.0110335)
(-0.141662 0.360495 -0.014638)
(-0.213195 0.382041 -0.0170434)
(-0.283506 0.400758 -0.0176691)
(-0.349321 0.423775 -0.0205136)
(-0.409683 0.453153 -0.0230744)
(-0.473978 0.485049 -0.0245578)
(-0.518383 0.516451 -0.0300543)
(-0.569697 0.547128 -0.0287838)
(-0.563724 0.60844 -0.0217592)
(-0.609373 0.659854 -0.0280444)
(-0.519696 0.685663 0.0155033)
(-0.348855 0.697035 0.0191807)
(-0.325078 0.704457 0.0354684)
(-0.309609 0.672413 0.0381316)
(-0.312522 0.656463 0.0371672)
(-0.295851 0.628251 0.0415956)
(-0.282076 0.596448 0.044144)
(-0.250963 0.55742 0.0490743)
(-0.227182 0.515444 0.0424099)
(-0.201571 0.474368 0.0335504)
(-0.183278 0.429026 0.0231424)
(-0.172545 0.395784 0.0150139)
(-0.163477 0.358741 0.00822016)
(-0.146123 0.328071 -0.00286508)
(-0.123767 0.27633 -0.012034)
(-0.0857832 0.206446 -0.0131215)
(-0.0394689 0.159426 -0.0115018)
(-0.00844739 0.128738 -0.0100094)
(0.00822824 0.0945973 -0.00405178)
(0.00584967 0.0466222 0.00224042)
(0.00357704 0.0026449 -0.000410955)
(0.0237674 0.00791648 -0.00722962)
(0.051464 0.0349481 -0.00799658)
(0.0603702 0.0851296 -0.00985004)
(0.0553546 0.13987 -0.0151861)
(0.0533708 0.200386 -0.0168051)
(0.0328535 0.272644 -0.013526)
(0.000186736 0.323563 -0.00470906)
(-0.0450456 0.36734 -0.00783758)
(-0.110783 0.399051 -0.0100223)
(-0.175226 0.426287 -0.0124263)
(-0.23593 0.450587 -0.0120928)
(-0.287575 0.480602 -0.0106825)
(-0.340111 0.509538 -0.00737922)
(-0.381151 0.536035 -0.00220647)
(-0.426952 0.564096 0.00288659)
(-0.452737 0.594357 0.00660176)
(-0.472434 0.626736 0.0101526)
(-0.455721 0.677795 0.00690364)
(-0.493145 0.722156 0.0106813)
(-0.40789 0.738645 0.0503568)
(-0.258176 0.701912 0.0575606)
(-0.253395 0.678966 0.0726091)
(-0.25956 0.614768 0.0797849)
(-0.275299 0.577434 0.0799435)
(-0.278141 0.533804 0.0780099)
(-0.280073 0.492873 0.0752205)
(-0.268851 0.449816 0.0678118)
(-0.256981 0.40359 0.0646851)
(-0.244842 0.364155 0.043533)
(-0.236322 0.321303 0.0312131)
(-0.223779 0.289881 0.016613)
(-0.209829 0.265139 0.00476371)
(-0.202982 0.254221 -0.0048324)
(-0.206392 0.234761 -0.0171887)
(-0.159295 0.188278 -0.0133091)
(-0.081111 0.15577 -0.0130535)
(-0.0315571 0.130788 -0.0102537)
(-0.00013944 0.099581 -0.00513891)
(0.0039634 0.0480145 0.00350774)
(0.00447549 0.00833269 -0.00174883)
(0.0335039 0.0235071 -0.0101514)
(0.0731903 0.0630971 -0.0110974)
(0.0929378 0.119165 -0.0136219)
(0.0868509 0.183885 -0.0200138)
(0.0829906 0.256099 -0.0200293)
(0.0452662 0.315365 -0.0146761)
(-0.0155885 0.346951 -0.00152212)
(-0.065004 0.385108 -0.00704334)
(-0.119574 0.418058 -0.00731911)
(-0.162582 0.456335 -0.00732451)
(-0.207617 0.494837 -0.00508454)
(-0.246836 0.530801 -0.00116738)
(-0.286262 0.560761 0.00285557)
(-0.31671 0.590826 0.0102183)
(-0.345247 0.613969 0.0153675)
(-0.353224 0.641657 0.0239028)
(-0.369575 0.65689 0.0269909)
(-0.33723 0.675968 0.0313389)
(-0.355561 0.687351 0.0182701)
(-0.331111 0.705541 0.0476118)
(-0.209772 0.599564 0.0606459)
(-0.20093 0.56491 0.0706878)
(-0.223526 0.49772 0.0790338)
(-0.250352 0.462965 0.0775907)
(-0.270747 0.424974 0.0758859)
(-0.288525 0.393955 0.0718393)
(-0.294234 0.360106 0.0629694)
(-0.295832 0.32516 0.0481797)
(-0.296126 0.291237 0.0304762)
(-0.293883 0.258838 0.0160577)
(-0.28462 0.230466 0.00204749)
(-0.268337 0.209773 -0.00517179)
(-0.250252 0.195524 -0.0113006)
(-0.252243 0.202415 -0.018335)
(-0.208472 0.185127 -0.0191189)
(-0.116105 0.159738 -0.019037)
(-0.0468453 0.138652 -0.0147391)
(-0.00521338 0.106767 -0.00831081)
(0.00426157 0.051613 0.00201861)
(0.00583851 0.0168493 -0.00405752)
(0.0408895 0.0431301 -0.0140892)
(0.0910427 0.0909128 -0.0138723)
(0.113306 0.146636 -0.012087)
(0.115421 0.205548 -0.0139018)
(0.0981703 0.277166 -0.0140994)
(0.0380952 0.304036 -0.00357361)
(-0.00774496 0.347423 0.00133483)
(-0.0396609 0.391788 -0.00254193)
(-0.0862657 0.440276 -0.000683172)
(-0.123445 0.479784 -0.000177205)
(-0.160697 0.513189 0.00570303)
(-0.190787 0.540277 0.0114583)
(-0.21605 0.561525 0.0196346)
(-0.23245 0.581218 0.0237114)
(-0.252088 0.59066 0.0290619)
(-0.25744 0.599493 0.0330354)
(-0.267334 0.589382 0.0331586)
(-0.253035 0.593749 0.0307494)
(-0.257127 0.55194 0.0178732)
(-0.278395 0.575139 0.0245725)
(-0.20173 0.466009 0.0439849)
(-0.171421 0.427031 0.0472892)
(-0.206426 0.38154 0.0590535)
(-0.240015 0.357527 0.0608315)
(-0.273748 0.333001 0.061929)
(-0.301522 0.312941 0.0625736)
(-0.320179 0.288533 0.0530202)
(-0.333373 0.26479 0.040801)
(-0.34092 0.236335 0.0166191)
(-0.343453 0.206431 0.00596756)
(-0.332532 0.182608 -0.00403686)
(-0.316375 0.169531 -0.0126177)
(-0.28851 0.159199 -0.0143364)
(-0.289597 0.172342 -0.0221885)
(-0.25361 0.184964 -0.0187428)
(-0.15143 0.162121 -0.0194273)
(-0.065467 0.144508 -0.0141214)
(-0.00990258 0.110714 -0.00790006)
(0.00456774 0.0522764 0.00317779)
(0.00412822 0.0322316 -0.00649536)
(0.0490304 0.0744071 -0.0172672)
(0.11104 0.130232 -0.0186297)
(0.139297 0.185135 -0.0132617)
(0.145922 0.246577 -0.0156274)
(0.109117 0.294575 -0.0128517)
(0.0541619 0.328147 -0.00437527)
(0.0209451 0.379476 0.00307592)
(-0.00838035 0.414351 0.00588574)
(-0.0435022 0.453284 0.00651334)
(-0.0779927 0.48439 0.010693)
(-0.106516 0.504989 0.0151902)
(-0.126556 0.519671 0.0239826)
(-0.143652 0.525279 0.0298684)
(-0.157696 0.52236 0.032913)
(-0.172731 0.508878 0.0337454)
(-0.181451 0.495135 0.0330371)
(-0.19304 0.467039 0.0290145)
(-0.203241 0.451123 0.0223498)
(-0.201061 0.403427 0.0117776)
(-0.24489 0.41239 -0.000612367)
(-0.216232 0.353187 0.0203745)
(-0.166351 0.313393 0.0247922)
(-0.199643 0.29545 0.0368257)
(-0.237957 0.28207 0.0431102)
(-0.279291 0.268245 0.048069)
(-0.315672 0.25594 0.05252)
(-0.342805 0.237801 0.0455734)
(-0.366096 0.219045 0.0278922)
(-0.384144 0.18897 0.00918833)
(-0.386942 0.166616 -0.00098034)
(-0.374043 0.144323 -0.00543382)
(-0.358634 0.130691 -0.010367)
(-0.325462 0.130544 -0.0202788)
(-0.305445 0.137944 -0.024962)
(-0.2798 0.175306 -0.0280243)
(-0.18741 0.163586 -0.0223718)
(-0.081331 0.151935 -0.0208993)
(-0.0151884 0.117431 -0.0104328)
(0.00551849 0.0561016 0.00132272)
(0.00538047 0.0491894 -0.0082005)
(0.0575894 0.112575 -0.0237914)
(0.129433 0.172159 -0.0227471)
(0.165414 0.22595 -0.0155697)
(0.163291 0.279469 -0.0164307)
(0.126776 0.309249 -0.01432)
(0.0833521 0.355696 -0.00414497)
(0.0515507 0.395751 0.00686068)
(0.0237935 0.427946 0.0130834)
(-0.000926435 0.449898 0.0219024)
(-0.0273113 0.468456 0.0186712)
(-0.0544121 0.477659 0.029214)
(-0.072328 0.477767 0.0347626)
(-0.0889068 0.461631 0.0401358)
(-0.102519 0.437396 0.0411902)
(-0.119196 0.405531 0.0384839)
(-0.134568 0.37493 0.0328705)
(-0.149972 0.33852 0.0258328)
(-0.172063 0.314025 0.0164368)
(-0.172499 0.281858 0.00912372)
(-0.219213 0.277296 -0.0103734)
(-0.219056 0.262216 0.00537701)
(-0.163997 0.240329 0.0118435)
(-0.190621 0.237217 0.0223837)
(-0.23205 0.228222 0.03312)
(-0.27751 0.221465 0.041459)
(-0.318255 0.208839 0.0493931)
(-0.353843 0.196861 0.0402555)
(-0.385703 0.173361 0.0295858)
(-0.402124 0.149301 0.0159323)
(-0.41094 0.124426 0.0148746)
(-0.406044 0.102082 0.019177)
(-0.386202 0.0830343 0.0146028)
(-0.356155 0.0827868 0.00992796)
(-0.328428 0.093245 -0.00961069)
(-0.301679 0.13848 -0.0228798)
(-0.216044 0.153969 -0.0215028)
(-0.101856 0.146876 -0.0169631)
(-0.0214916 0.120005 -0.00936963)
(0.00629683 0.0561277 0.00270865)
(0.00645322 0.0722811 -0.0103831)
(0.0665405 0.156408 -0.0292799)
(0.147929 0.218951 -0.0287097)
(0.188229 0.269099 -0.0179658)
(0.181482 0.30532 -0.0126703)
(0.150418 0.337269 -0.0138932)
(0.11985 0.37606 -0.00323208)
(0.0875832 0.409034 0.00409258)
(0.0623347 0.432323 0.0131243)
(0.0346583 0.446974 0.0260309)
(0.0113497 0.446745 0.0343417)
(-0.00655383 0.441114 0.0418741)
(-0.0260434 0.423734 0.0440462)
(-0.047673 0.395701 0.0459437)
(-0.0659283 0.359878 0.045428)
(-0.0847094 0.318327 0.0403354)
(-0.105365 0.284133 0.0314365)
(-0.125171 0.251471 0.0217495)
(-0.152148 0.228954 0.0113517)
(-0.157109 0.211529 0.00364114)
(-0.200144 0.204209 -0.0145017)
(-0.204137 0.204179 -0.00149122)
(-0.151813 0.200648 0.00538759)
(-0.177292 0.195935 0.015172)
(-0.216861 0.187939 0.0281089)
(-0.265375 0.178929 0.0375414)
(-0.310269 0.170075 0.04511)
(-0.349051 0.153261 0.0401896)
(-0.385521 0.13351 0.0322827)
(-0.412408 0.107586 0.0376846)
(-0.429382 0.0758939 0.0385549)
(-0.432855 0.0526221 0.0217935)
(-0.419413 0.0388447 0.0183021)
(-0.383848 0.0353673 0.00832652)
(-0.338287 0.0470952 0.0026424)
(-0.310311 0.0871659 -0.0177132)
(-0.238759 0.128507 -0.0241302)
(-0.118224 0.13923 -0.0186749)
(-0.0247826 0.118449 -0.0105119)
(0.00588097 0.0567798 0.00143632)
(0.00783827 0.0923988 -0.0106187)
(0.0726974 0.196382 -0.0326247)
(0.162211 0.262076 -0.0312475)
(0.201175 0.300811 -0.0164224)
(0.198238 0.327986 -0.0107136)
(0.17847 0.358781 -0.00881353)
(0.151705 0.387082 -0.00333265)
(0.121908 0.408365 0.00732711)
(0.0947263 0.423574 0.0132184)
(0.0696124 0.425823 0.0229598)
(0.0475891 0.421877 0.0339775)
(0.0235896 0.40119 0.0488672)
(0.0036501 0.370393 0.0519226)
(-0.0152677 0.329971 0.05016)
(-0.039197 0.291912 0.0444188)
(-0.061482 0.2511 0.0387895)
(-0.0826369 0.218733 0.0277507)
(-0.104601 0.19359 0.0174302)
(-0.132251 0.177202 0.00753645)
(-0.140205 0.171164 0.000565403)
(-0.18068 0.164619 -0.0155689)
(-0.179785 0.169137 -0.00335903)
(-0.131784 0.17048 0.00154712)
(-0.155114 0.159284 0.0114883)
(-0.19271 0.148939 0.0243021)
(-0.238072 0.136505 0.034025)
(-0.284152 0.126587 0.0407018)
(-0.326649 0.109362 0.0382471)
(-0.367316 0.0881914 0.0502285)
(-0.403209 0.0583191 0.0559643)
(-0.426906 0.0322721 0.0516786)
(-0.432017 0.00442289 0.0566238)
(-0.429814 -0.0181563 0.0387248)
(-0.410475 -0.0220076 0.0345171)
(-0.372479 -0.014037 0.0262993)
(-0.330918 0.0303754 0.01319)
(-0.251491 0.0849663 -0.0176866)
(-0.135944 0.12071 -0.0204996)
(-0.0320568 0.112214 -0.0098084)
(0.00788319 0.0546362 0.00135448)
(0.00820005 0.112441 -0.00885063)
(0.0779596 0.235818 -0.0339428)
(0.168417 0.301872 -0.0328032)
(0.212629 0.330545 -0.0158379)
(0.220121 0.353554 -0.00441158)
(0.204579 0.377092 0.00017833)
(0.179441 0.394522 0.00363467)
(0.152139 0.405766 0.0069256)
(0.127575 0.410437 0.0171469)
(0.101942 0.40665 0.025794)
(0.0770044 0.390713 0.0349117)
(0.0518207 0.362509 0.04146)
(0.0273911 0.325636 0.0513403)
(0.00398257 0.279368 0.051576)
(-0.0175314 0.235172 0.0430092)
(-0.0413611 0.200031 0.0344623)
(-0.0641408 0.170964 0.0237705)
(-0.0850641 0.151304 0.0133651)
(-0.109473 0.139361 0.00546493)
(-0.118454 0.138664 -0.00104911)
(-0.153523 0.130804 -0.0129238)
(-0.14359 0.140142 -0.00270121)
(-0.103192 0.13792 0.000688997)
(-0.126986 0.121114 0.0095343)
(-0.158571 0.106379 0.021827)
(-0.202724 0.0930725 0.0312293)
(-0.245671 0.0795504 0.0368727)
(-0.289878 0.06262 0.0523701)
(-0.337614 0.0398638 0.0620644)
(-0.377456 0.0155121 0.0652271)
(-0.411553 -0.0190763 0.069299)
(-0.447345 -0.0579722 0.0510083)
(-0.454496 -0.0973 0.0365416)
(-0.43681 -0.116557 0.0111808)
(-0.389011 -0.106137 0.00412094)
(-0.346076 -0.059099 0.00326228)
(-0.273621 0.0296085 0.00788149)
(-0.148696 0.0814182 -0.0222328)
(-0.0369682 0.0961986 -0.00843418)
(0.00710161 0.0488272 0.000948195)
(0.00813027 0.121787 -0.00735677)
(0.0762843 0.261095 -0.0357125)
(0.168134 0.329375 -0.0357769)
(0.218802 0.355155 -0.0171839)
(0.237527 0.369204 -0.000188805)
(0.227321 0.381864 0.00758225)
(0.201441 0.390677 0.0134373)
(0.175084 0.394656 0.0155464)
(0.15188 0.393142 0.0183761)
(0.127176 0.380906 0.0246261)
(0.101285 0.357743 0.0326835)
(0.0721453 0.323501 0.0394151)
(0.0437568 0.282742 0.041711)
(0.0179166 0.237246 0.045176)
(-0.00389526 0.193647 0.040331)
(-0.0241115 0.157868 0.029554)
(-0.0449086 0.135866 0.01917)
(-0.0633692 0.117641 0.0102927)
(-0.0819209 0.10724 0.00411265)
(-0.0906148 0.108671 -0.00148584)
(-0.11636 0.0964213 -0.0093325)
(-0.0997536 0.113619 -0.000576403)
(-0.0718031 0.101159 -0.000599203)
(-0.0936436 0.0802718 0.00861451)
(-0.119273 0.0632336 0.0183191)
(-0.155981 0.0463987 0.0265894)
(-0.19711 0.0353649 0.0421525)
(-0.240722 0.0176558 0.0559439)
(-0.286481 -0.00412237 0.0624676)
(-0.340623 -0.0368921 0.0673897)
(-0.402202 -0.0800533 0.0549914)
(-0.444925 -0.126231 0.0450565)
(-0.464709 -0.16563 0.0294541)
(-0.452938 -0.196146 0.0156461)
(-0.412938 -0.19717 -0.00776351)
(-0.347953 -0.164319 -0.00613946)
(-0.279982 -0.0619317 -0.00483681)
(-0.175115 0.0427966 -0.00987041)
(-0.0420499 0.0777063 -0.017202)
(0.009826 0.0455244 0.00140617)
(0.00694937 0.129346 -0.00425568)
(0.075162 0.281981 -0.0345065)
(0.167417 0.355084 -0.0371536)
(0.224071 0.378088 -0.0179213)
(0.250282 0.383923 0.00297403)
(0.244589 0.383447 0.0167225)
(0.222636 0.385191 0.0250897)
(0.198936 0.383748 0.0274984)
(0.175032 0.376987 0.0293914)
(0.147716 0.358317 0.0298598)
(0.119954 0.329788 0.0301677)
(0.0910469 0.291015 0.0296195)
(0.0606647 0.248086 0.0334919)
(0.0315212 0.203376 0.0338014)
(0.00835519 0.162591 0.0327931)
(-0.00780101 0.126989 0.0253291)
(-0.0238382 0.102622 0.0138421)
(-0.041751 0.087553 0.00728877)
(-0.050562 0.0772943 0.0033186)
(-0.059701 0.0757109 -0.00242603)
(-0.0700844 0.063523 -0.00417034)
(-0.0519471 0.0837978 -5.35542e-05)
(-0.043168 0.0599412 0.00085927)
(-0.0601354 0.0400605 0.00784546)
(-0.0798859 0.0209745 0.0161349)
(-0.109017 0.00644981 0.0275353)
(-0.14206 -0.0100301 0.0421251)
(-0.18707 -0.0301095 0.0500806)
(-0.243427 -0.0589403 0.0589136)
(-0.307963 -0.0974929 0.053278)
(-0.368454 -0.138374 0.0490988)
(-0.422794 -0.183843 0.0382884)
(-0.458457 -0.230081 0.0256325)
(-0.46372 -0.268959 0.00876527)
(-0.430706 -0.287442 -0.0108164)
(-0.3653 -0.259347 -0.0194709)
(-0.273992 -0.1807 -0.0150209)
(-0.174971 -0.0290522 0.00356861)
(-0.0584167 0.0452525 -0.0134267)
(0.00743926 0.0340462 -0.000256476)
(0.00431479 0.113431 -0.00439167)
(0.0679458 0.278806 -0.0346493)
(0.160511 0.358033 -0.0366266)
(0.222011 0.382382 -0.0172396)
(0.255608 0.383579 0.00623962)
(0.258647 0.378966 0.0195361)
(0.24247 0.375995 0.0265879)
(0.217728 0.366933 0.030281)
(0.191329 0.351792 0.0320538)
(0.162825 0.329335 0.0324741)
(0.133577 0.297857 0.0299969)
(0.101853 0.258719 0.0250162)
(0.0710807 0.215009 0.0202203)
(0.0422967 0.172606 0.0188258)
(0.0192621 0.135661 0.0193969)
(0.00300257 0.104182 0.0159419)
(-0.00575887 0.0787243 0.00946758)
(-0.0137406 0.0605877 0.00366479)
(-0.019094 0.0490373 0.00105472)
(-0.0244748 0.0403401 -0.00360202)
(-0.0204477 0.0397521 -0.000818491)
(-0.0110093 0.0396391 -0.000349474)
(-0.0166996 0.0180351 0.00278012)
(-0.0269308 -0.000606534 0.00711962)
(-0.040714 -0.0190555 0.0126992)
(-0.0655692 -0.0390319 0.0249386)
(-0.101042 -0.0615073 0.0356028)
(-0.144743 -0.0893723 0.0448124)
(-0.198434 -0.118522 0.0454496)
(-0.2573 -0.152409 0.0465638)
(-0.321687 -0.19148 0.0424374)
(-0.383182 -0.239988 0.0367622)
(-0.429757 -0.291559 0.0252525)
(-0.452581 -0.341998 0.0102558)
(-0.435459 -0.37305 -0.00927554)
(-0.380649 -0.364093 -0.0236043)
(-0.280672 -0.288625 -0.0264152)
(-0.181375 -0.144724 -0.0149465)
(-0.0657539 0.00487591 -0.0122675)
(0.0071527 0.0191904 -0.00219288)
(0.0060533 0.112343 0.00237445)
(0.0682946 0.284027 -0.0264267)
(0.15836 0.367693 -0.0309581)
(0.225586 0.389738 -0.0107284)
(0.268564 0.386073 0.0134572)
(0.279756 0.373926 0.0214576)
(0.263986 0.36434 0.0298835)
(0.236659 0.348628 0.0313792)
(0.208834 0.330925 0.0314762)
(0.178636 0.304014 0.0289083)
(0.14791 0.269994 0.0243649)
(0.116351 0.228421 0.0175048)
(0.0850656 0.185492 0.010658)
(0.0573248 0.143704 0.00770821)
(0.0353268 0.109014 0.00384113)
(0.0212656 0.0791436 0.00427089)
(0.0120795 0.0547642 0.000741025)
(0.00650768 0.0339973 -0.0018095)
(0.00986223 0.0234129 -0.00333527)
(0.0162782 0.0112072 -0.00437107)
(0.018021 0.00878619 -0.00106423)
(0.0180613 -0.00884745 0.000979214)
(0.0122509 -0.024847 0.0028313)
(0.0016481 -0.0429217 0.00570941)
(-0.0145409 -0.0627036 0.0135973)
(-0.039305 -0.0868187 0.022972)
(-0.0695782 -0.110003 0.0300471)
(-0.108425 -0.136648 0.033427)
(-0.156226 -0.162036 0.0370931)
(-0.212685 -0.193388 0.037995)
(-0.275256 -0.230774 0.0384428)
(-0.337565 -0.27988 0.035055)
(-0.390881 -0.336135 0.027298)
(-0.425091 -0.398006 0.0135703)
(-0.42369 -0.444941 -0.00513308)
(-0.380907 -0.45943 -0.0221516)
(-0.2905 -0.399663 -0.0334913)
(-0.171977 -0.258244 -0.0249917)
(-0.0590011 -0.0653104 -0.00569936)
(-0.00384197 0.00251693 -5.21237e-05)
(-0.00411682 0.0819728 -0.0077656)
(0.0474094 0.261963 -0.0328357)
(0.139571 0.355662 -0.0388978)
(0.215898 0.382298 -0.0171014)
(0.270244 0.379904 0.00195054)
(0.293734 0.361555 0.0148496)
(0.286189 0.344652 0.0229377)
(0.258057 0.321909 0.0244072)
(0.225928 0.297034 0.0219747)
(0.190092 0.269432 0.0178957)
(0.15564 0.237467 0.0129984)
(0.12159 0.20067 0.00813233)
(0.0914829 0.159671 0.00286933)
(0.066024 0.118054 -0.00147535)
(0.0470809 0.0829403 -0.00353283)
(0.0338601 0.0547606 -0.00522714)
(0.0303569 0.0343697 -0.00674218)
(0.0360094 0.0169133 -0.00747009)
(0.0406992 0.00546777 -0.00793255)
(0.0453397 -0.0130712 -0.0051025)
(0.045408 -0.0297314 -0.00186833)
(0.0425292 -0.0500162 0.00114935)
(0.0368838 -0.0684469 0.00265703)
(0.0245177 -0.0879636 0.00530011)
(0.00840577 -0.108448 0.00921274)
(-0.0134148 -0.130716 0.0137045)
(-0.0415933 -0.151231 0.0175076)
(-0.0747897 -0.17415 0.0224437)
(-0.115445 -0.199579 0.0252006)
(-0.165795 -0.233423 0.0276023)
(-0.224649 -0.272774 0.0291152)
(-0.287053 -0.325392 0.028974)
(-0.344465 -0.384621 0.0244355)
(-0.388214 -0.454994 0.0144365)
(-0.402114 -0.513789 -0.00320544)
(-0.37452 -0.544678 -0.0191516)
(-0.293672 -0.503977 -0.0402129)
(-0.182795 -0.377446 -0.0371345)
(-0.0566404 -0.162231 -0.00940798)
(0.00603803 -0.0226301 -0.00181067)
(-0.00394304 0.135887 0.00340397)
(0.0421129 0.329441 -0.0114065)
(0.127688 0.427532 -0.0203465)
(0.207349 0.44986 -0.00308704)
(0.270844 0.439458 0.0036444)
(0.301316 0.40676 0.0175447)
(0.297243 0.377764 0.025013)
(0.267197 0.355609 0.0273079)
(0.237998 0.343497 0.0243005)
(0.206998 0.325505 0.0185276)
(0.172996 0.297484 0.0115534)
(0.136159 0.25886 0.00577654)
(0.100548 0.212135 0.000326045)
(0.0750014 0.16281 -0.00371117)
(0.0609296 0.117491 -0.00668712)
(0.0569008 0.0792873 -0.0067272)
(0.055321 0.0500192 -0.00754478)
(0.0578787 0.0211314 -0.0109177)
(0.0609542 -0.00767841 -0.0123371)
(0.0626522 -0.0338215 -0.00795465)
(0.0623055 -0.0567971 -0.00313343)
(0.059564 -0.0800001 0.000306705)
(0.0539978 -0.100446 0.00189898)
(0.04211 -0.123898 0.00362831)
(0.0259513 -0.144684 0.00545663)
(0.00612621 -0.168146 0.00825493)
(-0.0163502 -0.189919 0.00936854)
(-0.0477269 -0.212443 0.00923552)
(-0.0891851 -0.233161 0.0114307)
(-0.136605 -0.261375 0.0151969)
(-0.189236 -0.293478 0.020558)
(-0.242864 -0.34294 0.0239168)
(-0.297144 -0.406179 0.0229599)
(-0.342949 -0.488722 0.0150817)
(-0.364227 -0.572886 -0.00276785)
(-0.351391 -0.639091 -0.0250348)
(-0.296814 -0.637425 -0.0516471)
(-0.192127 -0.50673 -0.0509929)
(-0.0522259 -0.286461 -0.0241726)
(0.0087812 -0.0775939 -0.0016376)
(-0.0202871 0.20928 -0.0150494)
(0.0108251 0.445499 -0.0320451)
(0.0947897 0.554622 -0.0386748)
(0.175751 0.58997 -0.0223691)
(0.242959 0.579449 -0.0126628)
(0.287337 0.543798 0.00794297)
(0.308491 0.499657 0.0152811)
(0.304328 0.467345 0.0146718)
(0.278758 0.44182 0.00593097)
(0.229386 0.40683 -0.00122708)
(0.178075 0.361943 -0.00663536)
(0.128463 0.309328 -0.00976424)
(0.088854 0.252977 -0.0121759)
(0.0632856 0.200665 -0.0144315)
(0.051683 0.149802 -0.0168151)
(0.0503965 0.100792 -0.0182026)
(0.0538421 0.0549176 -0.0177786)
(0.0586183 0.0195671 -0.0135771)
(0.0646519 -0.015092 -0.0122146)
(0.0739747 -0.0448523 -0.00858604)
(0.0752204 -0.0715933 -0.00621104)
(0.0731639 -0.0959635 -0.00443962)
(0.0664613 -0.117069 -0.00215107)
(0.0541161 -0.139175 0.00115197)
(0.0401661 -0.162067 0.00288854)
(0.0215494 -0.189314 0.00466714)
(0.00127674 -0.217667 0.00529065)
(-0.0196657 -0.248575 0.00431726)
(-0.0495949 -0.274189 0.00195617)
(-0.088618 -0.305724 -0.00016444)
(-0.139643 -0.337785 -0.00170581)
(-0.198585 -0.388806 -0.00169265)
(-0.258293 -0.449159 -0.000142125)
(-0.31552 -0.538474 -0.00191446)
(-0.356382 -0.6358 -0.0107951)
(-0.363653 -0.737026 -0.02496)
(-0.293639 -0.766241 -0.0456374)
(-0.210627 -0.665235 -0.0676767)
(-0.0753116 -0.385674 -0.0266894)
(0.0181584 -0.121498 0.0012008)
(-0.00357664 0.183476 0.00769582)
(0.0259966 0.425068 -0.0298605)
(0.0941073 0.548653 -0.0408751)
(0.175517 0.602738 -0.0361083)
(0.242528 0.603383 -0.0283006)
(0.286326 0.57935 -0.0133294)
(0.305652 0.533189 -0.00208647)
(0.294941 0.485871 0.00112855)
(0.263078 0.433624 -0.00299631)
(0.213982 0.385261 -0.00526802)
(0.163435 0.335217 -0.00779034)
(0.116675 0.284531 -0.00919704)
(0.082007 0.235006 -0.0117293)
(0.0609716 0.188341 -0.0143453)
(0.0482577 0.142138 -0.0176135)
(0.0466493 0.0971026 -0.0189644)
(0.0558124 0.0545106 -0.0181871)
(0.0671919 0.0158038 -0.0178131)
(0.0732616 -0.0136904 -0.0142973)
(0.0801774 -0.0459515 -0.0111668)
(0.0830169 -0.0750095 -0.00971321)
(0.0842799 -0.100891 -0.00833862)
(0.0800755 -0.120694 -0.00604861)
(0.0667283 -0.138953 -0.00301856)
(0.0471958 -0.155568 4.65742e-05)
(0.025466 -0.177494 0.00455118)
(0.00535849 -0.20131 0.00717908)
(-0.0136236 -0.235089 0.00757395)
(-0.0405131 -0.267385 0.00598795)
(-0.0717377 -0.310356 0.00451899)
(-0.113204 -0.359094 0.00223136)
(-0.157863 -0.431735 -4.39147e-05)
(-0.21032 -0.517187 -0.00361587)
(-0.263557 -0.638256 -0.00716554)
(-0.311312 -0.761728 -0.012216)
(-0.333082 -0.88313 -0.021399)
(-0.2917 -0.93734 -0.0394047)
(-0.188514 -0.885509 -0.0561056)
(-0.0708094 -0.582449 -0.0554259)
(-0.00565401 -0.203416 0.015478)
(-0.0052381 0.197437 0.00354576)
(0.020718 0.413224 -0.0271095)
(0.0805375 0.536133 -0.0381554)
(0.152539 0.589117 -0.0357183)
(0.216477 0.59078 -0.0204018)
(0.263183 0.564243 -0.0117695)
(0.28998 0.519062 0.000100653)
(0.286134 0.472194 0.00377009)
(0.258114 0.423559 0.00167302)
(0.210132 0.378253 -0.000483378)
(0.155935 0.331483 -0.00305196)
(0.108913 0.28498 -0.00588383)
(0.0757649 0.240594 -0.0098277)
(0.0549471 0.195821 -0.0132803)
(0.0448633 0.153097 -0.0162731)
(0.0463796 0.112209 -0.0193227)
(0.0542016 0.072251 -0.0213964)
(0.069184 0.0289492 -0.0198205)
(0.0783076 -0.00710953 -0.0216411)
(0.0848483 -0.0376268 -0.0191467)
(0.089803 -0.065778 -0.0167456)
(0.0952161 -0.092316 -0.0133422)
(0.0953903 -0.112856 -0.00959217)
(0.0865428 -0.131047 -0.00732607)
(0.0703622 -0.143657 -0.00564747)
(0.0474344 -0.156657 -0.00188604)
(0.0203979 -0.168932 0.0024197)
(-0.000847864 -0.192593 0.00703365)
(-0.0272626 -0.216707 0.00873108)
(-0.0626139 -0.248124 0.0096118)
(-0.113259 -0.283133 0.0112068)
(-0.168988 -0.345714 0.0140232)
(-0.230707 -0.428098 0.0170471)
(-0.281275 -0.555753 0.0181147)
(-0.307171 -0.711057 0.011446)
(-0.317038 -0.883748 0.00327117)
(-0.282446 -1.00473 -0.0135963)
(-0.190604 -1.02397 -0.0411062)
(-0.0450314 -0.797411 -0.0509945)
(0.0246268 -0.350282 -0.0110489)
(-0.00166855 0.180791 0.00152719)
(0.02601 0.378556 -0.0206572)
(0.0799765 0.507217 -0.0323729)
(0.145764 0.565696 -0.030863)
(0.205895 0.578896 -0.018681)
(0.248972 0.556897 -0.00910712)
(0.276597 0.515041 0.0019322)
(0.272837 0.466495 0.00645488)
(0.243883 0.415743 0.00478352)
(0.198019 0.367037 0.00202453)
(0.146723 0.321747 -0.00139769)
(0.104331 0.280172 -0.00498078)
(0.0740836 0.241604 -0.00938429)
(0.0568371 0.202334 -0.0130258)
(0.0488688 0.166635 -0.0175237)
(0.0497739 0.128154 -0.021501)
(0.0551712 0.0895632 -0.0232385)
(0.0675543 0.0469011 -0.0234798)
(0.0825575 0.00470988 -0.0236608)
(0.0935563 -0.025836 -0.0261824)
(0.0972851 -0.0516172 -0.0253645)
(0.104242 -0.0782702 -0.0205935)
(0.107605 -0.0999648 -0.0149332)
(0.102489 -0.120411 -0.00976699)