/*--------------------------------*- C++ -*----------------------------------*\
| =========                 |                                                 |
| \\      /  F ield         | OpenFOAM: The Open Source CFD Toolbox           |
|  \\    /   O peration     | Version:  v1806                                 |
|   \\  /    A nd           | Web:      www.OpenFOAM.com                      |
|    \\/     M anipulation  |                                                 |
\*---------------------------------------------------------------------------*/
FoamFile
{
    version     2.0;
    format      ascii;
    class       volVectorField;
    location    "0.1215";
    object      U_0;
}
// * * * * * * * * * * * * * * * * * * * * * * * * * * * * * * * * * * * * * //

dimensions      [0 1 -1 0 0 0 0];


internalField   nonuniform List<vector> 
64000
(
(-0.0123471 -0.0136991 -0.0105868)
(0.0158573 -0.0131143 -0.0078732)
(0.0212055 -0.00410977 6.06325e-05)
(0.0258301 -0.00328183 0.00136886)
(0.0267063 -0.00241639 0.00166288)
(0.0275312 -0.00308559 0.00218246)
(0.0280719 -0.0041179 0.00204001)
(0.0263987 -0.00505068 0.002747)
(0.0270545 -0.00630801 0.00295714)
(0.0227629 -0.0067343 0.00441572)
(0.0190626 -0.00805915 0.00243212)
(0.0102936 -0.00869269 0.008126)
(0.00131348 -0.0125538 0.0070672)
(-0.0174337 -0.018916 0.00481402)
(-0.0387731 -0.0203231 0.00431089)
(-0.0706985 -0.0215029 0.00355012)
(-0.0872504 -0.00629683 0.000602828)
(-0.128169 -0.0074014 -0.00289786)
(-0.116337 -0.0115133 0.00197465)
(-0.1747 -0.0282392 -0.0111926)
(-0.138197 -0.0202596 -0.0154988)
(-0.0541996 -0.0233229 -0.0353095)
(-0.0819731 -0.00488012 -0.0200459)
(-0.0805817 -0.00243348 -0.0345836)
(-0.103834 0.00371006 -0.0454732)
(-0.0971648 0.0115746 -0.0562466)
(-0.0884252 0.0221576 -0.0610743)
(-0.0523265 0.0332475 -0.0579241)
(-0.0237253 0.0410131 -0.0534473)
(0.0222412 0.0559036 -0.0360372)
(0.0719709 0.0480805 -0.0334557)
(0.107987 0.0391202 -0.0250046)
(0.12196 0.0289424 -0.011596)
(0.11878 0.0146976 -0.00451958)
(0.10222 0.00596536 0.0020402)
(0.0808344 -0.00215953 0.00452803)
(0.0594742 -0.00597261 0.00670452)
(0.0375393 -0.00564843 0.00782673)
(0.0204111 -0.00399657 0.0073717)
(0.00384608 -0.00252081 0.00519052)
(-0.00905076 0.00521726 -0.00672269)
(0.00645517 -0.0164883 -0.00671372)
(0.020957 -0.0101543 -0.00265889)
(0.0323235 -0.0068896 -0.000877414)
(0.0384895 -0.00288207 -0.00157615)
(0.0397591 -0.00135695 -0.00166625)
(0.0394573 0.00181726 -0.00367501)
(0.0336859 0.00314915 -0.00282967)
(0.0282752 0.00585152 -0.00807586)
(0.0127763 0.0119209 -0.00346608)
(-0.00619058 0.0182637 -0.00807935)
(-0.0384857 0.026468 7.89e-05)
(-0.0798194 0.0358757 -0.00387429)
(-0.12811 0.0517192 -0.00687257)
(-0.179941 0.0669082 -0.0119356)
(-0.233904 0.0759731 -0.0171775)
(-0.294454 0.0841913 -0.042929)
(-0.392506 0.0853782 -0.0597818)
(-0.430387 0.0924276 -0.0777356)
(-0.514957 0.0950038 -0.0934405)
(-0.454644 0.123615 -0.0852208)
(-0.339294 0.140762 -0.122747)
(-0.350294 0.189841 -0.128003)
(-0.337282 0.210605 -0.141246)
(-0.334395 0.234422 -0.15369)
(-0.294631 0.255301 -0.161206)
(-0.250458 0.27646 -0.163354)
(-0.178893 0.292669 -0.152252)
(-0.108278 0.299736 -0.132561)
(-0.039765 0.307868 -0.108696)
(0.0252898 0.290857 -0.0717801)
(0.0932692 0.258646 -0.0454912)
(0.127293 0.206822 -0.0367621)
(0.139418 0.157264 -0.0246084)
(0.131915 0.107573 -0.0109746)
(0.110413 0.0679071 -0.00356042)
(0.0884314 0.0398372 0.000948836)
(0.0618548 0.0250391 0.00182306)
(0.0370794 0.0156601 0.00278639)
(0.0094767 0.00801859 0.00309845)
(-0.000741326 -0.000380862 0.00153269)
(0.0135914 -0.0205355 -0.00251053)
(0.0287925 -0.0152455 -0.00322978)
(0.039704 -0.00464928 -0.00426349)
(0.042613 0.00347071 -0.00611206)
(0.0413828 0.0130757 -0.00743609)
(0.0354967 0.0261988 -0.00901589)
(0.0207526 0.0382119 -0.0105562)
(0.00723987 0.0608271 -0.00277106)
(-0.0203272 0.0800534 -0.00420613)
(-0.0557822 0.106358 -0.00816522)
(-0.103662 0.134296 -0.0124337)
(-0.153646 0.16991 -0.0173865)
(-0.223426 0.19794 -0.0311238)
(-0.308152 0.219146 -0.0376153)
(-0.401683 0.233926 -0.0440415)
(-0.474362 0.240716 -0.0616684)
(-0.557121 0.255465 -0.0807311)
(-0.586375 0.289259 -0.0985168)
(-0.656912 0.327403 -0.113535)
(-0.580295 0.363847 -0.0964779)
(-0.437074 0.401317 -0.123142)
(-0.426433 0.457651 -0.119255)
(-0.40229 0.486459 -0.120721)
(-0.39076 0.517975 -0.125103)
(-0.346125 0.538124 -0.124778)
(-0.30106 0.552469 -0.120453)
(-0.235026 0.55464 -0.105189)
(-0.173545 0.545265 -0.082407)
(-0.109109 0.524658 -0.0591202)
(-0.0557408 0.497057 -0.0381826)
(-0.0137446 0.445423 -0.0271051)
(0.0207785 0.372817 -0.0124935)
(0.0478998 0.299762 -0.0068047)
(0.0564362 0.223275 -0.00873158)
(0.059371 0.161068 -0.00908264)
(0.0574278 0.113107 -0.00509783)
(0.0464063 0.0773342 -0.00329634)
(0.0326177 0.0511512 3.32969e-05)
(0.00999798 0.0260167 0.00228431)
(0.000708112 -0.00444364 0.0022382)
(0.0158834 -0.0211983 -0.00160367)
(0.0338434 -0.00952753 -0.00422773)
(0.0403424 0.00574918 -0.00741743)
(0.0387781 0.0281063 -0.00807317)
(0.0354153 0.0505187 -0.00943921)
(0.0228996 0.0823873 -0.00840788)
(0.00592176 0.112934 -0.00472994)
(-0.019126 0.156154 -0.0106415)
(-0.0620075 0.192951 -0.0125586)
(-0.105743 0.235874 -0.0177671)
(-0.162869 0.272669 -0.023825)
(-0.237022 0.302323 -0.0295366)
(-0.324182 0.31761 -0.0301654)
(-0.400944 0.338649 -0.033607)
(-0.474761 0.360751 -0.0383038)
(-0.532419 0.392936 -0.0547692)
(-0.601168 0.422657 -0.0650676)
(-0.616906 0.470015 -0.0755134)
(-0.678052 0.520549 -0.0768648)
(-0.588162 0.550042 -0.0361511)
(-0.422864 0.580388 -0.0440776)
(-0.400134 0.618411 -0.0336121)
(-0.375417 0.622963 -0.0271828)
(-0.364925 0.635712 -0.0264881)
(-0.329104 0.634124 -0.022593)
(-0.295696 0.626154 -0.0191835)
(-0.245905 0.605243 -0.0111188)
(-0.201732 0.578581 0.00120339)
(-0.156932 0.544061 0.00859163)
(-0.128498 0.502991 0.0132183)
(-0.102601 0.456862 0.0117705)
(-0.07874 0.400545 0.0059635)
(-0.0532449 0.336472 -0.00158988)
(-0.0296198 0.265134 -0.00456125)
(-0.00600815 0.20007 -0.00909213)
(0.0106244 0.146466 -0.00707715)
(0.0175963 0.110406 -0.00651078)
(0.0219381 0.0766259 -0.00192302)
(0.00838351 0.0380914 0.00219857)
(0.000455732 -0.00435589 0.000661865)
(0.0202685 -0.0102371 -0.00339527)
(0.0400352 0.00603695 -0.0086106)
(0.0478991 0.0376068 -0.00858199)
(0.0455583 0.0730367 -0.00900302)
(0.0385477 0.116398 -0.0142358)
(0.0213121 0.170413 -0.0116052)
(-0.00521003 0.223257 -0.00593488)
(-0.0367214 0.278023 -0.00869004)
(-0.0864645 0.323819 -0.0110459)
(-0.140855 0.360984 -0.0146427)
(-0.212533 0.38273 -0.0170382)
(-0.283022 0.401527 -0.0176636)
(-0.349002 0.424731 -0.020486)
(-0.409668 0.454239 -0.023061)
(-0.474284 0.486281 -0.0244368)
(-0.519076 0.517704 -0.029941)
(-0.570884 0.5484 -0.0286944)
(-0.565241 0.609516 -0.0216015)
(-0.61139 0.660882 -0.028048)
(-0.523237 0.686735 0.0151278)
(-0.35168 0.697918 0.0191038)
(-0.326506 0.705497 0.0351538)
(-0.31108 0.673511 0.0379863)
(-0.313799 0.657536 0.0370341)
(-0.297144 0.629361 0.0415448)
(-0.283322 0.597554 0.0440129)
(-0.252189 0.558575 0.0488932)
(-0.228342 0.516592 0.042223)
(-0.202711 0.475513 0.0333722)
(-0.184462 0.430144 0.0229709)
(-0.173795 0.396884 0.014937)
(-0.164643 0.359771 0.00813544)
(-0.147796 0.329147 -0.00300318)
(-0.125473 0.276561 -0.0122402)
(-0.0868235 0.206618 -0.0132835)
(-0.0402561 0.159575 -0.0116738)
(-0.00894452 0.128942 -0.0101215)
(0.0079148 0.0948195 -0.00420537)
(0.00567738 0.0468988 0.00215547)
(0.00371431 0.00192545 -0.000349877)
(0.0241715 0.00714778 -0.00711151)
(0.0521725 0.0341522 -0.00790621)
(0.0612762 0.0843192 -0.00979754)
(0.05627 0.139248 -0.015124)
(0.0543971 0.199953 -0.0169145)
(0.033895 0.27238 -0.013658)
(0.00121663 0.323321 -0.00477007)
(-0.0439785 0.367195 -0.00787418)
(-0.1098 0.399141 -0.0100369)
(-0.174268 0.426635 -0.0124173)
(-0.235042 0.451239 -0.0120758)
(-0.286886 0.481514 -0.0106616)
(-0.33965 0.510692 -0.00734745)
(-0.381004 0.537288 -0.00216279)
(-0.427134 0.565519 0.00302744)
(-0.453393 0.595789 0.00680327)
(-0.473703 0.628139 0.0102505)
(-0.457343 0.679058 0.00704116)
(-0.495255 0.723333 0.0106447)
(-0.411478 0.740144 0.0499589)
(-0.260963 0.703108 0.0574907)
(-0.254702 0.680343 0.0722696)
(-0.260952 0.61627 0.0795513)
(-0.276571 0.578859 0.0797334)
(-0.279431 0.535211 0.0778301)
(-0.281332 0.494197 0.0750539)
(-0.270081 0.451079 0.0676883)
(-0.258188 0.404771 0.0646655)
(-0.246039 0.365322 0.0434252)
(-0.2375 0.322365 0.0311312)
(-0.225087 0.291022 0.0164131)
(-0.211048 0.266144 0.00473562)
(-0.205052 0.255241 -0.00500334)
(-0.208516 0.235425 -0.0173261)
(-0.160196 0.188684 -0.0134484)
(-0.0818136 0.156306 -0.0132543)
(-0.0321242 0.13126 -0.0103652)
(-0.000391364 0.100007 -0.005251)
(0.00388214 0.0484716 0.00337731)
(0.00450862 0.00767456 -0.00172407)
(0.0337583 0.0226987 -0.0101039)
(0.073729 0.0623366 -0.0110242)
(0.0938353 0.118261 -0.0135213)
(0.088 0.183089 -0.019861)
(0.084207 0.255353 -0.0201705)
(0.0462244 0.314695 -0.0148282)
(-0.0146271 0.346238 -0.00150471)
(-0.0636488 0.384725 -0.00704162)
(-0.118167 0.418043 -0.00730241)
(-0.161234 0.456696 -0.00729381)
(-0.20641 0.495559 -0.00504548)
(-0.245859 0.531818 -0.00111429)
(-0.285584 0.561999 0.00292906)
(-0.316396 0.592293 0.0104359)
(-0.345331 0.615624 0.0155499)
(-0.353925 0.643372 0.0240313)
(-0.370833 0.658711 0.027095)
(-0.338892 0.677887 0.0314293)
(-0.357478 0.689175 0.0182278)
(-0.334682 0.707943 0.0471528)
(-0.212779 0.601806 0.0605745)
(-0.202178 0.566809 0.0703442)
(-0.224943 0.499702 0.0787605)
(-0.251689 0.464749 0.0773296)
(-0.272121 0.426683 0.0756256)
(-0.289907 0.39549 0.0715496)
(-0.295603 0.361515 0.0627493)
(-0.297105 0.326418 0.0480108)
(-0.297399 0.292438 0.0303365)
(-0.295114 0.259969 0.0159794)
(-0.285942 0.23157 0.00197392)
(-0.269638 0.210854 -0.00519724)
(-0.252263 0.196502 -0.0114599)
(-0.254551 0.203762 -0.0185751)
(-0.209633 0.185814 -0.0192903)
(-0.116811 0.160424 -0.0192646)
(-0.0474364 0.13937 -0.0148807)
(-0.00552094 0.107363 -0.00846697)
(0.00412758 0.0521795 0.00189848)
(0.00584877 0.0160007 -0.00404189)
(0.0412094 0.0422649 -0.0140088)
(0.0916552 0.0901269 -0.0138602)
(0.114183 0.145864 -0.0120559)
(0.116493 0.204765 -0.0138412)
(0.0993316 0.276231 -0.014288)
(0.0391704 0.303269 -0.0037342)
(-0.00644822 0.347154 0.00136953)
(-0.037923 0.391383 -0.00254066)
(-0.0845677 0.440403 -0.000664975)
(-0.121766 0.480249 -0.000134511)
(-0.159153 0.513992 0.00578036)
(-0.189553 0.541345 0.0115636)
(-0.215099 0.562895 0.0198185)
(-0.231856 0.582914 0.0239114)
(-0.251989 0.592654 0.0292243)
(-0.257902 0.601731 0.0331702)
(-0.268373 0.591983 0.0332396)
(-0.254617 0.596501 0.0308406)
(-0.258898 0.554794 0.0179314)
(-0.281677 0.57804 0.024222)
(-0.205112 0.469782 0.0438333)
(-0.173124 0.429397 0.0470033)
(-0.20798 0.384 0.0587167)
(-0.24157 0.359661 0.0605337)
(-0.2753 0.335034 0.0616126)
(-0.303093 0.314746 0.0622747)
(-0.321698 0.290184 0.0527686)
(-0.334792 0.266257 0.0406073)
(-0.342252 0.237693 0.0165096)
(-0.344742 0.207623 0.00583426)
(-0.333912 0.183682 -0.00411127)
(-0.317739 0.170648 -0.0126033)
(-0.290315 0.160168 -0.0143894)
(-0.292001 0.173957 -0.022397)
(-0.255161 0.185875 -0.0188844)
(-0.15208 0.162978 -0.0196354)
(-0.0661035 0.145389 -0.0143152)
(-0.0102741 0.111451 -0.00803084)
(0.00447346 0.0530001 0.0030521)
(0.00416263 0.0313153 -0.00650942)
(0.0493563 0.073624 -0.0172574)
(0.111666 0.129389 -0.0186614)
(0.140195 0.184413 -0.0132894)
(0.146901 0.245762 -0.0156435)
(0.110342 0.293675 -0.0130392)
(0.0557571 0.327567 -0.00459107)
(0.0222334 0.379499 0.00290205)
(-0.00664864 0.41443 0.00608783)
(-0.0412246 0.453347 0.00654698)
(-0.0759468 0.484852 0.0107491)
(-0.104669 0.505837 0.0152563)
(-0.12498 0.520852 0.0241043)
(-0.142323 0.526847 0.0300602)
(-0.156733 0.52428 0.0331441)
(-0.17225 0.511215 0.0339476)
(-0.18154 0.49785 0.0332099)
(-0.193796 0.470196 0.0291389)
(-0.204656 0.454531 0.0224538)
(-0.202947 0.407188 0.0118551)
(-0.247607 0.415803 -0.0007379)
(-0.219848 0.357796 0.0200564)
(-0.168971 0.316099 0.0246464)
(-0.201343 0.298277 0.0364479)
(-0.239735 0.284535 0.0427793)
(-0.280996 0.27057 0.0476822)
(-0.31744 0.258058 0.0521691)
(-0.344498 0.239659 0.0453132)
(-0.367655 0.22074 0.0276502)
(-0.3857 0.190423 0.008916)
(-0.388471 0.167884 -0.00126223)
(-0.375459 0.145435 -0.00586538)
(-0.360052 0.131783 -0.0107107)
(-0.326979 0.131555 -0.0206181)
(-0.307799 0.139307 -0.025109)
(-0.2817 0.176611 -0.0281924)
(-0.188125 0.16447 -0.0225905)
(-0.0820144 0.152922 -0.0211114)
(-0.015601 0.118382 -0.0105865)
(0.00540575 0.0569644 0.00118629)
(0.00553242 0.0481997 -0.00827071)
(0.0579788 0.111709 -0.023925)
(0.130092 0.171278 -0.022918)
(0.166306 0.225125 -0.015525)
(0.164176 0.278514 -0.0164567)
(0.128149 0.308483 -0.0146656)
(0.0853076 0.355119 -0.00435599)
(0.0535079 0.395552 0.00667154)
(0.0255836 0.428363 0.0129634)
(0.00115697 0.450425 0.0221396)
(-0.0248174 0.469191 0.0188145)
(-0.0521192 0.478231 0.0293239)
(-0.0703501 0.478956 0.0348974)
(-0.0871907 0.463375 0.040345)
(-0.101142 0.43949 0.0414681)
(-0.118302 0.40805 0.0387581)
(-0.134222 0.377801 0.0331167)
(-0.15034 0.341783 0.0260049)
(-0.173066 0.317494 0.0165976)
(-0.174294 0.285734 0.00919612)
(-0.221679 0.280888 -0.0103515)
(-0.223192 0.266479 0.00500535)
(-0.167489 0.243379 0.01183)
(-0.192446 0.240378 0.0219699)
(-0.234114 0.231035 0.0327625)
(-0.279407 0.224173 0.0409697)
(-0.320282 0.211231 0.0490253)
(-0.355775 0.199056 0.0399532)
(-0.387536 0.175198 0.0293163)
(-0.403902 0.15092 0.0153179)
(-0.412584 0.125882 0.0144028)
(-0.407618 0.103406 0.0189389)
(-0.387692 0.084295 0.0143325)
(-0.357703 0.0840469 0.00984601)
(-0.330543 0.0946444 -0.0100248)
(-0.303691 0.14012 -0.0230262)
(-0.216997 0.155123 -0.0216976)
(-0.102394 0.14801 -0.017179)
(-0.0219118 0.121095 -0.00952522)
(0.00617431 0.0570855 0.0025762)
(0.00660167 0.0713246 -0.0104786)
(0.0669487 0.155483 -0.0294204)
(0.148573 0.21806 -0.0288405)
(0.18904 0.268104 -0.018017)
(0.182505 0.304329 -0.0127225)
(0.151998 0.336687 -0.0141117)
(0.121996 0.375538 -0.00346814)
(0.0898709 0.408827 0.00378713)
(0.0648022 0.43247 0.0125651)
(0.0372789 0.447745 0.0259424)
(0.0134616 0.447599 0.0343252)
(-0.00423635 0.442235 0.0423416)
(-0.0232751 0.425108 0.0443135)
(-0.0454328 0.397327 0.0461735)
(-0.0641979 0.362252 0.0457498)
(-0.0834641 0.321053 0.0406805)
(-0.104726 0.287205 0.0317624)
(-0.125354 0.254839 0.0219818)
(-0.152978 0.232433 0.0115704)
(-0.158863 0.215285 0.00375566)
(-0.202491 0.207671 -0.0143634)
(-0.208307 0.207863 -0.00177608)
(-0.155519 0.204247 0.00544055)
(-0.179245 0.199477 0.0147992)
(-0.219102 0.191227 0.0277354)
(-0.267496 0.182089 0.0370343)
(-0.312548 0.172897 0.0447188)
(-0.351309 0.155787 0.0398645)
(-0.387681 0.135683 0.0315121)
(-0.414373 0.109439 0.0371417)
(-0.431244 0.0775452 0.0380503)
(-0.434507 0.0537982 0.0213422)
(-0.420944 0.0398551 0.0175226)
(-0.385272 0.0363866 0.00755313)
(-0.340289 0.0481122 0.00232019)
(-0.31245 0.0887301 -0.0181751)
(-0.239961 0.129832 -0.0243504)
(-0.118937 0.140581 -0.0189102)
(-0.025267 0.119838 -0.0107067)
(0.00572611 0.0579443 0.00128237)
(0.00800015 0.0913641 -0.0107502)
(0.0731053 0.195398 -0.0328122)
(0.162769 0.261058 -0.0314218)
(0.201962 0.29967 -0.0165567)
(0.199522 0.327026 -0.0107953)
(0.180293 0.358097 -0.00879284)
(0.154027 0.386717 -0.00381542)
(0.12454 0.408099 0.00703539)
(0.0975111 0.423762 0.0129484)
(0.0724144 0.426248 0.0227485)
(0.0504487 0.422656 0.0333114)
(0.0264243 0.402803 0.0490539)
(0.00613964 0.372179 0.0522657)
(-0.0125637 0.332076 0.0507069)
(-0.0367338 0.294249 0.0447562)
(-0.0599064 0.25419 0.0391817)
(-0.0816693 0.222134 0.0281103)
(-0.104577 0.197299 0.0176674)
(-0.132885 0.18106 0.0077493)
(-0.141998 0.175193 0.000579784)
(-0.183228 0.168468 -0.0154251)
(-0.183782 0.172784 -0.00358499)
(-0.1354 0.174716 0.00155253)
(-0.157265 0.163269 0.0110942)
(-0.195161 0.152722 0.0238371)
(-0.240429 0.140005 0.0334832)
(-0.286825 0.129795 0.0402337)
(-0.329261 0.112238 0.0373042)
(-0.36987 0.0907699 0.0495642)
(-0.405567 0.0603624 0.0553679)
(-0.429305 0.033805 0.0505173)
(-0.434276 0.00621071 0.0561317)
(-0.431481 -0.016463 0.0390207)
(-0.412046 -0.0204655 0.0350296)
(-0.374073 -0.0125745 0.0263366)
(-0.332636 0.0321373 0.0128378)
(-0.252641 0.086327 -0.0180302)
(-0.13638 0.12205 -0.0207059)
(-0.0325304 0.113581 -0.00999008)
(0.0076443 0.0558002 0.00124831)
(0.0083646 0.111424 -0.00902907)
(0.0783172 0.234788 -0.034207)
(0.168868 0.300821 -0.0330698)
(0.21349 0.329503 -0.0160869)
(0.221591 0.352663 -0.00455959)
(0.206746 0.376308 7.31497e-05)
(0.182004 0.394147 0.00358241)
(0.154982 0.405602 0.00638665)
(0.13074 0.410602 0.0168538)
(0.105164 0.407007 0.0255157)
(0.0803118 0.391636 0.0346103)
(0.0551524 0.36387 0.0410602)
(0.0306559 0.327658 0.0512256)
(0.00676571 0.282109 0.0520682)
(-0.014841 0.237802 0.0436887)
(-0.0390737 0.203288 0.0348886)
(-0.0628961 0.174757 0.0241857)
(-0.0848009 0.155365 0.0136163)
(-0.109999 0.143642 0.00567758)
(-0.120197 0.142972 -0.00103752)
(-0.156261 0.135172 -0.0128238)
(-0.14737 0.144079 -0.00282707)
(-0.106549 0.142774 0.000685394)
(-0.129411 0.125606 0.00919494)
(-0.161295 0.110705 0.021466)
(-0.205426 0.0970335 0.0307231)
(-0.248599 0.0831624 0.0360111)
(-0.292819 0.06599 0.0515701)
(-0.340681 0.0423808 0.0614069)
(-0.380562 0.017925 0.0642693)
(-0.413694 -0.0165734 0.0696709)
(-0.448848 -0.0553915 0.0509143)
(-0.456275 -0.0949048 0.0364534)
(-0.438468 -0.114368 0.0112047)
(-0.390819 -0.104036 0.00421188)
(-0.348331 -0.0569194 0.00334112)
(-0.275243 0.0315802 0.00751423)
(-0.149365 0.0833354 -0.0226227)
(-0.0374638 0.0979561 -0.00868006)
(0.00687361 0.0503623 0.000766399)
(0.00823695 0.120697 -0.00761325)
(0.0765837 0.259957 -0.0360872)
(0.168637 0.328291 -0.0361949)
(0.219737 0.354199 -0.017582)
(0.239065 0.368362 -0.000441325)
(0.229658 0.381064 0.0074058)
(0.204384 0.390086 0.0133238)
(0.178263 0.394357 0.0154261)
(0.155194 0.393149 0.0183464)
(0.130737 0.381368 0.0239528)
(0.105149 0.358708 0.0323184)
(0.0760751 0.32491 0.0391064)
(0.0476145 0.28481 0.0412804)
(0.0212144 0.239964 0.0451602)
(-0.00093641 0.197276 0.0411643)
(-0.0213929 0.161162 0.0301823)
(-0.0431468 0.139927 0.0195876)
(-0.0628644 0.122085 0.0105509)
(-0.0823188 0.111967 0.00429851)
(-0.0923024 0.113488 -0.00149552)
(-0.119292 0.101264 -0.0092968)
(-0.103261 0.118155 -0.000603893)
(-0.0748601 0.106526 -0.000658532)
(-0.0963379 0.0852484 0.0083435)
(-0.122254 0.0681453 0.0179428)
(-0.159066 0.0506021 0.0261968)
(-0.200412 0.0389799 0.0411722)
(-0.244495 0.0208296 0.0552218)
(-0.290078 -0.000627947 0.061711)
(-0.343016 -0.033227 0.0676624)
(-0.404435 -0.076516 0.0548269)
(-0.447296 -0.123517 0.0449069)
(-0.466785 -0.16338 0.0293471)
(-0.454815 -0.194179 0.015545)
(-0.41456 -0.195469 -0.00777585)
(-0.34982 -0.162555 -0.00618662)
(-0.281388 -0.0596864 -0.00469201)
(-0.175737 0.0441303 -0.01027)
(-0.0427022 0.0794734 -0.0172117)
(0.00952672 0.0470465 0.0013254)
(0.00702176 0.12811 -0.00459929)
(0.075447 0.280794 -0.0349056)
(0.168005 0.353985 -0.0375565)
(0.22516 0.377102 -0.0183404)
(0.251912 0.383048 0.00258568)
(0.247015 0.382594 0.0163605)
(0.225713 0.384421 0.0248955)
(0.202384 0.383195 0.027255)
(0.178959 0.376833 0.0292883)
(0.151888 0.358796 0.029742)
(0.124197 0.330803 0.0301729)
(0.0954745 0.292582 0.0290045)
(0.065224 0.250201 0.033039)
(0.0358483 0.206027 0.0332358)
(0.0116042 0.166361 0.033223)
(-0.00509748 0.13112 0.0262294)
(-0.021448 0.106699 0.0143155)
(-0.0408267 0.0924114 0.00751761)
(-0.050719 0.0826574 0.00347568)
(-0.0613175 0.0811233 -0.00249823)
(-0.0731138 0.0689357 -0.00415669)
(-0.0551946 0.0894607 5.93388e-05)
(-0.0460835 0.0659301 0.000836604)
(-0.0630219 0.0455657 0.00755992)
(-0.0833864 0.0257328 0.0159276)
(-0.113037 0.0108735 0.0266958)
(-0.14606 -0.00544341 0.0420284)
(-0.190183 -0.0254041 0.049655)
(-0.24602 -0.0538593 0.0589163)
(-0.311022 -0.0929566 0.053055)
(-0.371557 -0.134726 0.0488985)
(-0.425566 -0.180729 0.0380698)
(-0.460962 -0.227451 0.0254276)
(-0.465918 -0.266727 0.00859921)
(-0.432713 -0.285442 -0.0109344)
(-0.367049 -0.25762 -0.0193958)
(-0.276063 -0.178525 -0.0151425)
(-0.176088 -0.0271741 0.00362666)
(-0.0584957 0.0468589 -0.0141349)
(0.00716568 0.0357363 -0.000249714)
(0.00442607 0.112188 -0.00473269)
(0.0683024 0.277612 -0.0350566)
(0.161174 0.356916 -0.0370204)
(0.223157 0.381336 -0.0176178)
(0.257282 0.382573 0.00589681)
(0.261108 0.37801 0.0192008)
(0.245734 0.375108 0.0262786)
(0.221541 0.36634 0.0299409)
(0.195683 0.35156 0.031705)
(0.167551 0.329708 0.0321609)
(0.138517 0.29898 0.0299315)
(0.106869 0.260746 0.024969)
(0.0760144 0.217594 0.0201096)
(0.0472431 0.175594 0.0179958)
(0.0236899 0.139137 0.019365)
(0.00602033 0.10886 0.0163927)
(-0.00327124 0.0837012 0.0100517)
(-0.0119541 0.0659437 0.00382453)
(-0.0189393 0.054981 0.00103801)
(-0.0261069 0.0463897 -0.00376462)
(-0.0231299 0.0465338 -0.000632459)
(-0.0139282 0.0468499 -7.31828e-05)
(-0.019912 0.0248849 0.00297396)
(-0.0308553 0.00542291 0.00706491)
(-0.0447846 -0.0132432 0.0127348)
(-0.0688459 -0.0329344 0.0245665)
(-0.104084 -0.0548742 0.0349713)
(-0.148031 -0.0828933 0.0447047)
(-0.202201 -0.112999 0.0452525)
(-0.26115 -0.147711 0.0463481)
(-0.32533 -0.187437 0.0421504)
(-0.386557 -0.236633 0.036458)
(-0.4327 -0.288763 0.0249728)
(-0.455079 -0.339617 0.0100079)
(-0.43757 -0.371037 -0.00948678)
(-0.382333 -0.362208 -0.0236697)
(-0.281952 -0.286748 -0.0264945)
(-0.182563 -0.141953 -0.0151107)
(-0.0663419 0.00692369 -0.0122486)
(0.00718599 0.0211357 -0.00257344)
(0.00611334 0.111311 0.00197451)
(0.068606 0.28299 -0.0268924)
(0.159055 0.366689 -0.0314347)
(0.226781 0.388799 -0.0112089)
(0.270292 0.385124 0.0130577)
(0.28232 0.372926 0.020988)
(0.267442 0.363414 0.0295031)
(0.240782 0.347942 0.0309837)
(0.213735 0.330676 0.0309681)
(0.184159 0.304391 0.0284687)
(0.153795 0.271099 0.0240589)
(0.122229 0.230202 0.0173874)
(0.0905801 0.187716 0.010497)
(0.0625436 0.146204 0.00738777)
(0.0402667 0.11165 0.00348113)
(0.0254683 0.0826336 0.00439343)
(0.0151454 0.0595164 0.000888411)
(0.00839749 0.03949 -0.00183933)
(0.0104041 0.0301386 -0.00346064)
(0.0155062 0.0186152 -0.00427177)
(0.0161586 0.0178826 -0.000811973)
(0.0148953 0.000417001 0.00135061)
(0.00816382 -0.01586 0.00337278)
(-0.0022715 -0.0345698 0.00617855)
(-0.0179746 -0.0542161 0.0135351)
(-0.0425117 -0.0783953 0.0232941)
(-0.0731975 -0.102764 0.0301559)
(-0.112651 -0.130051 0.0334215)
(-0.160616 -0.155881 0.0369754)
(-0.217225 -0.187931 0.0377547)
(-0.279714 -0.22631 0.0381258)
(-0.341603 -0.276176 0.0347198)
(-0.394365 -0.332974 0.0269687)
(-0.428069 -0.395217 0.0132701)
(-0.426202 -0.44249 -0.00536348)
(-0.382783 -0.457291 -0.0222962)
(-0.291699 -0.397267 -0.0337151)
(-0.172937 -0.255708 -0.0252205)
(-0.0596375 -0.0622872 -0.00622791)
(-0.00396369 0.00476668 -0.000264027)
(-0.00409566 0.0812335 -0.00829574)
(0.0476703 0.261353 -0.0333485)
(0.140275 0.355156 -0.0394083)
(0.217073 0.381697 -0.0176482)
(0.271835 0.379244 0.00156046)
(0.296204 0.360732 0.0143998)
(0.289752 0.343848 0.0224809)
(0.262532 0.321301 0.0240003)
(0.231334 0.297006 0.0216189)
(0.196164 0.270402 0.0176695)
(0.161971 0.239596 0.0129199)
(0.127709 0.20382 0.00818159)
(0.0971244 0.163623 0.00310101)
(0.0713729 0.122477 -0.00128119)
(0.052492 0.0874981 -0.00339751)
(0.03899 0.0598661 -0.00459587)
(0.0348444 0.0410818 -0.00622558)
(0.0397681 0.0252096 -0.007076)
(0.0427717 0.0150637 -0.0077099)
(0.0460852 -0.00277954 -0.00466617)
(0.0445961 -0.0196617 -0.0019115)
(0.0395182 -0.0394888 0.00147095)
(0.032776 -0.0576733 0.00305334)
(0.0201056 -0.07726 0.00572357)
(0.00441992 -0.0984277 0.00960879)
(-0.0179294 -0.1214 0.0138605)
(-0.0464519 -0.142571 0.0179267)
(-0.0791583 -0.166365 0.022617)
(-0.120347 -0.193041 0.0250078)
(-0.171345 -0.228044 0.0272839)
(-0.230069 -0.268342 0.0287933)
(-0.291765 -0.321582 0.0286384)
(-0.348352 -0.381201 0.0240596)
(-0.391434 -0.45202 0.014046)
(-0.404884 -0.51142 -0.0035416)
(-0.37628 -0.542043 -0.0192689)
(-0.294575 -0.501194 -0.0408505)
(-0.183375 -0.374844 -0.0375101)
(-0.0572674 -0.158913 -0.00952212)
(0.00554545 -0.0194031 -0.00160755)
(-0.00384518 0.13702 0.00297347)
(0.0425546 0.331089 -0.0117094)
(0.128381 0.429291 -0.0207729)
(0.208376 0.451678 -0.00333806)
(0.272308 0.441358 0.00331206)
(0.303678 0.408639 0.0172139)
(0.30086 0.378956 0.0246809)
(0.27206 0.356497 0.0270368)
(0.244455 0.344784 0.0240244)
(0.214655 0.327739 0.018286)
(0.18104 0.300904 0.0112729)
(0.143848 0.263483 0.00540007)
(0.107336 0.217839 0.00022605)
(0.0808305 0.169633 -0.00364374)
(0.0665528 0.125334 -0.00655854)
(0.0632557 0.0875565 -0.00629421)
(0.0615781 0.0591534 -0.00674891)
(0.0626553 0.0314275 -0.0103591)
(0.0634974 0.00316576 -0.012571)
(0.0623643 -0.0229024 -0.00819246)
(0.0606946 -0.0462872 -0.00294084)
(0.0571199 -0.0688635 0.000939737)
(0.0501071 -0.0893927 0.00230247)
(0.0374581 -0.112852 0.0039481)
(0.0211506 -0.133919 0.00580923)
(0.00158344 -0.15852 0.00853021)
(-0.0214754 -0.18013 0.00932063)
(-0.054052 -0.203107 0.00926548)
(-0.095972 -0.224867 0.0116536)
(-0.143265 -0.253973 0.0154535)
(-0.1953 -0.287142 0.0207119)
(-0.247972 -0.337766 0.0238459)
(-0.30154 -0.402097 0.0226275)
(-0.347065 -0.485011 0.0147865)
(-0.367142 -0.568817 -0.00268894)
(-0.352877 -0.634759 -0.0251339)
(-0.29808 -0.633355 -0.0520418)
(-0.192582 -0.502844 -0.0512481)
(-0.0519763 -0.283067 -0.0245262)
(0.00884083 -0.0742043 -0.00202527)
(-0.0198608 0.210174 -0.0152353)
(0.0116027 0.446663 -0.0326214)
(0.095709 0.55594 -0.0394183)
(0.177127 0.591644 -0.0230802)
(0.244633 0.581216 -0.013512)
(0.289107 0.545686 0.00698163)
(0.311034 0.500881 0.0144777)
(0.308856 0.468158 0.0140176)
(0.285481 0.442649 0.00539479)
(0.237584 0.407979 -0.00164703)
(0.186806 0.36373 -0.00694849)
(0.136886 0.311984 -0.00996489)
(0.0967212 0.25655 -0.0121801)
(0.0707974 0.20562 -0.0142999)
(0.058559 0.156428 -0.0165617)
(0.0568286 0.108878 -0.0175249)
(0.0603614 0.0635709 -0.0169084)
(0.0640915 0.0282651 -0.0122901)
(0.0673541 -0.00628674 -0.0118032)
(0.0743981 -0.0353106 -0.00822235)
(0.0746417 -0.0606025 -0.00597445)
(0.070714 -0.0850465 -0.00395203)
(0.0622806 -0.105912 -0.00161215)
(0.0494348 -0.128365 0.0017513)
(0.0347816 -0.151832 0.00334641)
(0.0160802 -0.179974 0.00531227)
(-0.00384325 -0.2089 0.0056512)
(-0.0254933 -0.239437 0.00423946)
(-0.056388 -0.26508 0.00159845)
(-0.0960799 -0.297271 -0.000757136)
(-0.147256 -0.330425 -0.00236385)
(-0.205533 -0.382653 -0.00223482)
(-0.263632 -0.444112 -0.000437383)
(-0.318733 -0.533797 -0.0021765)
(-0.35854 -0.630777 -0.0113893)
(-0.365458 -0.73226 -0.0255479)
(-0.29504 -0.761464 -0.0465923)
(-0.21193 -0.660165 -0.0684772)
(-0.0761829 -0.381251 -0.0272837)
(0.0179836 -0.117338 0.000759641)
(-0.00323136 0.18273 0.00745705)
(0.0268667 0.424127 -0.0301269)
(0.0953488 0.547802 -0.041304)
(0.177007 0.601928 -0.0366315)
(0.244167 0.602507 -0.0287006)
(0.288092 0.578437 -0.0138651)
(0.308145 0.532286 -0.00271003)
(0.29936 0.484988 0.00068141)
(0.269852 0.432716 -0.00340089)
(0.222584 0.384639 -0.00557236)
(0.172975 0.335304 -0.00796959)
(0.126148 0.285528 -0.00921105)
(0.0910948 0.237075 -0.0115735)
(0.0698561 0.191717 -0.0139688)
(0.0570153 0.146952 -0.0166568)
(0.055035 0.103519 -0.0176074)
(0.0626828 0.0621898 -0.0166027)
(0.0721204 0.0232413 -0.016039)
(0.0766529 -0.00660232 -0.0125775)
(0.0820845 -0.037506 -0.010072)
(0.0827922 -0.0659673 -0.0090066)
(0.082018 -0.0915318 -0.00775859)
(0.0760976 -0.110706 -0.00588625)
(0.0611715 -0.129031 -0.0023332)
(0.0409418 -0.146533 0.000813319)
(0.0194731 -0.169898 0.00548939)
(5.04181e-05 -0.195146 0.0078903)
(-0.0195869 -0.229117 0.00775491)
(-0.0479635 -0.261025 0.00583853)
(-0.0801247 -0.303914 0.00418144)
(-0.12153 -0.352849 0.00179404)
(-0.165237 -0.425376 -0.000500797)
(-0.216136 -0.510924 -0.00413144)
(-0.26761 -0.632722 -0.00776226)
(-0.313979 -0.757485 -0.0128704)
(-0.33467 -0.879305 -0.0219638)
(-0.292615 -0.93384 -0.0402488)
(-0.189322 -0.882117 -0.0568093)
(-0.0711889 -0.578948 -0.0558559)
(-0.00559994 -0.20033 0.0149851)
(-0.00499518 0.19699 0.00304905)
(0.0214408 0.412648 -0.0274953)
(0.08166 0.535503 -0.038527)
(0.153939 0.588313 -0.0360994)
(0.218052 0.589978 -0.0205833)
(0.264866 0.563212 -0.0121732)
(0.292484 0.517887 -0.00044135)
(0.290588 0.471007 0.00332369)
(0.265053 0.422279 0.00122097)
(0.219307 0.377184 -0.000886147)
(0.166282 0.330932 -0.00337573)
(0.119328 0.285018 -0.00601947)
(0.0860282 0.241549 -0.00979081)
(0.0652188 0.197878 -0.0129445)
(0.0547882 0.156259 -0.0152202)
(0.0556837 0.116369 -0.017271)
(0.0617491 0.0773737 -0.0187806)
(0.0740747 0.0349153 -0.0170485)
(0.0820242 -0.00113711 -0.0185487)
(0.0872299 -0.0313923 -0.0169567)
(0.0901494 -0.0590436 -0.0148482)
(0.0937254 -0.0849821 -0.0117536)
(0.0917899 -0.104884 -0.00905906)
(0.0809272 -0.122661 -0.00681442)
(0.0626717 -0.135836 -0.00510934)
(0.0391157 -0.150006 -0.000807725)
(0.0136731 -0.164478 0.00374535)
(-0.0064577 -0.189444 0.00781644)
(-0.0335633 -0.213004 0.00883105)
(-0.0701793 -0.243586 0.00928233)
(-0.120967 -0.278259 0.010876)
(-0.175966 -0.340312 0.0136817)
(-0.236961 -0.422307 0.0167316)
(-0.286638 -0.549693 0.0179131)
(-0.311108 -0.704711 0.0112726)
(-0.319563 -0.877118 0.00312647)
(-0.284134 -0.998392 -0.013763)
(-0.191768 -1.01796 -0.0413048)
(-0.0457251 -0.791443 -0.0511369)
(0.0244533 -0.345158 -0.0113101)
(-0.00143494 0.180622 0.00110594)
(0.0267408 0.378413 -0.0210185)
(0.0810433 0.506935 -0.0327886)
(0.147139 0.565217 -0.0313207)
(0.207361 0.578267 -0.0192731)
(0.250389 0.556097 -0.00963692)
(0.278933 0.51408 0.00132054)
(0.277138 0.465198 0.00590344)
(0.250768 0.414162 0.00420525)
(0.207362 0.365325 0.00147389)
(0.157389 0.320021 -0.00186396)
(0.115333 0.278663 -0.00525887)
(0.0852175 0.240758 -0.00942467)
(0.0679526 0.202504 -0.0126175)
(0.0597463 0.167289 -0.0160953)
(0.0601306 0.129642 -0.0190211)
(0.0638541 0.0916953 -0.0200574)
(0.073338 0.0501939 -0.0200672)
(0.0862258 0.00903366 -0.0199436)
(0.0962333 -0.0217331 -0.0226129)
(0.0981688 -0.0462293 -0.0225057)
(0.10323 -0.0725583 -0.0181948)
(0.104695 -0.0937654 -0.0129702)
(0.0967964 -0.113858 -0.00853721)