/*--------------------------------*- C++ -*----------------------------------*\
| =========                 |                                                 |
| \\      /  F ield         | OpenFOAM: The Open Source CFD Toolbox           |
|  \\    /   O peration     | Version:  v1806                                 |
|   \\  /    A nd           | Web:      www.OpenFOAM.com                      |
|    \\/     M anipulation  |                                                 |
\*---------------------------------------------------------------------------*/
FoamFile
{
    version     2.0;
    format      ascii;
    class       volVectorField;
    location    "0.0295";
    object      U_0;
}
// * * * * * * * * * * * * * * * * * * * * * * * * * * * * * * * * * * * * * //

dimensions      [0 1 -1 0 0 0 0];


internalField   nonuniform List<vector> 
64000
(
(-0.00475364 -0.00666493 -0.00185639)
(0.0130563 -0.00784852 -0.000769819)
(0.0268738 -0.00497341 0.00214659)
(0.0342446 -0.00460685 0.00256579)
(0.0281484 -0.00341339 0.00318875)
(0.0214212 -0.00221102 0.00463338)
(0.0203908 -0.00285505 0.00444041)
(0.0161793 -0.00316007 0.00431287)
(0.0135367 -0.00432072 0.00539676)
(0.00790542 -0.004389 0.00484781)
(-0.000880507 -0.00797512 0.00577987)
(-0.0186028 -0.0105893 0.00698531)
(-0.0413015 -0.0141987 0.00633282)
(-0.0694757 -0.0159234 0.00453019)
(-0.104577 -0.0137831 0.00515801)
(-0.14059 -0.00515532 0.00395558)
(-0.181905 0.00548203 0.00363239)
(-0.217645 0.000232216 0.00484054)
(-0.253468 -0.00978597 0.00471973)
(-0.272156 -0.0210478 -0.00819636)
(-0.286367 -0.0362718 -0.0397172)
(-0.164688 -0.0234282 -0.0359149)
(-0.0818903 -0.0218628 -0.0359501)
(-0.0978864 -0.00647302 -0.0367181)
(-0.0810165 -0.00158712 -0.0501641)
(-0.0863148 0.00906077 -0.0577021)
(-0.0662482 0.018109 -0.0640875)
(-0.0423344 0.0303082 -0.0587611)
(-0.00893713 0.0397787 -0.0488102)
(0.0350465 0.0541744 -0.0299824)
(0.0809816 0.0417496 -0.0308919)
(0.114047 0.0347736 -0.0211046)
(0.127903 0.0236671 -0.00901733)
(0.123621 0.0100213 -0.00221002)
(0.106311 0.0019472 0.00340014)
(0.0829478 -0.00539628 0.00544784)
(0.0589936 -0.00829701 0.0077984)
(0.0367551 -0.00673056 0.00871234)
(0.0185502 -0.00510981 0.00882386)
(0.00385033 -0.00379605 0.00735404)
(-0.00325465 -0.00751922 -0.000134472)
(0.0133748 -0.0181704 -0.000376383)
(0.0361924 -0.0154229 0.000675109)
(0.049643 -0.0116918 0.000456168)
(0.0481288 -0.00624069 0.000780379)
(0.0407993 -0.00199019 -0.000119073)
(0.0375607 0.00166826 -0.00196244)
(0.0295412 0.00434721 -0.00175518)
(0.020916 0.00806085 -0.00680117)
(0.00297791 0.0173865 -0.00374496)
(-0.0227815 0.025409 -0.00727791)
(-0.0603585 0.0366142 0.000350987)
(-0.107618 0.0504632 -0.00316844)
(-0.161113 0.0711755 -0.00559738)
(-0.221795 0.079436 -0.00865081)
(-0.289119 0.0864384 -0.0199428)
(-0.386118 0.0915169 -0.0412144)
(-0.482149 0.0965715 -0.0555292)
(-0.559453 0.0997172 -0.0733399)
(-0.61268 0.105532 -0.0951088)
(-0.621805 0.108852 -0.118095)
(-0.482742 0.140873 -0.127125)
(-0.386633 0.166048 -0.148398)
(-0.383501 0.205991 -0.152586)
(-0.344775 0.227684 -0.163134)
(-0.313875 0.252344 -0.169073)
(-0.253951 0.270062 -0.171212)
(-0.18758 0.28577 -0.161964)
(-0.108011 0.295174 -0.139661)
(-0.0428762 0.300484 -0.114447)
(0.0228432 0.284625 -0.0747017)
(0.0919538 0.254021 -0.0490556)
(0.124582 0.201309 -0.0386447)
(0.137484 0.154674 -0.0276714)
(0.129715 0.106665 -0.0137479)
(0.107158 0.0673377 -0.0059581)
(0.0843754 0.0398919 -0.00126081)
(0.0589006 0.0249291 0.000192599)
(0.03399 0.0151447 0.00200668)
(0.00990165 0.00563614 0.00404433)
(-8.90834e-05 -0.017069 0.00194034)
(0.0177773 -0.0274903 -0.000624812)
(0.0431449 -0.0223974 -0.000979609)
(0.0582366 -0.0112437 0.00022609)
(0.0543795 -0.000368344 -0.00242374)
(0.043914 0.0169454 -0.00320786)
(0.0352539 0.0295383 -0.00476278)
(0.019498 0.0458451 -0.0075708)
(0.00553172 0.0719092 -0.000535159)
(-0.0210873 0.0978164 -0.00446513)
(-0.0615723 0.126116 -0.0083398)
(-0.115421 0.155713 -0.0123797)
(-0.177756 0.181574 -0.0173224)
(-0.26659 0.201727 -0.0298377)
(-0.372357 0.220485 -0.0327545)
(-0.467391 0.232899 -0.0440517)
(-0.561698 0.242914 -0.0571617)
(-0.64243 0.268484 -0.0714745)
(-0.710799 0.295847 -0.0883126)
(-0.751624 0.330333 -0.107583)
(-0.744678 0.361583 -0.122164)
(-0.58337 0.394416 -0.120471)
(-0.463461 0.436947 -0.132792)
(-0.447675 0.479581 -0.1253)
(-0.402595 0.507085 -0.125615)
(-0.367421 0.52945 -0.123113)
(-0.308548 0.539811 -0.119144)
(-0.24501 0.53996 -0.108382)
(-0.174777 0.529655 -0.0884732)
(-0.108946 0.50647 -0.0651487)
(-0.0534925 0.485638 -0.0422896)
(-0.0151714 0.439713 -0.0269913)
(0.0204589 0.375713 -0.0112827)
(0.048631 0.303711 -0.00647363)
(0.0536414 0.230064 -0.00974031)
(0.0541062 0.16593 -0.00928892)
(0.0507175 0.114615 -0.00673512)
(0.0411972 0.076421 -0.00402645)
(0.027925 0.0493542 -0.000356518)
(0.00933558 0.0204347 0.00339146)
(0.000215508 -0.0241608 0.00147261)
(0.0203978 -0.0325225 -0.00277747)
(0.0493409 -0.0204538 -0.00200186)
(0.0619421 -0.000333575 -0.00329478)
(0.0600407 0.0227299 -0.00529171)
(0.0451191 0.0597398 -0.00680761)
(0.0267627 0.0967197 -0.00612272)
(0.0122473 0.133023 -0.00335837)
(-0.0129378 0.172843 -0.00852935)
(-0.0600685 0.201668 -0.0112153)
(-0.116905 0.22926 -0.0152255)
(-0.192256 0.253594 -0.0218421)
(-0.281647 0.283746 -0.0254385)
(-0.368077 0.300547 -0.026779)
(-0.453185 0.332137 -0.0305273)
(-0.536554 0.364044 -0.0403725)
(-0.617537 0.397008 -0.0490216)
(-0.684914 0.431979 -0.0554025)
(-0.736163 0.46571 -0.0621099)
(-0.762775 0.506797 -0.0691541)
(-0.743389 0.53736 -0.0669282)
(-0.56415 0.561505 -0.0482051)
(-0.430465 0.591186 -0.0503608)
(-0.413955 0.612462 -0.0331939)
(-0.374922 0.620978 -0.0264084)
(-0.349042 0.62243 -0.0199522)
(-0.304637 0.611242 -0.0164493)
(-0.258266 0.589767 -0.0116128)
(-0.206119 0.562437 -0.00131713)
(-0.157573 0.526265 0.00620437)
(-0.118949 0.48594 0.0116788)
(-0.0904119 0.442329 0.0130307)
(-0.0733568 0.399087 0.00913356)
(-0.0528552 0.342836 0.00300361)
(-0.0328649 0.2785 -0.00174361)
(-0.0162163 0.208109 -0.00707845)
(-0.000336 0.144659 -0.00858173)
(0.0109019 0.107151 -0.00648343)
(0.0168767 0.0728166 -0.00241548)
(0.00775526 0.0291733 0.00278265)
(0.00154685 -0.0276568 0.000777258)
(0.0260857 -0.0282349 -0.00412752)
(0.0588175 -0.00859118 -0.00121012)
(0.072397 0.0210036 -0.00362862)
(0.0734186 0.0583068 -0.00352979)
(0.0622728 0.109322 -0.0147739)
(0.0339821 0.162969 -0.00966521)
(-0.00201042 0.208294 -0.00408049)
(-0.0484176 0.242226 -0.00636934)
(-0.111055 0.273646 -0.00930397)
(-0.175294 0.305332 -0.0128396)
(-0.237694 0.334265 -0.0153217)
(-0.309095 0.37169 -0.0203335)
(-0.387538 0.409839 -0.0187599)
(-0.460882 0.449635 -0.018786)
(-0.530351 0.486804 -0.0202237)
(-0.593061 0.52177 -0.0181756)
(-0.642497 0.55859 -0.013681)
(-0.675811 0.59418 -0.00940699)
(-0.691055 0.633798 -0.0146312)
(-0.670578 0.660829 -0.0098342)
(-0.48847 0.674131 0.014841)
(-0.354532 0.678729 0.0164645)
(-0.343954 0.67138 0.0356182)
(-0.317666 0.650052 0.0387225)
(-0.310731 0.625784 0.0447302)
(-0.288968 0.591949 0.0467721)
(-0.261851 0.553062 0.0475938)
(-0.231593 0.511664 0.0429091)
(-0.205211 0.468834 0.0357202)
(-0.181074 0.424003 0.0264699)
(-0.162177 0.380487 0.0188492)
(-0.144985 0.343165 0.0133168)
(-0.131805 0.30641 0.00424946)
(-0.126285 0.264837 -0.00614714)
(-0.106754 0.203196 -0.0104235)
(-0.0582613 0.151533 -0.00996925)
(-0.0159522 0.122156 -0.0091415)
(0.00312583 0.0885325 -0.00368514)
(0.0050024 0.0345772 0.0030514)
(0.00451125 -0.0305395 0.000825316)
(0.0332624 -0.0228516 -0.00434868)
(0.068421 0.00710165 -0.00487602)
(0.0832192 0.0472235 -0.00558543)
(0.0878538 0.0941366 -0.00612642)
(0.0726864 0.153889 -0.0133927)
(0.0304737 0.192301 -0.000844204)
(-0.0212373 0.242463 0.000441594)
(-0.073647 0.283123 -0.00314744)
(-0.129309 0.329379 -0.00651285)
(-0.185849 0.375327 -0.00865844)
(-0.243658 0.418587 -0.0088493)
(-0.30316 0.455601 -0.00691136)
(-0.359728 0.491965 -0.00135401)
(-0.414318 0.528317 0.000974783)
(-0.468788 0.564714 0.00336443)
(-0.516561 0.601949 0.00619519)
(-0.551401 0.644562 0.0112579)
(-0.574238 0.680461 0.0134068)
(-0.585354 0.713391 0.0112343)
(-0.566232 0.734117 0.0192887)
(-0.396704 0.720381 0.0446011)
(-0.277895 0.668619 0.046688)
(-0.285322 0.632314 0.0649892)
(-0.278247 0.584357 0.0711191)
(-0.287637 0.542468 0.073399)
(-0.285143 0.497961 0.0703569)
(-0.278337 0.453574 0.066574)
(-0.263854 0.406741 0.0628153)
(-0.251334 0.366071 0.0482945)
(-0.242357 0.326295 0.0365872)
(-0.228188 0.291617 0.0229289)
(-0.215746 0.263128 0.0107081)
(-0.198488 0.23529 0.00502804)
(-0.191339 0.211853 -0.00646241)
(-0.165611 0.185131 -0.0121839)
(-0.0945924 0.153932 -0.0121972)
(-0.0355609 0.128083 -0.0105529)
(-0.00330412 0.0956449 -0.00576635)
(0.00415846 0.0362858 0.00298417)
(0.00553716 -0.0264924 -0.000946936)
(0.0419 -0.006533 -0.00637375)
(0.0848935 0.0294141 -0.00981827)
(0.100443 0.0777142 -0.00707785)
(0.106751 0.132879 -0.00977363)
(0.0732884 0.186311 -0.00758182)
(0.0237702 0.224215 0.00430483)
(-0.0163103 0.276494 0.000858536)
(-0.0652808 0.332826 -0.000799847)
(-0.112996 0.385909 -0.0027947)
(-0.162136 0.43626 -0.00290309)
(-0.208351 0.479876 -0.00111885)
(-0.256241 0.51736 0.00147268)
(-0.302076 0.553662 0.00895083)
(-0.341317 0.584349 0.010894)
(-0.376956 0.613653 0.0179087)
(-0.402702 0.642171 0.0248369)
(-0.426677 0.675023 0.0256163)
(-0.449925 0.701118 0.0274833)
(-0.462048 0.719631 0.0241252)
(-0.47127 0.728281 0.0277191)
(-0.363218 0.701689 0.0493086)
(-0.258656 0.605103 0.0479915)
(-0.256116 0.544035 0.0589087)
(-0.261934 0.490714 0.0626381)
(-0.283005 0.448698 0.0632397)
(-0.296807 0.408665 0.0600646)
(-0.30581 0.370785 0.0557271)
(-0.304042 0.331802 0.0470816)
(-0.300749 0.297196 0.0360576)
(-0.296794 0.264248 0.0223721)
(-0.285971 0.237702 0.0125218)
(-0.273459 0.217426 0.00179396)
(-0.256296 0.206441 -0.00309747)
(-0.239378 0.194062 -0.00952608)
(-0.207269 0.187949 -0.0187898)
(-0.131097 0.163965 -0.0186941)
(-0.0544097 0.139607 -0.0150479)
(-0.00910267 0.104818 -0.00788634)
(0.0048109 0.0400212 0.00201757)
(0.0077198 -0.0203866 0.000189447)
(0.0465301 0.0179607 -0.0143641)
(0.0958413 0.061674 -0.014605)
(0.119428 0.114754 -0.0105326)
(0.118891 0.170355 -0.0129829)
(0.0789274 0.212227 -0.00410524)
(0.0327144 0.267448 0.00198549)
(0.00430171 0.319253 0.00427774)
(-0.0342097 0.372589 0.00238612)
(-0.0762149 0.426405 0.00315684)
(-0.116705 0.470578 0.0050982)
(-0.157186 0.506112 0.0101703)
(-0.191251 0.53718 0.0169848)
(-0.221729 0.564647 0.0205478)
(-0.25161 0.584989 0.0250378)
(-0.279209 0.599597 0.028823)
(-0.299179 0.609388 0.0326555)
(-0.31834 0.618262 0.0304051)
(-0.345073 0.624738 0.0263252)
(-0.368444 0.622786 0.0215705)
(-0.394665 0.615962 0.0210986)
(-0.344231 0.608639 0.0345888)
(-0.275824 0.523381 0.0338114)
(-0.263204 0.45528 0.036894)
(-0.268074 0.401912 0.0395574)
(-0.29497 0.367027 0.0415609)
(-0.317363 0.336303 0.0419424)
(-0.335828 0.304684 0.0404095)
(-0.341667 0.272558 0.034552)
(-0.344847 0.240411 0.0171491)
(-0.346566 0.208996 0.0125681)
(-0.335353 0.183466 0.00227313)
(-0.319208 0.169005 -0.00325637)
(-0.298463 0.164797 -0.00794853)
(-0.279583 0.171452 -0.0136165)
(-0.24552 0.183421 -0.0199206)
(-0.162374 0.171259 -0.0220841)
(-0.0726747 0.148375 -0.0174566)
(-0.0135075 0.113487 -0.00956256)
(0.00560547 0.0427529 0.00185239)
(0.0100092 -0.0063236 -0.00283497)
(0.0566797 0.0479678 -0.0214914)
(0.114582 0.101895 -0.021953)
(0.139657 0.154344 -0.0139608)
(0.130992 0.20037 -0.0133618)
(0.0965048 0.245457 -0.00639572)
(0.0622411 0.304551 0.00115595)
(0.0329135 0.359317 0.00632274)
(0.0060323 0.402155 0.0116541)
(-0.0262722 0.442314 0.0120663)
(-0.0656518 0.477426 0.0153739)
(-0.0944005 0.504785 0.0221372)
(-0.119674 0.524968 0.0274454)
(-0.146342 0.534496 0.0300116)
(-0.171292 0.535901 0.0315495)
(-0.195679 0.529692 0.0316344)
(-0.213602 0.519287 0.0307943)
(-0.235886 0.512609 0.0237378)
(-0.272569 0.500146 0.0175088)
(-0.30613 0.495256 0.0135386)
(-0.334109 0.495902 0.0139018)
(-0.325259 0.508924 0.020614)
(-0.303722 0.460365 0.0206152)
(-0.294342 0.399638 0.0189705)
(-0.291685 0.33883 0.0177022)
(-0.311728 0.309733 0.021523)
(-0.339858 0.28516 0.0251332)
(-0.365334 0.257828 0.0285672)
(-0.378203 0.229335 0.0214649)
(-0.387872 0.193723 0.010486)
(-0.391152 0.167233 0.000809354)
(-0.378472 0.145771 -0.00397966)
(-0.359015 0.131015 -0.0112607)
(-0.330695 0.133094 -0.0161001)
(-0.296708 0.140539 -0.0174487)
(-0.266537 0.168826 -0.0230486)
(-0.192633 0.17276 -0.024767)
(-0.0912987 0.158153 -0.0225371)
(-0.0184922 0.123132 -0.0118291)
(0.00597042 0.048111 0.000670529)
(0.00770455 0.0134234 -0.00907604)
(0.0598652 0.0894894 -0.0299259)
(0.12756 0.146991 -0.0287723)
(0.151698 0.191796 -0.0174256)
(0.147311 0.233376 -0.017597)
(0.125796 0.279913 -0.0078616)
(0.100423 0.334646 -0.0026381)
(0.0731349 0.381407 0.011728)
(0.0419713 0.419793 0.0191904)
(0.0182732 0.446054 0.0255529)
(-0.00644109 0.466797 0.0267494)
(-0.0336312 0.479595 0.0333411)
(-0.0578492 0.483869 0.0378687)
(-0.0822681 0.477101 0.0375578)
(-0.10899 0.461614 0.0347136)
(-0.137035 0.437842 0.0296643)
(-0.155717 0.412801 0.0241644)
(-0.183658 0.394712 0.0115777)
(-0.221379 0.373109 0.00725345)
(-0.248809 0.384296 0.00647613)
(-0.276986 0.409453 0.00993467)
(-0.297428 0.43373 0.0135765)
(-0.322687 0.418767 0.0123444)
(-0.33917 0.374513 0.00971844)
(-0.325581 0.309672 0.00613)
(-0.325971 0.269525 0.00921897)
(-0.353468 0.247067 0.015754)
(-0.3823 0.222376 0.0197429)
(-0.403832 0.192621 0.0181608)
(-0.414803 0.160643 0.0077028)
(-0.416261 0.13101 0.0122971)
(-0.411183 0.109016 0.0168019)
(-0.391138 0.0915484 0.0162604)
(-0.365109 0.090396 0.00877304)
(-0.327288 0.10518 -0.0112967)
(-0.285051 0.133782 -0.0216763)
(-0.211659 0.167952 -0.0238462)
(-0.10748 0.158513 -0.0215503)
(-0.0239426 0.131057 -0.0124902)
(0.00688449 0.0512951 0.00102992)
(0.00907845 0.0295922 -0.0113071)
(0.0660598 0.130011 -0.0353798)
(0.136996 0.190258 -0.0332279)
(0.16678 0.229867 -0.0207132)
(0.170168 0.270654 -0.0162593)
(0.159043 0.311335 -0.0103806)
(0.139256 0.356052 -0.00119591)
(0.112698 0.391333 0.00735569)
(0.0881619 0.420357 0.014913)
(0.0625996 0.440988 0.030902)
(0.0355989 0.44847 0.0377941)
(0.0169111 0.447661 0.0460126)
(-0.00414267 0.434053 0.0469611)
(-0.0328766 0.412063 0.0425317)
(-0.0648622 0.387975 0.0341882)
(-0.0976071 0.35473 0.0244872)
(-0.118172 0.330824 0.0146887)
(-0.151545 0.298541 -0.00134905)
(-0.177226 0.29491 0.00128353)
(-0.183866 0.320424 0.00468052)
(-0.216817 0.352352 0.00833569)
(-0.263575 0.377072 0.011602)
(-0.321339 0.380579 0.00944591)
(-0.367368 0.355839 0.00597437)
(-0.363429 0.310312 0.0032891)
(-0.341432 0.241223 0.00258658)
(-0.354776 0.215303 0.00642677)
(-0.389028 0.188 0.0112663)
(-0.414086 0.161993 0.0078478)
(-0.433085 0.128171 0.0272701)
(-0.442612 0.0927058 0.0304418)
(-0.440774 0.0620576 0.0217052)
(-0.42714 0.0492935 0.0132072)
(-0.39266 0.0453809 0.009547)
(-0.346044 0.061492 0.00163359)
(-0.29373 0.0901771 -0.0160634)
(-0.225776 0.140862 -0.0266427)
(-0.1258 0.156488 -0.0221686)
(-0.0273537 0.134828 -0.0145242)
(0.00517469 0.0557262 0.00041753)
(0.00762526 0.0506787 -0.0131728)
(0.0665269 0.172073 -0.0400412)
(0.143444 0.235062 -0.0382229)
(0.181643 0.271534 -0.0228001)
(0.194793 0.305293 -0.0133342)
(0.190233 0.33793 -0.00653463)
(0.175027 0.369778 -0.0046595)
(0.150965 0.393535 0.00916217)
(0.126997 0.411843 0.0144653)
(0.105128 0.422132 0.0258351)
(0.0826746 0.424484 0.0345707)
(0.0561821 0.415032 0.0517698)
(0.0288985 0.390819 0.0529114)
(0.00570184 0.357596 0.0475544)
(-0.0302122 0.325582 0.0304467)
(-0.0651841 0.295339 0.0178893)
(-0.0971758 0.272778 0.0014382)
(-0.122154 0.245962 -0.00575137)
(-0.12041 0.265471 -0.00114719)
(-0.127698 0.281891 0.00282754)
(-0.167217 0.298071 0.00944467)
(-0.222209 0.316704 0.0142215)
(-0.298086 0.33241 0.0106051)
(-0.360774 0.321685 0.00704385)
(-0.387796 0.296745 0.00283509)
(-0.36434 0.233929 0.00368532)
(-0.346967 0.174454 0.00464048)
(-0.375876 0.151231 0.00580171)
(-0.407732 0.122115 0.0240318)
(-0.438473 0.0883441 0.034579)
(-0.455295 0.0542178 0.0408049)
(-0.453932 0.0274907 0.0539754)
(-0.441897 0.00301603 0.0460848)
(-0.424672 -0.00379938 0.0334813)
(-0.385021 0.00838901 0.0238373)
(-0.318618 0.047584 0.00261296)
(-0.231829 0.0933965 -0.02287)
(-0.132693 0.143396 -0.0234055)
(-0.0338604 0.132537 -0.0144544)
(0.00686382 0.0584128 -0.000478372)
(0.00630662 0.0645613 -0.0146402)
(0.0663481 0.208424 -0.0450987)
(0.148439 0.277264 -0.0438823)
(0.195525 0.309866 -0.0250061)
(0.217244 0.334045 -0.0106223)
(0.218654 0.35456 -0.00134677)
(0.205042 0.377007 0.00286887)
(0.182867 0.390127 0.00541403)
(0.165044 0.401458 0.0118274)
(0.144974 0.403915 0.0247474)
(0.119489 0.397105 0.0318031)
(0.0928671 0.380638 0.0392626)
(0.0607764 0.354901 0.0463408)
(0.0287367 0.321897 0.0432717)
(-0.00388384 0.281531 0.0262576)
(-0.0386548 0.256601 0.00841704)
(-0.0717617 0.23515 -0.00728936)
(-0.0791266 0.237506 -0.00640126)
(-0.0750898 0.247965 -0.00359224)
(-0.09245 0.245036 0.00465204)
(-0.125518 0.244339 0.0152472)
(-0.171049 0.251056 0.0214248)
(-0.253026 0.270421 0.0144394)
(-0.332667 0.27598 0.00993691)
(-0.373949 0.261378 0.00437865)
(-0.380296 0.232835 0.00398681)
(-0.348675 0.156968 0.00458196)
(-0.350894 0.115845 0.00836486)
(-0.389237 0.0837392 0.0219174)
(-0.422653 0.0467287 0.0330329)
(-0.44322 0.0160806 0.0563275)
(-0.462468 -0.0241608 0.0431558)
(-0.469992 -0.0653641 0.0331592)
(-0.447553 -0.0875012 0.0184011)
(-0.403554 -0.0760897 0.00397696)
(-0.346897 -0.0269584 0.0119793)
(-0.254796 0.0478302 -0.0022506)
(-0.140137 0.109633 -0.030896)
(-0.0383153 0.126884 -0.0140065)
(0.00676122 0.058348 -0.00218139)
(0.00488291 0.0781343 -0.0148253)
(0.0659478 0.240838 -0.0482796)
(0.152083 0.314354 -0.0490683)
(0.205138 0.342824 -0.0291126)
(0.233583 0.35748 -0.00982983)
(0.242324 0.366404 0.00366497)
(0.233462 0.376091 0.00895829)
(0.214254 0.385057 0.0128418)
(0.197946 0.390364 0.0148151)
(0.177581 0.386316 0.0178914)
(0.15484 0.373931 0.0176474)
(0.124369 0.352364 0.028256)
(0.0890807 0.322153 0.0262714)
(0.0511842 0.29147 0.0293506)
(0.0156382 0.257442 0.0162269)
(-0.0131408 0.238553 -0.00126367)
(-0.0323384 0.231643 -0.00908932)
(-0.0373843 0.238161 -0.00689915)
(-0.0472385 0.231337 -0.000998338)
(-0.066222 0.218196 0.00958745)
(-0.092582 0.206325 0.020649)
(-0.121621 0.198296 0.0281961)
(-0.191003 0.201326 0.0220344)
(-0.279631 0.224142 0.0125579)
(-0.332732 0.216779 0.0080827)
(-0.362676 0.206788 0.00672059)
(-0.351253 0.160306 0.0111897)
(-0.331008 0.0861982 0.0161087)
(-0.35868 0.0498477 0.0283208)
(-0.392776 0.0112264 0.0452167)
(-0.428593 -0.0354256 0.0357173)
(-0.466848 -0.0913963 0.0313852)
(-0.48034 -0.137435 0.0215946)
(-0.468994 -0.169509 0.0102559)
(-0.425701 -0.173584 -0.00221566)
(-0.353177 -0.131253 -0.00798739)
(-0.264656 -0.0338561 0.000342924)
(-0.156003 0.0654108 -0.0156249)
(-0.0409776 0.115136 -0.0182779)
(0.00569657 0.0596716 -0.00270796)
(0.00208643 0.0768788 -0.0144089)
(0.0615931 0.258069 -0.0482539)
(0.151238 0.336596 -0.0497892)
(0.211641 0.362372 -0.029411)
(0.24688 0.368777 -0.00885287)
(0.25906 0.368938 0.005483)
(0.25743 0.370303 0.0111392)
(0.244193 0.37483 0.0141526)
(0.229043 0.376518 0.0154761)
(0.208901 0.369463 0.0158168)
(0.182455 0.354615 0.0140564)
(0.149971 0.326134 0.012071)
(0.113759 0.296945 0.00809164)
(0.0750961 0.272666 0.0128421)
(0.0452323 0.263057 0.00269275)
(0.0255469 0.257041 -0.00676359)
(0.00656198 0.259555 -0.00659595)
(-0.00744346 0.256899 -0.000982962)
(-0.0239639 0.237153 0.00569535)
(-0.0426853 0.215881 0.014891)
(-0.0647057 0.19299 0.0206393)
(-0.0887532 0.172678 0.0262778)
(-0.132474 0.153025 0.0286006)
(-0.215298 0.170711 0.015161)
(-0.28145 0.169885 0.0110095)
(-0.31806 0.163099 0.0117006)
(-0.34212 0.144299 0.00842997)
(-0.325627 0.0855804 0.0152493)
(-0.321461 0.0162506 0.0204067)
(-0.36396 -0.0273938 0.0244821)
(-0.408653 -0.0891538 0.0258977)
(-0.447174 -0.143321 0.0212778)
(-0.472178 -0.198644 0.0131503)
(-0.472333 -0.241452 0.00106271)
(-0.437564 -0.259656 -0.0121729)
(-0.36892 -0.228246 -0.0188653)
(-0.270038 -0.142346 -0.0212683)
(-0.155415 -0.000432841 6.20454e-05)
(-0.0455487 0.0837602 -0.0262399)
(0.00403824 0.0572569 -0.00543788)
(0.00233399 0.0943856 -0.00905576)
(0.0601585 0.282879 -0.0459698)
(0.149274 0.36446 -0.0486983)
(0.214186 0.386354 -0.0289504)
(0.256094 0.384102 -0.00610929)
(0.277415 0.377616 0.00558221)
(0.283175 0.372229 0.0107561)
(0.27435 0.369468 0.0116022)
(0.259452 0.363761 0.00959258)
(0.237713 0.350823 0.00745786)
(0.207617 0.336951 0.00491197)
(0.17263 0.324686 0.00464447)
(0.14457 0.317393 0.00351585)
(0.121925 0.313914 0.00734953)
(0.0957573 0.313874 -0.00642947)
(0.0690613 0.301877 -0.00765687)
(0.0454448 0.292074 -0.00648834)
(0.0155022 0.27667 -0.00323958)
(-0.0109145 0.252538 0.00614612)
(-0.0281825 0.222693 0.013283)
(-0.0480799 0.192864 0.0171304)
(-0.0686714 0.165045 0.0205383)
(-0.0944914 0.135658 0.0261694)
(-0.158747 0.128861 0.0185254)
(-0.229556 0.131907 0.0115345)
(-0.268897 0.121493 0.00431797)
(-0.299286 0.108561 -0.00132822)
(-0.318677 0.0812199 0.00236705)
(-0.318391 0.0144323 0.0048731)
(-0.334717 -0.0550858 0.00921102)
(-0.375993 -0.117298 0.0141358)
(-0.415814 -0.184171 0.0123121)
(-0.447812 -0.249819 0.00691403)
(-0.459751 -0.306163 -0.0037333)
(-0.435336 -0.340593 -0.0177431)
(-0.374832 -0.327559 -0.0327739)
(-0.275381 -0.246558 -0.0394692)
(-0.163077 -0.0919848 -0.0245864)
(-0.0477382 0.0447166 -0.0180666)
(0.00901879 0.0537867 -0.0102004)
(-0.00767939 0.0894765 -0.0208581)
(0.0432998 0.289576 -0.0514299)
(0.137701 0.379805 -0.0545721)
(0.20955 0.402666 -0.0354938)
(0.262129 0.397675 -0.0105594)
(0.291225 0.38453 -0.00164771)
(0.302595 0.369286 0.00532833)
(0.296225 0.360694 0.00490099)
(0.280456 0.368285 0.00342147)
(0.264557 0.382 0.00303658)
(0.250916 0.394787 0.00289053)
(0.23307 0.398488 0.00210031)
(0.20717 0.392966 0.0011827)
(0.170896 0.375217 0.00377013)
(0.124875 0.351594 -0.00717308)
(0.0877885 0.327302 -0.00953803)
(0.0603876 0.296585 -0.00882208)
(0.0318243 0.269244 -0.00436813)
(0.00356215 0.245441 0.00198986)
(-0.0170538 0.213528 0.0104703)
(-0.0334333 0.183494 0.0134184)
(-0.0540399 0.155304 0.015677)
(-0.0735391 0.126038 0.0207741)
(-0.120163 0.104165 0.0200749)
(-0.184697 0.0989729 0.0125803)
(-0.229864 0.0870199 0.00475955)
(-0.260326 0.0728441 5.25009e-06)
(-0.284657 0.0556028 0.00252753)
(-0.307558 0.0195829 -0.000132926)
(-0.327486 -0.0463253 -0.00401184)
(-0.355207 -0.122796 -0.00126814)
(-0.390365 -0.189616 0.00370749)
(-0.417205 -0.266294 0.00201294)
(-0.432191 -0.344048 -0.00624269)
(-0.41851 -0.399519 -0.0198152)
(-0.366135 -0.40866 -0.0374905)
(-0.272213 -0.347431 -0.0565924)
(-0.16022 -0.202564 -0.0452761)
(-0.0437124 -0.00714704 -0.0102945)
(0.0092156 0.0444101 -0.0110893)
(-0.005905 0.182857 -0.0156139)
(0.0430282 0.387072 -0.0400899)
(0.132505 0.481836 -0.0461505)
(0.206712 0.504043 -0.0291466)
(0.265062 0.495092 -0.00979989)
(0.300011 0.474044 -0.000138045)
(0.320039 0.450953 0.00684757)
(0.339169 0.459315 0.00874608)
(0.353769 0.481355 0.00414807)
(0.346713 0.494009 -0.000700249)
(0.316011 0.491162 -0.00564964)
(0.269214 0.467966 -0.00609554)
(0.221052 0.431944 -0.00461689)
(0.176281 0.385904 -0.000925665)
(0.13729 0.345918 0.000813463)
(0.0977947 0.314019 -0.00475766)
(0.0679521 0.284672 -0.00672756)
(0.045249 0.249369 -0.00394628)
(0.0160909 0.222265 -0.000122978)
(-0.00547617 0.194288 0.00829941)
(-0.0203319 0.162417 0.0118653)
(-0.0392171 0.135827 0.0135534)
(-0.0574477 0.109401 0.0168135)
(-0.0953097 0.0852117 0.0173619)
(-0.15234 0.0721992 0.00979283)
(-0.194345 0.0577373 0.000739739)
(-0.220349 0.0481001 0.00284735)
(-0.248058 0.0338489 0.00405195)
(-0.279613 0.00917784 0.00390125)
(-0.315836 -0.0297358 0.000771117)
(-0.334869 -0.0931524 -0.00526106)
(-0.358535 -0.191793 -0.0168848)
(-0.398172 -0.285852 -0.0172361)
(-0.415121 -0.362297 -0.0192338)
(-0.397896 -0.431867 -0.0311242)
(-0.355079 -0.46865 -0.0553835)
(-0.27969 -0.440712 -0.0754074)
(-0.163838 -0.289016 -0.0655992)
(-0.0370364 -0.0865645 -0.0338788)
(0.0104723 0.0373543 -0.00950642)
(-0.0204808 0.299953 -0.0293483)
(0.018035 0.528216 -0.0470184)
(0.111949 0.633001 -0.0535349)
(0.191032 0.666369 -0.0374876)
(0.258879 0.659537 -0.0226458)
(0.301604 0.636665 -0.0114335)
(0.353096 0.605 -0.00104868)
(0.396203 0.596752 -0.00226162)
(0.389326 0.582699 -0.00526007)
(0.35533 0.551951 -0.00667274)
(0.313613 0.509288 -0.00632777)
(0.268683 0.463079 -0.00528517)
(0.221686 0.416577 -0.0036157)
(0.178456 0.370545 4.70795e-05)
(0.14124 0.329384 0.00188938)
(0.110319 0.290567 0.0052998)
(0.0773038 0.261927 -0.00120722)
(0.0506715 0.231037 -0.00275415)
(0.0302639 0.197662 0.000733965)
(0.00489636 0.17259 0.00504783)
(-0.0106364 0.141145 0.0115552)
(-0.02629 0.11461 0.0125113)
(-0.0433024 0.0891355 0.0150184)
(-0.0751799 0.0660937 0.0154025)
(-0.127027 0.0483682 0.00769452)
(-0.163399 0.0359137 0.00550214)
(-0.185333 0.026014 0.00564206)
(-0.212401 0.00981554 0.00714251)
(-0.24234 -0.00481862 0.00903729)
(-0.279331 -0.0268632 0.00663616)
(-0.33941 -0.0651763 0.00243223)
(-0.377617 -0.14322 0.0033809)
(-0.366394 -0.254526 -0.0115767)
(-0.366117 -0.394549 -0.03123)
(-0.369119 -0.506234 -0.0516182)
(-0.345727 -0.583283 -0.0755316)
(-0.260598 -0.576782 -0.092092)
(-0.171437 -0.438768 -0.0988905)
(-0.0530316 -0.173327 -0.0568527)
(0.0225922 0.0207759 -0.0163871)
(-0.00277503 0.288135 -0.00384811)
(0.0372163 0.533963 -0.0391158)
(0.116667 0.652988 -0.0489024)
(0.195391 0.701976 -0.0407859)
(0.262129 0.701564 -0.0289187)
(0.304188 0.67849 -0.0194595)
(0.349512 0.646104 -0.00920097)
(0.38871 0.603289 -0.00397006)
(0.384778 0.564704 -0.00268225)
(0.35401 0.525725 -0.00104193)
(0.313371 0.485755 -0.000607155)
(0.267552 0.44189 0.000306653)
(0.221585 0.394891 0.00161733)
(0.180772 0.349721 0.00241044)
(0.145332 0.306521 0.0043565)
(0.114488 0.269032 0.005632)
(0.0903207 0.23337 0.00924259)
(0.0617964 0.205968 0.00226453)
(0.0374262 0.177 0.00134388)
(0.0163824 0.149432 0.00460454)
(-0.00158981 0.124064 0.0101926)
(-0.0158889 0.0952687 0.0116576)
(-0.0311309 0.0715544 0.013473)
(-0.0604616 0.0483392 0.0143417)
(-0.104479 0.0290116 0.00570892)
(-0.134009 0.019844 0.00805609)
(-0.156484 0.00543763 0.00881738)
(-0.177904 -0.00647627 0.012712)
(-0.199096 -0.0184221 0.013271)
(-0.236453 -0.0357875 0.01104)
(-0.284962 -0.0612199 0.0091137)
(-0.348113 -0.0920921 0.00336309)
(-0.418379 -0.162917 0.000562047)
(-0.424769 -0.293536 -0.00259454)
(-0.379216 -0.433858 -0.0177595)
(-0.329148 -0.560082 -0.0347356)
(-0.246157 -0.622986 -0.0668764)
(-0.129535 -0.558453 -0.0758226)
(-0.0168008 -0.286335 -0.0742582)
(0.0202819 0.00478509 -0.00738201)
(0.00231296 0.29005 0.000950627)
(0.0407168 0.51137 -0.0310389)
(0.113586 0.631794 -0.0392805)
(0.190934 0.682188 -0.0339599)
(0.256778 0.682541 -0.0190851)
(0.304074 0.657152 -0.0118364)
(0.350399 0.624993 -0.00150104)
(0.388992 0.581103 0.00122079)
(0.387457 0.540367 0.00192729)
(0.3552 0.501745 0.00310018)
(0.313049 0.46065 0.00389296)
(0.265579 0.417077 0.00482846)
(0.219735 0.369829 0.00651325)
(0.180036 0.323748 0.00806809)
(0.148261 0.279647 0.00926713)
(0.12194 0.241631 0.00987804)
(0.0963272 0.207008 0.0104632)
(0.0743542 0.175065 0.0106113)
(0.0517001 0.150972 0.0101473)
(0.0275128 0.126012 0.00450781)
(0.00844262 0.10502 0.00923201)
(-0.00733951 0.0788278 0.0108496)
(-0.0195638 0.05658 0.0124725)
(-0.046546 0.0302742 0.0103084)
(-0.0822907 0.0164609 0.0085738)
(-0.109909 0.00431059 0.00933498)
(-0.128172 -0.00692253 0.01214)
(-0.143056 -0.0169538 0.013463)
(-0.164076 -0.0305822 0.0151212)
(-0.193368 -0.0495051 0.01546)
(-0.237963 -0.0713989 0.0137193)
(-0.288393 -0.10488 0.0128274)
(-0.341283 -0.143713 0.00695451)
(-0.382869 -0.195923 -0.00110649)
(-0.389983 -0.293436 -0.0106954)
(-0.374554 -0.419153 -0.0202096)
(-0.303143 -0.519917 -0.034317)
(-0.184622 -0.514076 -0.057646)
(-0.0242582 -0.299606 -0.0575414)
(0.0453521 0.0530301 -0.0275314)
(0.00590277 0.277242 0.00479713)
(0.0445129 0.48494 -0.0241197)
(0.112074 0.608058 -0.0323237)
(0.186266 0.663552 -0.0296509)
(0.250935 0.670477 -0.0134051)
(0.300298 0.64626 -0.00790738)
(0.344681 0.611176 0.000846187)
(0.378882 0.564454 0.00377473)
(0.380881 0.514748 0.0041016)
(0.351726 0.472559 0.00543184)
(0.309554 0.429752 0.00653772)
(0.26159 0.38549 0.00826035)
(0.215981 0.339415 0.0114759)
(0.178976 0.29582 0.0152673)
(0.150411 0.256035 0.0180901)
(0.126916 0.22006 0.018779)
(0.106269 0.186748 0.0184993)
(0.0854963 0.157117 0.0169446)
(0.0651865 0.12881 0.0155185)
(0.0442899 0.10791 0.0148562)
(0.0224436 0.0861228 0.00871429)
(0.00496361 0.0640951 0.0106545)
(-0.0113349 0.0404421 0.0115912)
(-0.0319244 0.0180801 0.00999546)
(-0.0601659 0.00270955 0.00865539)
(-0.08388 -0.00661701 0.0110958)
(-0.0988035 -0.0154176 0.0111776)
(-0.114224 -0.0275448 0.0126515)
(-0.13145 -0.0425854 0.014347)
(-0.157887 -0.0617597 0.0158629)
(-0.193267 -0.086259 0.0174856)
(-0.236251 -0.116636 0.0175159)
(-0.28332 -0.159762 0.018236)
(-0.311857 -0.217851 0.0176697)
(-0.329672 -0.298726 0.0120634)
(-0.343662 -0.413681 0.00299293)
(-0.318841 -0.506393 -0.0140221)
(-0.228019 -0.527429 -0.0377214)
(-0.0689882 -0.323561 -0.0491463)
(0.022707 0.0558739 -0.0127674)
(0.0102068 0.251911 0.00219878)
(0.0491196 0.436461 -0.0192531)
(0.110528 0.565251 -0.0268255)
(0.18342 0.624404 -0.0255013)
(0.246665 0.638163 -0.0134237)
(0.295673 0.617131 -0.00550233)
(0.339944 0.58107 0.0019988)
(0.369299 0.53574 0.0053229)
(0.372187 0.48367 0.00596683)
(0.347099 0.438071 0.00701823)
(0.304937 0.393335 0.00874704)
(0.257411 0.349682 0.0119145)
(0.215235 0.307175 0.0167587)
(0.183372 0.268 0.0205672)
(0.159106 0.231954 0.019702)
(0.137858 0.197176 0.0182096)
(0.116392 0.162946 0.0166055)
(0.0965844 0.123229 0.0149646)
(0.0793882 0.0925667 0.0135665)
(0.0584184 0.0783572 0.0114001)
(0.0353558 0.0650133 0.0132559)
(0.0156608 0.0489178 0.00914655)
(0.00205989 0.0284713 0.0134887)
(-0.0165804 0.00862025 0.00947943)
(-0.0381313 -0.00606094 0.0106231)
(-0.0565698 -0.0137734 0.010304)
(-0.0732157 -0.0248617 0.0111561)