/*--------------------------------*- C++ -*----------------------------------*\
| =========                 |                                                 |
| \\      /  F ield         | OpenFOAM: The Open Source CFD Toolbox           |
|  \\    /   O peration     | Version:  v1806                                 |
|   \\  /    A nd           | Web:      www.OpenFOAM.com                      |
|    \\/     M anipulation  |                                                 |
\*---------------------------------------------------------------------------*/
FoamFile
{
    version     2.0;
    format      ascii;
    class       volScalarField;
    location    "0.0565";
    object      p;
}
// * * * * * * * * * * * * * * * * * * * * * * * * * * * * * * * * * * * * * //

dimensions      [0 2 -2 0 0 0 0];


internalField   nonuniform List<scalar> 
64000
(
-2.04158e-06
-0.10575
-0.215193
-0.268598
-0.32258
-0.363226
-0.401125
-0.440621
-0.46931
-0.512925
-0.527086
-0.583973
-0.605391
-0.651926
-0.670314
-0.71099
-0.688404
-0.761135
-0.645383
-0.897432
-0.562365
-0.923668
-0.757293
-0.895922
-0.75747
-0.735269
-0.644476
-0.567382
-0.571556
-0.521576
-0.58504
-0.593256
-0.68394
-0.714946
-0.776977
-0.785825
-0.826258
-0.820567
-0.84248
-0.836918
-0.106919
-0.205435
-0.273504
-0.284849
-0.33131
-0.364528
-0.39826
-0.433385
-0.459344
-0.497638
-0.513548
-0.548615
-0.563429
-0.582207
-0.59041
-0.601393
-0.650948
-0.709341
-0.604147
-0.797513
-0.508453
-0.831413
-0.714631
-0.826302
-0.689515
-0.666193
-0.588793
-0.533405
-0.526247
-0.51194
-0.558796
-0.560969
-0.650452
-0.680763
-0.744303
-0.754094
-0.797374
-0.801817
-0.832225
-0.831835
-0.242987
-0.277791
-0.315758
-0.311678
-0.341302
-0.370569
-0.39791
-0.425341
-0.450457
-0.484406
-0.514955
-0.554764
-0.570334
-0.643651
-0.685887
-0.740812
-0.734647
-0.80421
-0.712182
-0.933182
-0.709957
-1.0621
-1.02778
-1.17963
-1.09691
-1.10213
-1.05408
-0.998075
-0.972728
-0.894007
-0.892041
-0.836798
-0.856168
-0.811735
-0.819427
-0.808552
-0.828718
-0.828089
-0.848626
-0.84844
-0.318766
-0.327244
-0.344966
-0.340542
-0.350337
-0.374125
-0.407747
-0.437891
-0.480868
-0.511386
-0.537979
-0.607018
-0.6871
-0.755717
-0.794342
-0.843893
-0.876941
-0.971112
-0.921453
-1.16437
-0.983092
-1.34541
-1.36811
-1.54223
-1.48941
-1.50599
-1.45861
-1.3992
-1.3436
-1.24635
-1.17769
-1.06423
-1.00577
-0.942008
-0.893708
-0.858556
-0.881922
-0.856194
-0.87507
-0.872941
-0.368801
-0.358636
-0.387468
-0.377996
-0.382988
-0.389564
-0.434229
-0.44615
-0.512434
-0.581272
-0.712795
-0.835738
-0.886097
-0.981922
-1.03498
-1.11265
-1.15031
-1.23527
-1.18837
-1.43279
-1.29082
-1.63457
-1.69841
-1.86621
-1.84881
-1.85883
-1.81976
-1.74462
-1.68976
-1.57376
-1.48997
-1.35739
-1.23284
-1.09367
-0.968397
-0.929628
-0.914611
-0.903032
-0.911128
-0.908762
-0.407271
-0.399635
-0.410305
-0.447746
-0.442668
-0.456026
-0.484452
-0.622466
-0.775482
-0.916728
-0.995506
-1.06859
-1.13408
-1.1966
-1.24576
-1.32941
-1.32276
-1.46017
-1.42552
-1.6488
-1.53355
-1.85546
-1.93067
-2.0771
-2.05401
-2.06016
-2.00905
-1.94583
-1.86743
-1.77238
-1.66088
-1.54347
-1.40727
-1.32022
-1.11027
-1.00951
-0.983081
-0.949262
-0.956841
-0.955119
-0.468438
-0.479184
-0.485878
-0.548257
-0.633652
-0.673531
-0.879669
-0.936182
-1.05401
-1.12419
-1.2219
-1.30543
-1.37669
-1.45297
-1.49903
-1.55834
-1.58121
-1.64724
-1.61697
-1.80679
-1.74755
-1.95826
-2.08486
-2.18682
-2.18936
-2.1826
-2.14581
-2.08718
-2.02711
-1.93639
-1.82223
-1.68366
-1.52733
-1.39283
-1.21095
-1.05504
-1.01607
-0.981908
-1.00008
-0.997266
-0.516263
-0.498029
-0.540021
-0.622495
-0.712788
-0.820898
-1.02351
-1.08459
-1.2317
-1.33153
-1.43106
-1.51059
-1.58375
-1.63483
-1.69093
-1.73724
-1.75
-1.80719
-1.74453
-1.91396
-1.91027
-1.95161
-2.18233
-2.24731
-2.2703
-2.25525
-2.22563
-2.18314
-2.13283
-2.05413
-1.9535
-1.81854
-1.67448
-1.51183
-1.36591
-1.13971
-1.08243
-1.0391
-1.04712
-1.05286
-0.564917
-0.546706
-0.602182
-0.71103
-0.833612
-1.022
-1.16848
-1.27097
-1.39167
-1.50148
-1.60597
-1.68659
-1.76139
-1.81387
-1.86477
-1.90164
-1.91106
-1.94035
-1.88768
-1.9494
-1.99266
-1.95311
-2.17736
-2.27124
-2.29829
-2.30956
-2.28215
-2.26379
-2.2353
-2.17094
-2.0683
-1.93231
-1.78554
-1.59505
-1.45421
-1.22704
-1.12216
-1.08778
-1.09098
-1.10425
-0.606564
-0.594202
-0.678943
-0.799023
-0.984102
-1.15203
-1.3086
-1.40797
-1.53886
-1.63039
-1.76346
-1.82629
-1.89614
-1.93829
-1.97854
-2.00308
-2.0093
-1.99726
-1.91108
-2.01595
-2.03126
-1.98813
-2.01399
-2.27184
-2.28096
-2.33011
-2.31607
-2.32375
-2.31174
-2.24892
-2.18024
-2.04633
-1.9005
-1.72481
-1.56977
-1.35696
-1.20648
-1.1621
-1.15247
-1.17154
-0.674155
-0.664478
-0.756256
-0.914767
-1.13167
-1.28684
-1.43886
-1.5561
-1.67889
-1.77924
-1.86781
-1.93026
-2.02585
-2.03836
-2.07072
-2.07717
-2.09584
-2.02456
-1.95941
-1.94579
-1.88775
-1.81787
-1.69416
-2.15471
-2.22545
-2.33804
-2.34103
-2.38216
-2.37473
-2.34575
-2.26306
-2.15689
-1.99785
-1.80735
-1.6294
-1.45864
-1.27173
-1.2177
-1.20567
-1.23169
-0.74861
-0.739799
-0.857478
-1.05047
-1.24654
-1.40985
-1.55848
-1.67787
-1.79629
-1.88238
-1.96962
-2.02982
-2.06804
-2.12313
-2.12924
-2.13802
-2.16399
-2.03897
-2.05547
-1.94448
-1.77238
-1.49412
-1.35407
-1.84792
-2.14832
-2.29359
-2.38069
-2.40951
-2.43478
-2.4091
-2.35949
-2.23402
-2.10713
-1.93418
-1.74034
-1.56501
-1.36337
-1.29942
-1.27264
-1.30217
-0.808658
-0.817844
-0.949955
-1.13213
-1.3331
-1.50288
-1.6576
-1.77459
-1.89573
-1.97764
-2.0558
-2.09658
-2.14646
-2.14455
-2.17749
-2.1808
-2.2224
-2.07594
-2.16921
-2.01367
-1.65461
-1.12625
-1.19399
-1.65312
-2.01989
-2.3016
-2.39839
-2.47367
-2.48825
-2.48249
-2.42461
-2.36242
-2.2152
-2.06132
-1.85327
-1.67836
-1.45693
-1.37408
-1.34137
-1.37137
-0.947244
-0.950747
-1.075
-1.24962
-1.44202
-1.63134
-1.76275
-1.87236
-1.96349
-2.02629
-2.08184
-2.1187
-2.1492
-2.18046
-2.19207
-2.23329
-2.23685
-2.09971
-2.2522
-1.9603
-1.40868
-1.16125
-1.21438
-1.54937
-1.89921
-2.33819
-2.44437
-2.51714
-2.54269
-2.53485
-2.51788
-2.43072
-2.30984
-2.14246
-1.96243
-1.76614
-1.5721
-1.44839
-1.41548
-1.45395
-0.930436
-0.949537
-1.08225
-1.25216
-1.45097
-1.62185
-1.77488
-1.8785
-1.99286
-2.06224
-2.12899
-2.15532
-2.20304
-2.18617
-2.17595
-2.18456
-2.19482
-2.1875
-2.11961
-1.68816
-1.47577
-1.414
-1.39302
-1.48507
-1.75447
-2.14073
-2.41742
-2.47141
-2.57981
-2.60017
-2.59016
-2.53963
-2.42638
-2.28959
-2.08526
-1.90628
-1.70879
-1.55627
-1.48768
-1.51943
-1.20364
-1.18941
-1.29935
-1.44762
-1.62682
-1.77976
-1.90458
-1.99189
-2.06224
-2.07858
-2.08049
-2.07111
-2.10821
-2.12141
-2.16788
-2.17675
-2.18004
-1.94929
-1.76788
-1.58449
-1.55817
-1.51231
-1.48922
-1.51403
-1.6368
-1.93088
-2.39219
-2.46799
-2.58831
-2.60444
-2.59852
-2.55815
-2.47317
-2.35008
-2.1811
-1.98754
-1.8042
-1.7066
-1.60553
-1.64738
-0.860785
-0.917925
-1.0576
-1.22361
-1.4193
-1.57341
-1.73651
-1.82228
-1.92773
-2.02244
-2.09682
-2.15247
-2.19581
-2.11328
-1.98568
-1.73549
-1.65629
-1.41303
-1.38467
-1.38916
-1.44231
-1.4405
-1.46012
-1.48392
-1.53237
-1.76027
-2.03576
-2.44457
-2.52916
-2.62507
-2.67712
-2.65489
-2.58237
-2.47317
-2.29976
-2.11667
-1.90618
-1.74921
-1.63731
-1.64716
-1.34153
-1.31562
-1.3836
-1.48842
-1.63094
-1.75569
-1.88669
-1.97906
-2.07056
-2.00547
-1.79292
-1.56411
-1.41141
-1.23465
-1.18531
-1.16835
-1.25058
-1.23603
-1.27774
-1.31124
-1.35528
-1.38662
-1.41835
-1.46676
-1.50492
-1.7461
-2.00474
-2.20806
-2.40608
-2.39363
-2.52249
-2.55032
-2.55545
-2.52902
-2.4258
-2.25554
-2.08331
-1.97657
-1.88096
-1.91163
-0.33218
-0.364762
-0.488959
-0.617863
-0.826214
-0.969991
-1.14533
-1.1265
-1.02085
-0.971134
-1.02302
-1.08417
-1.13749
-1.14232
-1.14152
-1.12496
-1.14294
-1.12567
-1.17448
-1.20491
-1.29168
-1.31583
-1.36371
-1.42225
-1.4492
-1.64154
-1.84579
-2.09212
-2.17666
-2.49159
-2.61028
-2.5781
-2.51986
-2.40552
-2.22574
-2.11478
-1.97446
-1.77869
-1.75768
-1.71938
-0.769613
-0.639664
-0.635288
-0.63905
-0.720798
-0.781759
-0.864325
-0.955535
-1.05034
-1.0903
-1.10961
-1.09865
-1.07979
-1.05262
-1.04684
-1.03706
-1.05256
-1.05819
-1.09192
-1.13027
-1.2136
-1.26863
-1.32187
-1.3614
-1.4374
-1.59461
-1.85539
-2.03381
-2.06939
-2.02027
-1.99658
-2.20918
-2.56125
-2.83107
-2.82916
-2.71938
-2.55635
-2.41542
-2.17508
-2.14929
-0.411903
-0.39717
-0.422882
-0.471555
-0.587613
-0.678856
-0.786643
-0.857909
-0.939898
-0.995017
-1.03697
-1.05435
-1.04552
-1.02488
-1.00549
-0.998974
-1.00164
-0.996357
-1.03321
-1.07931
-1.136
-1.23377
-1.25227
-1.35428
-1.42342
-1.58571
-1.77614
-1.948
-2.03075
-2.03797
-2.0427
-1.96989
-1.86214
-1.7221
-1.81247
-1.85309
-1.88132
-1.86299
-1.90243
-1.73736
-0.585982
-0.539001
-0.547154
-0.562308
-0.643123
-0.716469
-0.800557
-0.885283
-0.974503
-1.02714
-1.06056
-1.0607
-1.03831
-1.0186
-0.993483
-0.978796
-0.975652
-0.982725
-1.02777
-1.04668
-1.15165
-1.18155
-1.31767
-1.33295
-1.43912
-1.57237
-1.72818
-1.8717
-1.97499
-2.01428
-2.02617
-2.02757
-2.09082
-2.03267
-1.98176
-1.84099
-1.73909
-1.61495
-1.59672
-1.7373
-0.527009
-0.514209
-0.521974
-0.548471
-0.626241
-0.703627
-0.789232
-0.883272
-0.978793
-1.046
-1.08009
-1.07973
-1.06316
-1.04318
-1.01946
-1.00248
-0.988689
-0.96139
-1.00729
-1.02824
-1.10898
-1.20876
-1.25891
-1.39438
-1.42318
-1.56416
-1.67364
-1.78338
-1.87991
-1.92435
-1.97838
-1.95457
-1.9626
-1.87359
-1.88915
-1.8023
-1.7591
-1.62161
-1.58825
-1.69185
-0.583646
-0.554956
-0.58115
-0.594017
-0.675654
-0.741059
-0.827774
-0.914049
-1.00318
-1.07327
-1.11014
-1.11776
-1.10667
-1.0946
-1.07399
-1.03563
-1.02046
-0.981467
-1.06768
-1.06876
-1.1677
-1.17428
-1.32379
-1.36902
-1.49316
-1.58555
-1.68268
-1.76212
-1.86248
-1.90269
-1.98979
-1.98822
-2.0695
-2.02014
-2.06799
-1.96342
-1.94416
-1.78016
-1.70206
-1.78202
-0.60612
-0.580595
-0.616337
-0.626377
-0.708304
-0.770693
-0.865435
-0.955002
-1.0462
-1.12154
-1.15928
-1.17205
-1.16407
-1.16024
-1.13489
-1.10045
-1.09914
-1.06788
-1.16691
-1.07358
-1.1894
-1.23375
-1.3177
-1.40448
-1.48847
-1.60102
-1.68222
-1.73836
-1.81231
-1.84024
-1.90398
-1.87131
-1.9195
-1.83436
-1.87823
-1.77077
-1.7877
-1.66552
-1.66147
-1.78681
-0.634095
-0.596007
-0.642671
-0.651123
-0.730659
-0.798143
-0.881874
-0.95892
-1.05017
-1.12187
-1.17836
-1.20674
-1.22712
-1.22856
-1.21715
-1.19344
-1.20928
-1.16735
-1.24941
-1.07354
-1.22635
-1.23164
-1.36307
-1.41902
-1.54006
-1.60483
-1.72702
-1.78591
-1.86429
-1.87192
-2.00195
-2.0024
-2.12737
-2.05256
-2.135
-1.98482
-1.98694
-1.79342
-1.72184
-1.68034
-0.676463
-0.644309
-0.681836
-0.699862
-0.770855
-0.84394
-0.930032
-1.02647
-1.11914
-1.18895
-1.23674
-1.27376
-1.28567
-1.3017
-1.31385
-1.28364
-1.3156
-1.26205
-1.35303
-1.14746
-1.28567
-1.27792
-1.38606
-1.45579
-1.56425
-1.63222
-1.75134
-1.8437
-1.91732
-1.99539
-2.11726
-2.0984
-2.21599
-2.14698
-2.28512
-2.1921
-2.30094
-2.16292
-2.19022
-2.1764
-0.683339
-0.659816
-0.669297
-0.709366
-0.770706
-0.846185
-0.930938
-1.02346
-1.1091
-1.18526
-1.24746
-1.29725
-1.33626
-1.35944
-1.38409
-1.385
-1.42011
-1.34569
-1.39432
-1.18224
-1.32037
-1.31352
-1.40987
-1.44802
-1.59606
-1.6115
-1.80524
-1.82463
-1.96953
-1.96866
-2.08024
-1.99177
-2.11099
-1.96889
-2.12424
-1.95046
-2.08573
-1.87767
-1.93372
-1.83859
-0.738136
-0.721819
-0.72359
-0.749986
-0.829615
-0.899081
-0.99637
-1.082
-1.16455
-1.23443
-1.29428
-1.34731
-1.39542
-1.42314
-1.47839
-1.44478
-1.54036
-1.36829
-1.52615
-1.24722
-1.37145
-1.35524
-1.43395
-1.45217
-1.57772
-1.51189
-1.76893
-1.73369
-2.01576
-1.91407
-2.04877
-1.93001
-2.0657
-1.89343
-2.04522
-1.83529
-1.94971
-1.67523
-1.66568
-1.55239
-0.713806
-0.700037
-0.695812
-0.69572
-0.792583
-0.833157
-0.952012
-1.03421
-1.12878
-1.20152
-1.27564
-1.33053
-1.39102
-1.43011
-1.48891
-1.49455
-1.56437
-1.49725
-1.56822
-1.30256
-1.38386
-1.37276
-1.4342
-1.4136
-1.59092
-1.40878
-1.82255
-1.77762
-2.03577
-1.88783
-2.08345
-1.88
-2.06762
-1.81731
-2.04712
-1.7135
-1.88334
-1.50314
-1.49679
-1.33864
-0.786667
-0.777287
-0.7774
-0.762489
-0.841422
-0.912967
-1.00681
-1.08345
-1.17414
-1.24803
-1.32512
-1.38472
-1.45621
-1.47657
-1.58142
-1.50435
-1.64352
-1.51566
-1.63103
-1.33851
-1.37528
-1.38364
-1.43723
-1.38159
-1.61061
-1.28947
-2.00292
-1.66776
-2.08613
-1.84342
-2.09731
-1.87479
-2.05464
-1.76855
-1.96939
-1.62387
-1.77393
-1.33219
-1.25723
-0.985942
-0.723999
-0.70396
-0.724315
-0.667394
-0.724586
-0.807308
-0.905576
-0.975786
-1.07819
-1.15519
-1.25583
-1.32125
-1.41103
-1.45357
-1.52094
-1.49717
-1.63231
-1.51566
-1.65311
-1.36497
-1.33188
-1.33848
-1.40261
-1.31096
-1.6005
-1.17659
-2.07036
-1.63675
-2.10623
-1.80532
-2.13982
-1.80606
-2.12052
-1.68569
-1.99357
-1.44906
-1.71815
-1.11004
-1.03502
-0.579142
-0.823211
-0.824616
-0.809051
-0.804173
-0.776721
-0.869169
-0.96281
-1.01817
-1.11266
-1.1872
-1.28737
-1.36306
-1.46695
-1.47833
-1.61148
-1.56091
-1.71745
-1.59607
-1.71837
-1.45142
-1.3371
-1.33405
-1.38359
-1.26456
-1.58711
-1.08471
-2.10977
-1.65562
-2.19031
-1.77017
-2.19324
-1.79922
-2.12392
-1.70462
-1.98781
-1.41603
-1.60792
-0.935343
-0.737338
-0.0827089
-0.705583
-0.684306
-0.700142
-0.649456
-0.655732
-0.650987
-0.812959
-0.833539
-0.959783
-1.03101
-1.16971
-1.2347
-1.3704
-1.42069
-1.5635
-1.53142
-1.70891
-1.58899
-1.71002
-1.44684
-1.24924
-1.24273
-1.28311
-1.14578
-1.49974
-0.979069
-2.04693
-1.69266
-2.18195
-1.79259
-2.2237
-1.7375
-2.16285
-1.55751
-2.01287
-1.22385
-1.52953
-0.493565
-0.373285
0.706602
-0.846678
-0.860045
-0.836112
-0.804977
-0.80383
-0.714565
-0.885191
-0.874771
-0.989794
-1.04685
-1.1615
-1.26267
-1.40309
-1.45715
-1.62345
-1.5911
-1.78854
-1.68112
-1.77908
-1.53019
-1.21223
-1.21866
-1.2377
-1.05178
-1.40747
-0.886741
-2.00496
-1.71862
-2.32384
-1.81102
-2.30058
-1.76523
-2.24508
-1.56468
-2.05229
-1.26924
-1.52815
-0.287667
0.0269036
1.61382
-0.715021
-0.638564
-0.691855
-0.564243
-0.624631
-0.473979
-0.667539
-0.634689
-0.771335
-0.84255
-1.01298
-1.10764
-1.29506
-1.35942
-1.56559
-1.55244
-1.76507
-1.67678
-1.75249
-1.47327
-1.07767
-1.0489
-1.05311
-0.835901
-1.23063
-0.778172
-1.91301
-1.74078
-2.36491
-1.85676
-2.37179
-1.65481
-2.27004
-1.4462
-1.93447
-0.988534
-1.32183
0.368303
0.832877
3.41711
-0.872295
-0.946166
-0.847085
-0.826939
-0.744934
-0.638373
-0.714414
-0.67622
-0.788837
-0.85434
-0.999221
-1.10853
-1.29039
-1.37856
-1.59887
-1.61727
-1.83872
-1.78034
-1.82319
-1.50424
-1.06013
-0.927082
-0.939757
-0.648518
-1.06157
-0.674417
-1.85144
-1.7371
-2.46782
-1.94453
-2.51689
-1.75264
-2.3746
-1.41034
-2.18624
-0.963985
-1.51888
0.680573
1.40923
5.20556
-1.13587
-0.686807
-0.801673
-0.4429
-0.536906
-0.303626
-0.435292
-0.415694
-0.55395
-0.62221
-0.802293
-0.915176
-1.1342
-1.244
-1.50072
-1.55666
-1.80308
-1.77932
-1.78725
-1.4206
-0.921884
-0.65321
-0.666548
-0.382777
-0.796232
-0.575746
-1.78609
-1.73165
-2.50731
-1.96963
-2.54022
-1.74206
-2.26914
-1.28376
-1.87966
-0.410156
-0.863378
1.8487
3.46133
9.8763
-0.965073
-1.22794
-1.03535
-0.979649
-0.575762
-0.491869
-0.443397
-0.422694
-0.529107
-0.594917
-0.743408
-0.856896
-1.06916
-1.18596
-1.45444
-1.53327
-1.83001
-1.85759
-1.88942
-1.37257
-0.965422
-0.506158
-0.475927
-0.169903
-0.618361
-0.493254
-1.74766
-1.68778
-2.62963
-2.06556
-2.65261
-1.80595
-2.38502
-1.39552
-2.04991
-0.734608
-1.10822
2.4582
4.52391
13.4715
-3.46729
-0.712655
-1.03461
-0.542237
-0.461217
-0.214217
-0.286133
-0.270398
-0.405659
-0.483412
-0.663112
-0.776616
-1.00011
-1.12465
-1.40711
-1.52562
-1.8871
-1.95585
-1.85809
-1.25782
-0.860243
-0.22152
-0.17744
0.0625297
-0.511975
-0.557518
-1.83307
-1.7795
-2.77049
-2.08891
-2.61367
-1.70234
-2.2299
-1.239
-1.68104
-0.0311483
0.537864
6.32319
11.5489
25.7368
-0.107533
-0.213793
-0.259413
-0.288466
-0.329201
-0.368012
-0.406657
-0.444972
-0.481804
-0.517782
-0.546603
-0.593576
-0.619339
-0.6576
-0.685016
-0.717185
-0.707184
-0.75707
-0.730694
-0.930983
-0.653001
-0.940607
-0.868736
-0.974343
-0.848218
-0.827079
-0.747153
-0.690099
-0.673891
-0.639868
-0.671772
-0.662855
-0.735976
-0.749354
-0.797633
-0.797268
-0.830519
-0.825527
-0.848719
-0.837766
-0.222088
-0.270889
-0.302346
-0.308396
-0.33809
-0.369428
-0.399385
-0.437448
-0.451554
-0.496004
-0.50323
-0.570007
-0.573999
-0.595469
-0.600559
-0.63597
-0.649379
-0.717533
-0.629372
-0.82923
-0.663022
-0.9283
-0.864248
-0.980294
-0.864481
-0.863729
-0.800306
-0.756574
-0.742965
-0.696113
-0.72068
-0.711308
-0.723751
-0.732379
-0.782469
-0.781024
-0.817409
-0.812331
-0.837461
-0.82695
-0.291812
-0.31216
-0.331242
-0.31342
-0.340498
-0.367319
-0.3958
-0.417331
-0.472659
-0.503255
-0.533646
-0.561175
-0.582183
-0.629655
-0.685371
-0.770671
-0.767729
-0.835754
-0.768876
-0.987186
-0.888934
-1.19553
-1.22482
-1.38103
-1.3113
-1.32474
-1.2805
-1.23178
-1.19846
-1.10743
-1.0454
-0.952502
-0.92599
-0.881417
-0.852209
-0.826672
-0.847111
-0.838997
-0.855672
-0.848255
-0.352044
-0.362832
-0.367979
-0.360528
-0.364605
-0.37692
-0.411411
-0.452467
-0.482214
-0.513617
-0.537638
-0.597715
-0.685103
-0.769179
-0.817986
-0.901941
-0.923409
-1.02542
-0.990443
-1.23595
-1.20033
-1.53573
-1.59727
-1.76566
-1.70476
-1.71628
-1.66086
-1.58782
-1.5245
-1.4008
-1.31124
-1.15532
-1.06288
-0.966931
-0.923135
-0.877248
-0.902892
-0.866169
-0.883628
-0.875267
-0.386769
-0.374341
-0.384528
-0.376158
-0.401044
-0.389872
-0.443631
-0.455782
-0.52533
-0.594642
-0.729583
-0.850234
-0.921891
-0.995824
-1.06384
-1.15751
-1.1885
-1.29171
-1.2826
-1.48796
-1.45615
-1.77129
-1.87312
-2.01383
-1.97594
-1.97992
-1.93626
-1.86852
-1.784
-1.64659
-1.53531
-1.39566
-1.25483
-1.09999
-0.974785
-0.937941
-0.927502
-0.910197
-0.914496
-0.912104
-0.419873
-0.429827
-0.438459
-0.4642
-0.423253
-0.464424
-0.482763
-0.621242
-0.78598
-0.926558
-1.007
-1.08229
-1.15396
-1.21949
-1.27959
-1.36944
-1.39616
-1.50492
-1.48347
-1.69121
-1.66841
-1.95893
-2.06662
-2.20118
-2.16867
-2.15283
-2.09871
-2.00241
-1.9477
-1.80725
-1.69748
-1.56183
-1.4267
-1.31259
-1.10941
-1.03086
-1.00228
-0.968142
-0.966611
-0.965376
-0.496868
-0.483042
-0.517171
-0.552621
-0.618853
-0.629357
-0.834236
-0.957112
-1.06011
-1.13717
-1.23828
-1.32218
-1.40093
-1.471
-1.54342
-1.59251
-1.62462
-1.68783
-1.66662
-1.79596
-1.79608
-2.03368
-2.14865
-2.26623
-2.24987
-2.23496
-2.19503
-2.1216
-2.03766
-1.92183
-1.81208
-1.66135
-1.51192
-1.37718
-1.21034
-1.069
-1.02663
-0.998156
-0.998293
-1.00218
-0.52127
-0.532393
-0.579996
-0.64665
-0.72813
-0.800079
-1.03294
-1.10809
-1.24408
-1.34608
-1.44022
-1.53024
-1.60135
-1.67682
-1.72743
-1.76739
-1.77604
-1.81107
-1.78314
-1.85602
-1.88143
-1.96802
-2.21115
-2.29418
-2.31876
-2.29655
-2.28086
-2.20829
-2.16198
-2.0349
-1.93121
-1.80275
-1.6497
-1.50338
-1.34691
-1.17098
-1.10802
-1.06829
-1.06189
-1.06626
-0.588961
-0.598441
-0.634345
-0.745696
-0.844277
-1.00463
-1.17088
-1.28555
-1.41217
-1.51463
-1.62107
-1.69916
-1.77983
-1.85384
-1.90249
-1.92847
-1.92699
-1.92544
-1.88488
-1.90046
-1.91931
-1.93131
-2.16382
-2.29194
-2.33249
-2.35018
-2.34169
-2.29527
-2.22391
-2.13588
-2.03245
-1.90832
-1.76935
-1.56129
-1.42801
-1.21273
-1.14045
-1.09733
-1.09871
-1.10906
-0.63722
-0.650151
-0.740237
-0.842236
-1.00079
-1.12438
-1.32412
-1.41097
-1.54502
-1.66308
-1.75111
-1.84641
-1.91116
-1.98564
-2.03356
-2.05556
-2.05076
-2.01703
-1.95915
-1.94738
-1.94268
-1.89921
-1.98585
-2.28658
-2.33602
-2.39014
-2.41058
-2.34336
-2.32516
-2.21764
-2.16068
-2.06821
-1.93736
-1.7862
-1.57493
-1.35775
-1.22338
-1.18904
-1.16857
-1.18341
-0.705455
-0.719841
-0.808178
-0.957115
-1.16955
-1.27573
-1.44255
-1.5484
-1.67585
-1.79642
-1.88603
-1.96386
-2.02992
-2.0811
-2.14752
-2.15994
-2.16145
-2.10115
-2.02785
-1.91583
-1.81019
-1.69584
-1.65338
-2.10558
-2.28508
-2.40305
-2.44285
-2.43401
-2.36692
-2.35225
-2.28688
-2.14841
-2.00241
-1.80689
-1.65463
-1.43578
-1.25942
-1.23453
-1.21496
-1.23504
-0.787532
-0.802986
-0.919449
-1.11515
-1.29021
-1.4202
-1.55404
-1.6814
-1.7928
-1.88117
-1.97665
-2.05539
-2.0997
-2.15689
-2.22164
-2.23701
-2.24191
-2.17399
-2.11927
-1.92791
-1.62415
-1.3222
-1.27119
-1.77216
-2.20527
-2.38651
-2.47855
-2.44875
-2.48805
-2.4561
-2.34992
-2.28349
-2.15141
-2.01491
-1.83228
-1.62776
-1.34734
-1.29756
-1.28594
-1.30906
-0.863755
-0.888721
-1.03139
-1.2135
-1.39425
-1.53357
-1.67895
-1.7614
-1.91352
-1.98131
-2.07259
-2.10281
-2.19614
-2.19843
-2.28162
-2.28892
-2.31071
-2.24304
-2.22241
-1.96379
-1.45354
-0.979502
-1.04794
-1.54564
-2.01337
-2.36684
-2.45682
-2.55836
-2.57735
-2.52787
-2.52311
-2.40335
-2.25561
-2.06134
-1.87435
-1.71656
-1.50488
-1.33888
-1.35759
-1.37506
-1.00503
-1.02817
-1.16298
-1.33665
-1.51457
-1.67009
-1.79703
-1.89206
-1.97614
-2.03257
-2.12081
-2.16918
-2.20801
-2.29029
-2.33694
-2.33796
-2.32998
-2.27909
-2.24505
-1.84626
-1.2839
-0.98387
-1.02343
-1.42207
-1.86665
-2.39725
-2.50001
-2.62107
-2.60947
-2.65709
-2.56868
-2.48171
-2.3381
-2.18046
-1.95069
-1.77558
-1.60548
-1.44805
-1.39704
-1.46846
-1.00652
-1.0387
-1.17639
-1.34669
-1.53279
-1.70443
-1.85749
-1.94238
-2.04943
-2.11233
-2.19795
-2.2154
-2.3071
-2.27258
-2.32251
-2.29991
-2.32178
-2.27373
-2.0537
-1.65081
-1.3421
-1.21112
-1.16692
-1.33675
-1.70092
-2.08302
-2.46275
-2.47727
-2.66965
-2.65457
-2.64201
-2.57538
-2.45916
-2.30295
-2.09502
-1.88401
-1.70574
-1.61412
-1.44234
-1.53863
-1.22342
-1.24301
-1.37234
-1.52457
-1.7011
-1.87407
-1.97685
-2.06358
-2.14619
-2.17704
-2.2015
-2.18369
-2.21539
-2.18841
-2.27055
-2.28099
-2.20195
-1.94154
-1.6875
-1.4867
-1.41185
-1.3961
-1.35644
-1.36843
-1.59737
-1.93832
-2.46345
-2.68173
-2.67414
-2.69804
-2.66654
-2.62255
-2.52209
-2.38568
-2.19034
-2.00303
-1.79238
-1.71276
-1.57882
-1.64302
-0.991224
-1.05946
-1.1951
-1.37942
-1.56755
-1.71951
-1.85312
-1.94358
-2.03855
-2.11181
-2.16576
-2.1785
-2.19509
-2.05846
-1.91089
-1.82696
-1.64662
-1.43314
-1.37613
-1.34444
-1.3642
-1.39637
-1.40061
-1.37447
-1.53292
-1.75284
-2.06059
-2.49749
-2.6535
-2.70787
-2.73611
-2.71439
-2.64195
-2.52896
-2.34096
-2.14536
-1.92669
-1.75822
-1.66254
-1.63249
-1.34172
-1.31603
-1.399
-1.52303
-1.68394
-1.80605
-1.92828
-2.00113
-2.06944
-1.99947
-1.82657
-1.61634
-1.45947
-1.28189
-1.23897
-1.20777
-1.21506
-1.20497
-1.22741
-1.24746
-1.2866
-1.34505
-1.37644
-1.39436
-1.49407
-1.7712
-1.96534
-2.1565
-2.42636
-2.56535
-2.65828
-2.67773
-2.64618
-2.5821
-2.46593
-2.29984
-2.08455
-1.94492
-1.93384
-1.89811
-0.475347
-0.562427
-0.649945
-0.814347
-0.947554
-1.11904
-1.23602
-1.23863
-1.12968
-1.07848
-1.07075
-1.09918
-1.10531
-1.08893
-1.08034
-1.07649
-1.08441
-1.07447
-1.11797
-1.15065
-1.20621
-1.27196
-1.32294
-1.37877
-1.42144
-1.66897
-1.85502
-2.01401
-2.1039
-2.29603
-2.50022
-2.6042
-2.63286
-2.60064
-2.51652
-2.32013
-2.06024
-1.86187
-1.77747
-1.7786
-0.645975
-0.601048
-0.619191
-0.659728
-0.732501
-0.815034
-0.903864
-0.962565
-1.01402
-1.02901
-1.03757
-1.02256
-0.999973
-0.979298
-0.976782
-0.976354
-1.01334
-0.9906
-1.0413
-1.07031
-1.14067
-1.19785
-1.27491
-1.29524
-1.42121
-1.62208
-1.83275
-1.96112
-2.01399
-2.01872
-2.01852
-2.12278
-2.37004
-2.6449
-2.72115
-2.57432
-2.40806
-2.25111
-2.14473
-2.12661
-0.476257
-0.409769
-0.419488
-0.460357
-0.525495
-0.62046
-0.692378
-0.804065
-0.872663
-0.92914
-0.966876
-0.988751
-0.979862
-0.964884
-0.942539
-0.939881
-0.935524
-0.946372
-0.984803
-1.02816
-1.07047
-1.15657
-1.24049
-1.303
-1.39313
-1.56681
-1.76185
-1.90968
-1.96699
-1.96209
-1.96755
-1.93403
-1.89473
-1.79058
-1.83791
-1.84147
-1.83847
-1.79712
-1.83315
-2.01121
-0.582141
-0.515764
-0.520733
-0.537941
-0.610355
-0.670661
-0.745179
-0.848712
-0.937474
-0.98916
-1.01651
-1.01003
-0.980593
-0.954005
-0.925087
-0.906806
-0.893728
-0.900217
-0.944023
-0.988497
-1.10046
-1.11027
-1.2304
-1.29708
-1.40967
-1.54955
-1.71144
-1.84998
-1.95057
-1.95951
-1.97781
-1.96331
-2.00557
-1.944
-1.90704
-1.79603
-1.71852
-1.58344
-1.52645
-1.61169
-0.547931
-0.495617
-0.507568
-0.532333
-0.618111
-0.675786
-0.767806
-0.861892
-0.952412
-1.01473
-1.04296
-1.03594
-1.00689
-0.975269
-0.935259
-0.908018
-0.905828
-0.908411
-0.956356
-0.984194
-1.06473
-1.15702
-1.21551
-1.30843
-1.40691
-1.53166
-1.64594
-1.7574
-1.85393
-1.89382
-1.94214
-1.90549
-1.90166
-1.80928
-1.82084
-1.73431
-1.69422
-1.55848
-1.47977
-1.63072
-0.582261
-0.551944
-0.565408
-0.584432
-0.666583
-0.725607
-0.817182
-0.907848
-0.995812
-1.05944
-1.08746
-1.08174
-1.05216
-1.01834
-0.985745
-0.970561
-0.952477
-0.922697
-0.998406
-1.01883
-1.11112
-1.15033
-1.27901
-1.34892
-1.45567
-1.54084
-1.65215
-1.72877
-1.8339
-1.87197
-1.96152
-1.95002
-2.02393
-1.97061
-2.02965
-1.9353
-1.923
-1.74264
-1.60442
-1.73061
-0.600887
-0.584951
-0.598086
-0.617562
-0.698515
-0.766492
-0.864114
-0.953182
-1.04129
-1.1084
-1.14246
-1.14525
-1.1223
-1.09694
-1.07697
-1.04576
-1.03915
-1.03004
-1.11441
-1.05
-1.13363
-1.19024
-1.26788
-1.38135
-1.46154
-1.58691
-1.62127
-1.71232
-1.77739
-1.79744
-1.86013
-1.82124
-1.8715
-1.77907
-1.8312
-1.71962
-1.74053
-1.60168
-1.56437
-1.68341
-0.62824
-0.607032
-0.637189
-0.654995
-0.7288
-0.797658
-0.891613
-0.980046
-1.06965
-1.14
-1.18575
-1.2047
-1.20271
-1.19335
-1.18275
-1.16653
-1.19615
-1.17624
-1.23662
-1.08525
-1.18166
-1.19623
-1.34047
-1.40093
-1.52465
-1.56744
-1.70215
-1.73933
-1.82701
-1.8308
-1.96426
-1.94728
-2.07722
-1.99695
-2.09958
-1.95636
-1.97776
-1.80612
-1.71139
-1.65429
-0.682561
-0.655372
-0.676057
-0.703976
-0.776189
-0.849715
-0.94335
-1.0399
-1.13251
-1.20581
-1.25912
-1.2933
-1.30594
-1.31105
-1.3131
-1.2953
-1.32486
-1.25776
-1.32445
-1.134
-1.24093
-1.24129
-1.34133
-1.43902
-1.54369
-1.62402
-1.70666
-1.83067
-1.8621
-1.95279
-2.07597
-2.05845
-2.1912
-2.10902
-2.25263
-2.13678
-2.24479
-2.1029
-2.07648
-2.0956
-0.6868
-0.666015
-0.674861
-0.706541
-0.776311
-0.84466
-0.941376
-1.04356
-1.13699
-1.21798
-1.28671
-1.33897
-1.37415
-1.3927
-1.41283
-1.40006
-1.44002
-1.35083
-1.40673
-1.18185
-1.27584
-1.27786
-1.37975
-1.41716
-1.56737
-1.58892
-1.77115
-1.78783
-1.93078
-1.92209
-2.08592
-1.99944
-2.14733
-1.99945
-2.17509
-1.99467
-2.14037
-1.91588
-1.91082
-1.82687
-0.744498
-0.727278
-0.731622
-0.749026
-0.834112
-0.899585
-1.00016
-1.07997
-1.1779
-1.26014
-1.33888
-1.4014
-1.44754
-1.46865
-1.5035
-1.47838
-1.5464
-1.43139
-1.52198
-1.22709
-1.34208
-1.28704
-1.40415
-1.4019
-1.53643
-1.502
-1.70458
-1.77215
-1.99868
-1.90997
-2.04885
-1.93511
-2.10654
-1.92792
-2.10369
-1.88597
-2.02635
-1.71888
-1.73549
-1.54301
-0.721476
-0.701423
-0.707523
-0.694613
-0.794504
-0.848497
-0.959383
-1.0464
-1.12786
-1.20661
-1.29505
-1.36894
-1.43585
-1.46324
-1.50813
-1.48749
-1.56717
-1.48031
-1.57189
-1.30701
-1.36024
-1.34129
-1.41155
-1.36323
-1.52986
-1.38183
-1.8033
-1.78268
-2.04568
-1.86578
-2.10007
-1.88699
-2.08789
-1.8565
-2.11825
-1.77686
-2.00855
-1.58304
-1.56991
-1.29536
-0.794971
-0.781868
-0.784552
-0.768868
-0.839895
-0.919896
-1.01489
-1.09463
-1.18446
-1.25149
-1.32961
-1.39671
-1.47286
-1.50447
-1.57538
-1.53861
-1.63827
-1.54142
-1.61458
-1.36204
-1.35107
-1.33414
-1.40667
-1.3263
-1.53223
-1.30003
-1.92913
-1.75485
-2.07938
-1.84835
-2.08215
-1.87842
-2.10885
-1.79074
-2.04736
-1.72265
-1.94214
-1.48198
-1.41795
-1.04461
-0.73024
-0.710086
-0.722461
-0.679253
-0.726129
-0.810996
-0.913291
-0.980891
-1.08751
-1.16347
-1.25661
-1.32416
-1.41475
-1.44723
-1.53913
-1.51446
-1.63817
-1.51482
-1.65834
-1.38072
-1.3413
-1.27981
-1.37512
-1.25617
-1.51214
-1.20888
-1.98855
-1.7484
-2.11108
-1.82316
-2.12168
-1.81372
-2.12406
-1.76792
-2.07743
-1.55047
-1.96717
-1.33222
-1.34838
-0.771321
-0.831105
-0.831815
-0.811338
-0.806936
-0.786453
-0.869808
-0.968772
-1.02688
-1.12652
-1.20017
-1.30336
-1.37146
-1.4815
-1.51712
-1.65193
-1.61678
-1.74599
-1.64059
-1.71974
-1.45438
-1.33871
-1.26857
-1.35387
-1.20711
-1.48985
-1.13406
-2.00238
-1.74927
-2.1943
-1.8136
-2.18637
-1.77012
-2.18616
-1.70462
-2.12406
-1.56422
-1.88484
-1.28962
-1.28218
-0.457777
-0.712251
-0.690021
-0.715551
-0.635045
-0.668741
-0.642968
-0.81748
-0.839658
-0.966387
-1.04305
-1.17566
-1.25728
-1.41246
-1.44571
-1.59252
-1.57119
-1.74994
-1.63398
-1.74305
-1.46914
-1.26525
-1.17094
-1.25564
-1.08628
-1.39699
-1.03448
-1.94817
-1.76806
-2.28155
-1.85031
-2.22203
-1.74669
-2.17016
-1.60111
-2.09029
-1.39249
-1.95337
-0.923172
-1.14928
0.114173
-0.853427
-0.868618
-0.848753
-0.828892
-0.77958
-0.730193
-0.884803
-0.892281
-1.00676
-1.07461
-1.20903
-1.30873
-1.42823
-1.49036
-1.65882
-1.60956
-1.84254
-1.74676
-1.82709
-1.57582
-1.27131
-1.12059
-1.20166
-0.98975
-1.31055
-0.946898
-1.90652
-1.76087
-2.35798
-1.88216
-2.34196
-1.76955
-2.27171
-1.60581
-2.14234
-1.40563
-1.94714
-0.992777
-0.859244
0.766305
-0.706979
-0.655809
-0.715117
-0.569304
-0.663581
-0.452357
-0.67869
-0.65501
-0.809872
-0.875625
-1.05348
-1.12819
-1.32938
-1.39429
-1.61822
-1.60132
-1.85114
-1.74478
-1.81873
-1.50816
-1.16158
-0.949951
-1.01227
-0.780024
-1.13553
-0.812928
-1.83199
-1.75407
-2.42311
-1.92186
-2.43895
-1.72666
-2.28655
-1.46842
-2.08453
-1.1031
-1.72719
-0.346742
-0.514869
2.4379
-0.863089
-0.960441
-0.872899
-0.859038
-0.782917
-0.662813
-0.73525
-0.733331
-0.843349
-0.913159
-1.0499
-1.16751
-1.34498
-1.43525
-1.65853
-1.68116
-1.9423
-1.90451
-1.93621
-1.60757
-1.18514
-0.864525
-0.912514
-0.632501
-0.996707
-0.699807
-1.78416
-1.73223
-2.52196
-1.99703
-2.57353
-1.82704
-2.41404
-1.54305
-2.23867
-1.165
-1.8197
-0.0528219
-0.0695544
4.2583
-1.06002
-0.656157
-0.806542
-0.478087
-0.565198
-0.358748
-0.465751
-0.458521
-0.614146
-0.684592
-0.876881
-0.986244
-1.21286
-1.33412
-1.60531
-1.7055
-1.94669
-1.94918
-1.97181
-1.51829
-1.05092
-0.634994
-0.657928
-0.331466
-0.750627
-0.569578
-1.73626
-1.71807
-2.57747
-2.03776
-2.64739
-1.79755
-2.36776
-1.40919
-2.04853
-0.738453
-1.19914
1.13902
2.3213
9.52699
-0.727977
-1.17564
-1.06424
-1.04199
-0.767578
-0.527492
-0.539408
-0.506666
-0.605293
-0.67046
-0.823759
-0.955892
-1.18159
-1.30042
-1.59684
-1.69219
-2.03477
-2.08484
-2.11712
-1.61728
-1.18378
-0.557464
-0.484791
-0.132296
-0.570174
-0.444849
-1.69479
-1.67239
-2.68722
-2.1389
-2.71293
-1.82511
-2.4043
-1.41092
-2.07414
-0.832225
-1.21728
2.06251
4.728
15.77
-3.30291
-0.582233
-0.900064
-0.460258
-0.423838
-0.231284
-0.29849
-0.290752
-0.441617
-0.528491
-0.705768
-0.816013
-1.05138
-1.22055
-1.54666
-1.72228
-2.08632