/*--------------------------------*- C++ -*----------------------------------*\
| =========                 |                                                 |
| \\      /  F ield         | OpenFOAM: The Open Source CFD Toolbox           |
|  \\    /   O peration     | Version:  v1806                                 |
|   \\  /    A nd           | Web:      www.OpenFOAM.com                      |
|    \\/     M anipulation  |                                                 |
\*---------------------------------------------------------------------------*/
FoamFile
{
    version     2.0;
    format      ascii;
    class       volVectorField;
    location    "0.0565";
    object      U;
}
// * * * * * * * * * * * * * * * * * * * * * * * * * * * * * * * * * * * * * //

dimensions      [0 1 -1 0 0 0 0];


internalField   nonuniform List<vector> 
64000
(
(-0.00761937 -0.00893226 -0.00499745)
(0.0144742 -0.00966412 -0.00254326)
(0.0216416 -0.00403156 0.00151106)
(0.0234359 -0.00377563 0.00179676)
(0.023061 -0.00292002 0.00250271)
(0.022783 -0.00302597 0.0033024)
(0.0217708 -0.00350784 0.00343723)
(0.0184432 -0.00404982 0.00350122)
(0.016608 -0.00517696 0.00479507)
(0.00998777 -0.00442007 0.00419732)
(0.00363406 -0.00612314 0.00623825)
(-0.0108025 -0.00905704 0.00656425)
(-0.0312626 -0.0131457 0.00672621)
(-0.055485 -0.0179275 0.00424891)
(-0.0880768 -0.0179028 0.00526891)
(-0.122549 -0.0139931 0.00312669)
(-0.157391 0.00174043 0.0024445)
(-0.198419 -0.00390465 -0.00107513)
(-0.207977 -0.0101796 0.00611609)
(-0.260791 -0.0292302 -0.0158929)
(-0.228338 -0.026262 -0.0279869)
(-0.109675 -0.0261527 -0.0399174)
(-0.0976977 -0.0126491 -0.0285616)
(-0.0943723 -0.00528137 -0.0373106)
(-0.102872 0.00164096 -0.0482074)
(-0.100818 0.0104058 -0.0568161)
(-0.0858736 0.0200302 -0.0619425)
(-0.0544046 0.0319427 -0.0565982)
(-0.0227937 0.0375162 -0.0523074)
(0.0198387 0.0542757 -0.0322256)
(0.0704423 0.0437248 -0.0317031)
(0.10179 0.0366019 -0.022256)
(0.117236 0.025533 -0.0108291)
(0.112417 0.0116548 -0.00363593)
(0.0977133 0.00383278 0.00235468)
(0.0772186 -0.00457125 0.00482403)
(0.0552132 -0.00750955 0.00694355)
(0.0331797 -0.00642783 0.00776036)
(0.0174708 -0.00469938 0.00797372)
(0.00274365 -0.00314743 0.00596643)
(-0.00574187 -0.00228155 -0.00198402)
(0.0111074 -0.0175357 -0.00162773)
(0.0281282 -0.0137044 -0.000159127)
(0.0353502 -0.00911375 -0.000588892)
(0.0388863 -0.00469713 6.64021e-05)
(0.0385826 -0.00151602 -0.00095915)
(0.0363215 0.00269559 -0.00260685)
(0.02869 0.00473368 -0.00237724)
(0.0217108 0.010335 -0.00701605)
(0.00413298 0.0165774 -0.00429847)
(-0.0206757 0.0243713 -0.00800661)
(-0.0580689 0.0317614 0.000182863)
(-0.106616 0.0433633 -0.00398392)
(-0.158271 0.06549 -0.00675604)
(-0.218382 0.0775948 -0.01057)
(-0.276852 0.0862772 -0.0184207)
(-0.364756 0.0929919 -0.0428917)
(-0.466805 0.0957538 -0.0577294)
(-0.52518 0.101228 -0.075362)
(-0.601331 0.0980091 -0.0997319)
(-0.560221 0.12286 -0.10517)
(-0.418158 0.138631 -0.127843)
(-0.387119 0.182073 -0.140606)
(-0.37133 0.210138 -0.148162)
(-0.352078 0.235505 -0.159134)
(-0.317524 0.258141 -0.164875)
(-0.262902 0.278078 -0.166234)
(-0.195665 0.294828 -0.154557)
(-0.116935 0.300049 -0.134192)
(-0.0494691 0.309505 -0.109796)
(0.0183108 0.289363 -0.0746173)
(0.0838328 0.259446 -0.0475803)
(0.118031 0.207411 -0.0386527)
(0.130373 0.158928 -0.0270275)
(0.124105 0.107842 -0.0129404)
(0.103786 0.0678133 -0.00526895)
(0.0828552 0.0395475 -0.000807171)
(0.0565988 0.0249493 0.000376286)
(0.033604 0.015223 0.00205157)
(0.00867986 0.00661749 0.00320077)
(-0.000284088 -0.0105362 0.00184762)
(0.0161749 -0.0244758 -0.000720654)
(0.0360488 -0.020232 -0.00123779)
(0.0446224 -0.00814191 -0.00171379)
(0.0447352 0.00462292 -0.00365565)
(0.04223 0.0156517 -0.00562382)
(0.0338283 0.0317733 -0.00706419)
(0.0197769 0.0456142 -0.00911481)
(0.00374699 0.0693628 -0.00192875)
(-0.026573 0.090121 -0.00456815)
(-0.0655062 0.11833 -0.0082528)
(-0.118399 0.151821 -0.0131429)
(-0.173296 0.184606 -0.0169255)
(-0.253277 0.209824 -0.0316429)
(-0.356482 0.227981 -0.0341363)
(-0.451901 0.241221 -0.0424836)
(-0.542976 0.246672 -0.0583192)
(-0.627083 0.268661 -0.0753141)
(-0.679218 0.297097 -0.093122)
(-0.73968 0.329495 -0.115439)
(-0.685057 0.367934 -0.113185)
(-0.517617 0.395671 -0.123616)
(-0.462285 0.45111 -0.128328)
(-0.436261 0.486064 -0.123739)
(-0.407974 0.517358 -0.125408)
(-0.369601 0.540589 -0.12313)
(-0.314621 0.55381 -0.11875)
(-0.252271 0.558109 -0.104585)
(-0.182655 0.548021 -0.0832935)
(-0.119822 0.529016 -0.0597043)
(-0.0629928 0.501408 -0.0397222)
(-0.0224475 0.452822 -0.0276705)
(0.0127498 0.380132 -0.0142676)
(0.0366713 0.307283 -0.00791557)
(0.045466 0.228468 -0.0108619)
(0.0506886 0.162667 -0.0106649)
(0.049438 0.113641 -0.00688272)
(0.039709 0.0758151 -0.00455062)
(0.0278538 0.0497818 -0.000700448)
(0.00853129 0.0225103 0.00241677)
(0.000374451 -0.0161556 0.00228125)
(0.0183651 -0.0280974 -0.00173901)
(0.0414059 -0.0155748 -0.0017392)
(0.0502659 0.00300592 -0.00575017)
(0.0461379 0.0281933 -0.00595725)
(0.0397518 0.0543565 -0.00796545)
(0.0260253 0.0895207 -0.00814393)
(0.0058587 0.122974 -0.00477338)
(-0.020508 0.168615 -0.0100542)
(-0.0647972 0.209282 -0.0123048)
(-0.111087 0.25095 -0.0165076)
(-0.17886 0.281399 -0.0233619)
(-0.26874 0.307881 -0.0260864)
(-0.360078 0.323394 -0.0283729)
(-0.446668 0.346038 -0.030138)
(-0.524921 0.372895 -0.0373401)
(-0.600876 0.402919 -0.0504457)
(-0.671609 0.433432 -0.0586703)
(-0.708692 0.471565 -0.0675513)
(-0.753551 0.513258 -0.0759592)
(-0.686673 0.547649 -0.0558022)
(-0.499412 0.566416 -0.0472274)
(-0.430001 0.607948 -0.0440701)
(-0.404873 0.620516 -0.029936)
(-0.378848 0.632147 -0.0259874)
(-0.349985 0.634602 -0.0200924)
(-0.307242 0.626013 -0.0167134)
(-0.261916 0.608394 -0.00975386)
(-0.210162 0.583231 0.00169938)
(-0.166027 0.55141 0.00894514)
(-0.132866 0.513076 0.0145655)
(-0.109739 0.469478 0.01315)
(-0.0888744 0.417779 0.00818719)
(-0.0658286 0.352115 -4.02445e-05)
(-0.044662 0.273956 -0.00416208)
(-0.0185164 0.202667 -0.00961099)
(0.00108741 0.146196 -0.00998001)
(0.0101356 0.109244 -0.00729162)
(0.0178915 0.0753052 -0.00294735)
(0.00694806 0.033741 0.00202701)
(0.00111575 -0.0175584 0.000875228)
(0.0243382 -0.0199597 -0.00492673)
(0.0508236 -0.00104749 -0.00509369)
(0.0592688 0.0331603 -0.00693297)
(0.0548724 0.0752474 -0.00597638)
(0.0475887 0.122777 -0.0141686)
(0.0274195 0.182088 -0.0109853)
(0.000848175 0.237473 -0.0048318)
(-0.0326768 0.288119 -0.00715761)
(-0.0902338 0.325994 -0.00925675)
(-0.158817 0.356019 -0.0122505)
(-0.237369 0.374968 -0.0146811)
(-0.30757 0.399918 -0.0162459)
(-0.381236 0.429524 -0.0209519)
(-0.456499 0.462752 -0.0185017)
(-0.522747 0.495251 -0.0207661)
(-0.584048 0.526355 -0.0225286)
(-0.634339 0.562303 -0.0186749)
(-0.652572 0.602674 -0.0164744)
(-0.685317 0.645418 -0.0249841)
(-0.619079 0.673811 -0.00351958)
(-0.425796 0.682144 0.0129992)
(-0.352771 0.694049 0.0223409)
(-0.336456 0.676703 0.0363447)
(-0.322141 0.656903 0.0381577)
(-0.312402 0.633313 0.0448733)
(-0.290799 0.600154 0.0458251)
(-0.263425 0.564935 0.0497135)
(-0.232581 0.524478 0.0433013)
(-0.208903 0.485742 0.0360551)
(-0.187708 0.44222 0.0264574)
(-0.176811 0.407914 0.0190893)
(-0.169964 0.373568 0.0111558)
(-0.167114 0.342373 -0.000447703)
(-0.149573 0.279591 -0.011712)
(-0.104332 0.206935 -0.0128)
(-0.0519409 0.159459 -0.0127239)
(-0.016465 0.128246 -0.0109487)
(0.00319348 0.0933833 -0.00524653)
(0.0040393 0.0421874 0.00199823)
(0.00502047 -0.0150066 0.000580844)
(0.0308236 -0.00596704 -0.00383803)
(0.0645578 0.0194361 -0.00456069)
(0.0808675 0.0686772 -0.00824744)
(0.0751755 0.1242 -0.0124514)
(0.06923 0.190599 -0.0186644)
(0.0455711 0.26123 -0.0135819)
(-0.000714416 0.30629 -0.00116794)
(-0.0580633 0.346791 -0.00487484)
(-0.128591 0.380031 -0.00639648)
(-0.190093 0.412275 -0.00848089)
(-0.250294 0.446993 -0.00870496)
(-0.309683 0.483654 -0.00678839)
(-0.366618 0.512757 -0.00368852)
(-0.420662 0.544539 0.00303482)
(-0.468908 0.574191 0.00811876)
(-0.508671 0.606227 0.00738305)
(-0.542816 0.639079 0.00996544)
(-0.55383 0.682188 0.0106137)
(-0.577157 0.714356 0.00846876)
(-0.510218 0.739484 0.0297651)
(-0.332321 0.69338 0.0473785)
(-0.276472 0.674376 0.0557538)
(-0.280237 0.627077 0.071694)
(-0.282753 0.583122 0.0756615)
(-0.290414 0.543019 0.0769883)
(-0.28582 0.499065 0.074215)
(-0.278616 0.458928 0.0690947)
(-0.262757 0.412043 0.066517)
(-0.253075 0.374595 0.0470521)
(-0.24391 0.3325 0.0366733)
(-0.233505 0.301471 0.0232511)
(-0.221196 0.276991 0.0109425)
(-0.226989 0.261572 0.000625911)
(-0.235587 0.238486 -0.0134177)
(-0.17468 0.191457 -0.0128907)
(-0.0914078 0.160103 -0.0144644)
(-0.0398356 0.133374 -0.0114759)
(-0.00390708 0.101365 -0.00634834)
(0.00305056 0.0450412 0.0023778)
(0.00857972 -0.012189 0.000315515)
(0.0392093 0.00546763 -0.0097047)
(0.0816565 0.0432626 -0.00916105)
(0.104953 0.0972475 -0.0095209)
(0.103504 0.15384 -0.0111413)
(0.0969862 0.230154 -0.0141467)
(0.0446061 0.275106 -0.0036225)
(-0.0180225 0.315381 0.00357115)
(-0.0617613 0.360522 -0.000865507)
(-0.117281 0.408031 -0.00201739)
(-0.166793 0.456504 -0.00242224)
(-0.216716 0.499676 -0.000734045)
(-0.263375 0.537784 0.00197908)
(-0.309482 0.572467 0.00797289)
(-0.350776 0.604691 0.0140447)
(-0.384507 0.632006 0.020198)
(-0.41274 0.656773 0.0256882)
(-0.427469 0.675052 0.0295388)
(-0.429614 0.700465 0.0247266)
(-0.450173 0.716099 0.0170993)
(-0.440877 0.733724 0.0276845)
(-0.29852 0.636729 0.0496421)
(-0.227653 0.579146 0.0532104)
(-0.24785 0.525122 0.0674831)
(-0.26013 0.478791 0.0694477)
(-0.283211 0.442565 0.0699635)
(-0.294765 0.405751 0.0661598)
(-0.303526 0.371995 0.0603191)
(-0.301191 0.335372 0.0484376)
(-0.302646 0.301307 0.0344246)
(-0.300587 0.269173 0.0217806)
(-0.291508 0.241586 0.0107592)
(-0.281154 0.222979 0.000161327)
(-0.279007 0.207558 -0.00574672)
(-0.282719 0.214765 -0.01568)
(-0.225441 0.193332 -0.0198533)
(-0.127039 0.165198 -0.0211838)
(-0.055955 0.144691 -0.0164671)
(-0.00962039 0.109857 -0.00994596)
(0.00302912 0.0492676 0.000765075)
(0.00882746 -0.00285531 -0.000615948)
(0.0468485 0.0249525 -0.0128296)
(0.0997264 0.0740544 -0.013521)
(0.124302 0.128196 -0.0101062)
(0.130618 0.186866 -0.0114556)
(0.105521 0.252468 -0.0100761)
(0.0443882 0.281301 0.00137063)
(0.00333384 0.338901 0.00587917)
(-0.0344309 0.385819 0.00239753)
(-0.0824748 0.439417 0.00369991)
(-0.123976 0.482685 0.0052096)
(-0.165706 0.51971 0.0107547)
(-0.200951 0.552002 0.0172508)
(-0.230684 0.579635 0.0234861)
(-0.260657 0.603587 0.0281441)
(-0.28736 0.620001 0.0324828)
(-0.310329 0.630878 0.0346487)
(-0.326106 0.636038 0.0349406)
(-0.332668 0.630571 0.029555)
(-0.352152 0.619475 0.0163539)
(-0.390311 0.616434 0.0139468)
(-0.304533 0.552321 0.0320841)
(-0.221611 0.454927 0.0342386)
(-0.236861 0.421322 0.0450598)
(-0.257638 0.381216 0.0498656)
(-0.288567 0.357943 0.0518432)
(-0.311224 0.330463 0.0525618)
(-0.330263 0.304442 0.046968)
(-0.338883 0.275357 0.0388728)
(-0.347332 0.244831 0.0180816)
(-0.34971 0.213286 0.0113201)
(-0.34085 0.188749 0.00224608)
(-0.327739 0.174441 -0.00540207)
(-0.312786 0.168377 -0.00939862)
(-0.320805 0.187904 -0.0186325)
(-0.274666 0.195853 -0.0203776)
(-0.160776 0.17093 -0.022144)
(-0.0739791 0.153612 -0.0177083)
(-0.0146208 0.117301 -0.00999344)
(0.0043085 0.0525067 0.0013516)
(0.0066287 0.00762695 -0.00516463)
(0.0533468 0.0554481 -0.0189775)
(0.118181 0.111257 -0.0189514)
(0.148748 0.165454 -0.0129632)
(0.154546 0.225786 -0.0143074)
(0.11877 0.268013 -0.00821943)
(0.0648774 0.313718 -0.000767464)
(0.0310967 0.368919 0.00621173)
(0.00272108 0.407788 0.0123796)
(-0.0318498 0.448805 0.0121129)
(-0.0714004 0.486588 0.0164035)
(-0.101796 0.513512 0.0218542)
(-0.127085 0.535641 0.0285772)
(-0.151811 0.547668 0.0336677)
(-0.176518 0.551671 0.035457)
(-0.200706 0.549367 0.0363961)
(-0.224464 0.541701 0.0353856)
(-0.24993 0.53155 0.0318807)
(-0.273415 0.51838 0.0255425)
(-0.299145 0.497517 0.0109698)
(-0.350321 0.481981 0.00105549)
(-0.327234 0.46192 0.00870846)
(-0.247035 0.361039 0.0161227)
(-0.23491 0.341024 0.0216747)
(-0.263169 0.31506 0.0293658)
(-0.296641 0.299313 0.0343997)
(-0.329488 0.28109 0.0389165)
(-0.355724 0.256719 0.0371006)
(-0.37414 0.232068 0.0235826)
(-0.391471 0.197955 0.0104072)
(-0.39541 0.173258 0.000571919)
(-0.383379 0.150294 -0.00456386)
(-0.368571 0.13627 -0.0108767)
(-0.343007 0.138689 -0.017527)
(-0.332078 0.149743 -0.0212675)
(-0.302121 0.189268 -0.0270402)
(-0.196861 0.172773 -0.0262578)
(-0.0898314 0.162506 -0.0242685)
(-0.0198823 0.126898 -0.0132752)
(0.0050214 0.0580455 -0.000676732)
(0.00825334 0.0237756 -0.00822238)
(0.0619878 0.0953793 -0.026542)
(0.135674 0.155536 -0.0260108)
(0.17284 0.208651 -0.0162652)
(0.170776 0.256274 -0.0139062)
(0.137638 0.290145 -0.0110621)
(0.100693 0.341229 -0.00214241)
(0.0692085 0.387241 0.0118606)
(0.0379747 0.423971 0.0174793)
(0.0143146 0.450792 0.027166)
(-0.0122344 0.471646 0.0247517)
(-0.0419355 0.485247 0.03408)
(-0.0647609 0.492103 0.0389149)
(-0.0869095 0.483706 0.0432472)
(-0.111389 0.468599 0.0413968)
(-0.137532 0.447455 0.0381975)
(-0.165328 0.423244 0.0331934)
(-0.193178 0.401305 0.0272841)
(-0.225141 0.389521 0.0187733)
(-0.266086 0.372612 0.00534593)
(-0.32118 0.363078 -0.00558314)
(-0.343901 0.367022 -0.00649564)
(-0.278957 0.311851 0.00593702)
(-0.236114 0.288668 0.00670143)
(-0.265179 0.273065 0.0166786)
(-0.299304 0.261516 0.0245657)
(-0.338426 0.241661 0.0324297)
(-0.371891 0.222001 0.0304053)
(-0.398155 0.190544 0.0234528)
(-0.414529 0.163075 0.00927336)
(-0.419634 0.134264 0.0112921)
(-0.416791 0.113175 0.0178357)
(-0.39742 0.0935023 0.0155613)
(-0.375089 0.0952229 0.00909058)
(-0.353853 0.10916 -0.0118031)
(-0.323967 0.156226 -0.0235109)
(-0.226504 0.171082 -0.0241265)
(-0.106414 0.161915 -0.0216252)
(-0.0254364 0.134897 -0.0124065)
(0.00625158 0.0618523 0.000404558)
(0.00868836 0.0433307 -0.0110981)
(0.0690593 0.135972 -0.0327401)
(0.15227 0.200777 -0.0314344)
(0.190138 0.245529 -0.0171053)
(0.187504 0.28093 -0.0126348)
(0.166339 0.317427 -0.0116492)
(0.13874 0.359573 -0.00159194)
(0.108756 0.395381 0.00637519)
(0.0837972 0.424046 0.014358)
(0.0563504 0.444163 0.0291555)
(0.0286705 0.449556 0.0378385)
(0.0120221 0.4501 0.0469887)
(-0.010659 0.436953 0.0473218)
(-0.0391067 0.415515 0.0494617)
(-0.0661712 0.388228 0.0443701)
(-0.0974805 0.358383 0.0363996)
(-0.129907 0.327326 0.0281993)
(-0.15874 0.304431 0.0205819)
(-0.197143 0.290832 0.0102991)
(-0.241448 0.277384 0.00339796)
(-0.289779 0.277459 -0.00495568)
(-0.327246 0.290888 -0.00959692)
(-0.284302 0.291285 -0.000168297)
(-0.236553 0.264425 -0.00131123)
(-0.255407 0.245874 0.00855034)
(-0.294632 0.23024 0.0179017)
(-0.337442 0.211064 0.0254859)
(-0.376606 0.187058 0.0267811)
(-0.406501 0.158654 0.0168995)
(-0.42935 0.127765 0.0302742)
(-0.443226 0.0928813 0.0312636)
(-0.445277 0.0641202 0.019489)
(-0.433158 0.050866 0.0139502)
(-0.400171 0.0468222 0.0077954)
(-0.362289 0.0628997 0.00064305)
(-0.330511 0.105481 -0.0203712)
(-0.249381 0.150394 -0.0281921)
(-0.124908 0.15804 -0.023278)
(-0.0282175 0.13849 -0.0150392)
(0.00494256 0.065666 -0.00101941)
(0.0092769 0.0647524 -0.0116198)
(0.0750804 0.179697 -0.0365265)
(0.161962 0.245416 -0.0345262)
(0.202429 0.279493 -0.0178235)
(0.208893 0.309806 -0.0101184)
(0.195994 0.341141 -0.00579465)
(0.174292 0.372423 -0.00468319)
(0.147754 0.396287 0.00948286)
(0.121662 0.41507 0.0133016)
(0.0981678 0.423288 0.0260672)
(0.0758942 0.425294 0.0358729)
(0.0487551 0.413972 0.052367)
(0.0229403 0.387516 0.0548635)
(-0.000369298 0.354144 0.0548575)
(-0.0311184 0.322083 0.0441978)
(-0.0676088 0.29155 0.0318655)
(-0.103272 0.26317 0.0212292)
(-0.132485 0.245674 0.0122467)
(-0.173744 0.232311 0.00206741)
(-0.217689 0.227511 -0.00142185)
(-0.256991 0.230392 -0.00500797)
(-0.284254 0.252052 -0.00617932)
(-0.260297 0.278547 -0.00121776)
(-0.231783 0.256325 -0.00236311)
(-0.245673 0.223748 0.00367692)
(-0.277341 0.200784 0.012421)
(-0.322097 0.176762 0.0183588)
(-0.363457 0.152078 0.0163726)
(-0.398693 0.123051 0.0351913)
(-0.430701 0.0873233 0.0437126)
(-0.451693 0.053372 0.0412472)
(-0.453152 0.027368 0.0521303)
(-0.445654 0.00334251 0.0410073)
(-0.431249 -0.000792108 0.033402)
(-0.395289 0.00966275 0.0249735)
(-0.348392 0.0549384 0.00322166)
(-0.260756 0.108985 -0.0245204)
(-0.138345 0.146953 -0.0246667)
(-0.0341148 0.136525 -0.0140732)
(0.00617708 0.0692783 -0.00105902)
(0.00917786 0.0804762 -0.0118847)
(0.0761049 0.214879 -0.03994)
(0.164748 0.282247 -0.0384018)
(0.212679 0.311418 -0.0197993)
(0.229631 0.333969 -0.00666315)
(0.22406 0.355849 0.000445474)
(0.204405 0.377998 0.00479529)
(0.179805 0.390944 0.00635197)
(0.159184 0.400652 0.0157987)
(0.136499 0.40222 0.0263619)
(0.11059 0.393213 0.0350368)
(0.0845498 0.375006 0.0421132)
(0.0530141 0.346973 0.0537493)
(0.0230497 0.31178 0.0540814)
(-0.00469522 0.27139 0.0433339)
(-0.0428928 0.245313 0.025691)
(-0.0797002 0.219306 0.0146295)
(-0.110372 0.208105 0.00461417)
(-0.149816 0.19442 -0.00315325)
(-0.186615 0.194605 -0.00462707)
(-0.21056 0.204821 -0.00296191)
(-0.221921 0.232946 -0.000558545)
(-0.217303 0.256702 0.000746499)
(-0.220268 0.236885 -0.00107623)
(-0.232866 0.199751 0.00101384)
(-0.257515 0.16487 0.00740075)
(-0.296336 0.135973 0.012173)
(-0.337603 0.111413 0.0242343)
(-0.379813 0.0785873 0.0380102)
(-0.41659 0.0471411 0.0441608)
(-0.438181 0.0139322 0.0648014)
(-0.463101 -0.0245031 0.0470555)
(-0.471104 -0.0667683 0.0359644)
(-0.452522 -0.0883037 0.0165353)
(-0.413004 -0.0756912 0.00356844)
(-0.367849 -0.0262795 0.0111033)
(-0.2822 0.0582681 -0.00300006)
(-0.151668 0.11472 -0.0311351)
(-0.0390855 0.128535 -0.0144248)
(0.00682878 0.0690672 -0.00274111)
(0.00800443 0.0921337 -0.0107184)
(0.0753454 0.244334 -0.0420845)
(0.166363 0.316268 -0.0430396)
(0.220199 0.341998 -0.0231127)
(0.246691 0.355561 -0.00452436)
(0.248594 0.363958 0.00662066)
(0.231731 0.37503 0.0119162)
(0.209054 0.38293 0.0159179)
(0.19025 0.387914 0.0181363)
(0.168061 0.381859 0.0223802)
(0.145434 0.36681 0.0262594)
(0.11455 0.342118 0.0375484)
(0.0803771 0.309841 0.039086)
(0.0440306 0.275723 0.0447749)
(0.0141107 0.240504 0.0380367)
(-0.0204349 0.208836 0.0178558)
(-0.0565561 0.193049 0.00883499)
(-0.0860558 0.182397 -0.00143708)
(-0.12271 0.170789 -0.00591703)
(-0.143563 0.177112 -0.00414645)
(-0.151143 0.19307 0.00103377)
(-0.158628 0.210904 0.00525116)
(-0.174804 0.217032 0.00607062)
(-0.198167 0.201749 0.0039216)
(-0.218834 0.172504 0.00213219)
(-0.23383 0.128303 0.00436512)
(-0.260944 0.0997106 0.00737451)
(-0.300402 0.0689175 0.0249699)
(-0.341776 0.0393266 0.0346703)
(-0.378935 0.00883262 0.0565469)
(-0.425517 -0.0342758 0.0432723)
(-0.467007 -0.0888095 0.0373098)
(-0.484865 -0.132996 0.0247273)
(-0.473751 -0.165787 0.01426)
(-0.43311 -0.169392 -0.00342501)
(-0.37027 -0.127074 -0.00691455)
(-0.288541 -0.0243057 0.000549958)
(-0.171153 0.0752555 -0.0167897)
(-0.043443 0.116492 -0.019164)
(0.00693374 0.0711732 -0.00180957)
(0.00580889 0.0942351 -0.010869)
(0.0714172 0.262355 -0.0429673)
(0.163749 0.339082 -0.0450757)
(0.224127 0.363124 -0.0247002)
(0.256751 0.36919 -0.00424888)
(0.264068 0.366694 0.010498)
(0.256082 0.369257 0.0184178)
(0.239085 0.371546 0.021036)
(0.220523 0.369192 0.023371)
(0.196404 0.357641 0.0246517)
(0.169537 0.339592 0.0255987)
(0.138807 0.312017 0.0226926)
(0.102498 0.281661 0.0226775)
(0.0664809 0.246823 0.0225226)
(0.0309463 0.220773 0.0253307)
(-0.000416799 0.187999 0.011499)
(-0.0274384 0.174105 0.00188033)
(-0.061168 0.161485 -0.00672891)
(-0.0847398 0.162911 -0.00520451)
(-0.0900707 0.175386 -0.00163571)
(-0.0962063 0.183735 0.00489775)
(-0.111007 0.182772 0.010829)
(-0.132221 0.17455 0.0138518)
(-0.163205 0.16221 0.00965502)
(-0.195822 0.143455 0.00532341)
(-0.210798 0.108482 0.00444229)
(-0.226774 0.0673388 0.0131684)
(-0.260467 0.0362384 0.0235996)
(-0.295307 0.00465415 0.0421036)
(-0.345633 -0.0360455 0.0372501)
(-0.400088 -0.0909892 0.0363354)
(-0.446283 -0.144524 0.0274346)
(-0.47599 -0.199032 0.0175027)
(-0.47992 -0.240769 0.00337901)
(-0.446731 -0.260546 -0.0109092)
(-0.381492 -0.228357 -0.018929)
(-0.289462 -0.139673 -0.0193624)
(-0.175007 0.00847067 0.000249769)
(-0.0528494 0.0890644 -0.027255)
(0.00663995 0.0688256 -0.0036047)
(0.00498463 0.0868221 -0.00624208)
(0.0683248 0.268373 -0.0398282)
(0.160581 0.350332 -0.0422667)
(0.225877 0.372182 -0.0226667)
(0.265022 0.370944 0.000208453)
(0.281518 0.363035 0.0134675)
(0.279944 0.361347 0.018404)
(0.262654 0.356611 0.0205529)
(0.243447 0.351375 0.0213101)
(0.22147 0.337992 0.0207915)
(0.197623 0.317429 0.0185634)
(0.164744 0.289157 0.0145114)
(0.126271 0.254435 0.0107468)
(0.0895317 0.221711 0.0046007)
(0.0522989 0.196704 0.00913735)
(0.0190501 0.179888 0.000534982)
(-0.00502104 0.173548 -0.00386033)
(-0.0219906 0.170515 -0.00475247)
(-0.0316763 0.181868 -0.00200399)
(-0.0405508 0.180915 0.00233406)
(-0.055894 0.174114 0.00866794)
(-0.0751525 0.158444 0.0138213)
(-0.0973074 0.143398 0.0157631)
(-0.125891 0.12582 0.0146031)
(-0.161787 0.114066 0.00907318)
(-0.190389 0.0893834 0.00966911)
(-0.203235 0.0449056 0.0126897)
(-0.221628 0.00784354 0.023677)
(-0.260645 -0.0295548 0.0245111)
(-0.311862 -0.0785864 0.0283923)
(-0.366046 -0.127177 0.0265867)
(-0.417312 -0.18453 0.0233416)
(-0.454309 -0.244023 0.0150733)
(-0.469755 -0.298976 0.0025425)
(-0.447242 -0.331585 -0.013225)
(-0.388923 -0.320756 -0.0280902)
(-0.286794 -0.23931 -0.0323169)
(-0.174615 -0.0864328 -0.0209383)
(-0.0555833 0.0492267 -0.0187909)
(0.00855441 0.061189 -0.00917319)
(0.00102641 0.0963771 -0.0103949)
(0.0596719 0.282499 -0.0414585)
(0.151652 0.369368 -0.0458521)
(0.222922 0.390648 -0.0252522)
(0.271952 0.386362 -0.000408708)
(0.299479 0.371992 0.0109843)
(0.304597 0.358828 0.0159902)
(0.29165 0.345558 0.0162986)
(0.273344 0.331376 0.0135079)
(0.246074 0.309743 0.00987015)
(0.21696 0.287829 0.00721125)
(0.180911 0.265302 0.00341501)
(0.141994 0.244876 0.00128782)
(0.110422 0.226391 -0.00052945)
(0.0817876 0.217199 0.00278838)
(0.0606899 0.213957 -0.00603905)
(0.042236 0.209157 -0.00605362)
(0.0257809 0.205901 -0.00466653)
(0.00696662 0.19764 -0.00257434)
(-0.0125717 0.180565 0.00366483)
(-0.0296932 0.157838 0.00846889)
(-0.0498815 0.13641 0.0131283)
(-0.070274 0.116289 0.0144421)
(-0.0942104 0.096842 0.0160933)
(-0.129031 0.0823291 0.0116585)
(-0.16881 0.0674419 0.00296333)
(-0.186859 0.0376335 0.00447803)
(-0.200143 -0.00576701 0.00527488)
(-0.232223 -0.051193 0.0112682)
(-0.275638 -0.100019 0.0154865)
(-0.324583 -0.155648 0.0171685)
(-0.375475 -0.218836 0.0149587)
(-0.416317 -0.288379 0.00912683)
(-0.440472 -0.358368 -0.00189328)
(-0.431649 -0.409679 -0.0177853)
(-0.382851 -0.420161 -0.0344835)
(-0.292083 -0.353943 -0.052867)
(-0.179635 -0.196932 -0.0375961)
(-0.056151 0.000203485 -0.00962136)
(0.00675468 0.0594396 -0.0104568)
(-0.00717963 0.085371 -0.0145066)
(0.0435579 0.283669 -0.0388685)
(0.137439 0.379399 -0.0458886)
(0.215983 0.401092 -0.0272698)
(0.273559 0.394787 -0.00953093)
(0.30664 0.372086 0.00246521)
(0.316944 0.351233 0.00823153)
(0.30336 0.337029 0.00948568)
(0.282788 0.340536 0.00947108)
(0.262983 0.345045 0.00745625)
(0.247667 0.34569 0.00505928)
(0.222317 0.334318 0.00100147)
(0.188462 0.319568 -0.000495294)
(0.158189 0.298107 -0.00232284)
(0.129183 0.277106 0.00131031)
(0.0945297 0.258654 -0.00741009)
(0.0672472 0.238387 -0.0100806)
(0.0470501 0.212107 -0.00795391)
(0.0257367 0.187871 -0.00480109)
(0.00448105 0.164951 0.000335758)
(-0.01398 0.138596 0.007076)
(-0.0296015 0.114376 0.0111559)
(-0.048942 0.0929453 0.0119513)
(-0.0699705 0.0723072 0.0146506)
(-0.0979141 0.055014 0.00781851)
(-0.135213 0.0403586 0.000231269)
(-0.166742 0.0248997 0.00132494)
(-0.187473 -0.00952303 -0.00109451)
(-0.214986 -0.0548416 -0.00399788)
(-0.256306 -0.102863 0.000335979)
(-0.302077 -0.152926 0.00541824)
(-0.350237 -0.215855 0.00827037)
(-0.390665 -0.288932 0.00716497)
(-0.414968 -0.368122 -0.000746491)
(-0.409116 -0.43643 -0.0139819)
(-0.366299 -0.469797 -0.0332123)
(-0.273236 -0.438115 -0.0564828)
(-0.159064 -0.302438 -0.0600527)
(-0.0408038 -0.0919148 -0.0242727)
(0.0107679 0.0300573 -0.00857165)
(-0.00987906 0.20204 -0.0139633)
(0.0356515 0.420772 -0.0302317)
(0.122377 0.521808 -0.0395201)
(0.201173 0.54813 -0.0206673)
(0.265732 0.537535 -0.00920069)
(0.308913 0.509584 0.00621761)
(0.336091 0.47545 0.0115205)
(0.353907 0.461556 0.0119192)
(0.358648 0.466938 0.00541983)
(0.333688 0.46575 -0.00123615)
(0.295435 0.451176 -0.00695546)
(0.250012 0.419767 -0.0100214)
(0.203126 0.381153 -0.0111762)
(0.162233 0.338827 -0.00882922)
(0.130578 0.296669 -0.00590108)
(0.105708 0.257207 -0.0014362)
(0.0772012 0.227921 -0.00708698)
(0.0560588 0.198771 -0.00707392)
(0.0414783 0.1695 -0.00510312)
(0.0199147 0.143295 -0.00229784)
(0.00100532 0.121788 0.00375677)
(-0.0147085 0.0959227 0.00902343)
(-0.0316394 0.0740705 0.00986155)
(-0.0506113 0.0533348 0.0139421)
(-0.0768353 0.0315125 0.00551345)
(-0.109342 0.0155178 0.00603023)
(-0.138468 0.00236748 0.0054204)
(-0.169139 -0.01342 0.00378025)
(-0.197278 -0.044268 0.00206609)
(-0.223467 -0.0876767 -0.00358407)
(-0.259925 -0.148274 -0.0107549)
(-0.307161 -0.225584 -0.0148356)
(-0.350221 -0.312281 -0.0178058)
(-0.382182 -0.403772 -0.02337)
(-0.387682 -0.485212 -0.0382041)
(-0.366184 -0.547357 -0.0672108)
(-0.29812 -0.535335 -0.0864385)
(-0.197284 -0.409549 -0.083644)
(-0.0623656 -0.151544 -0.0475333)
(0.0121446 0.036985 -0.00837272)
(-0.0166054 0.269376 -0.0178754)
(0.019761 0.511443 -0.0433721)
(0.107828 0.623624 -0.0527245)
(0.19129 0.668009 -0.041841)
(0.259962 0.663659 -0.0312533)
(0.304856 0.639315 -0.0182369)
(0.341362 0.599792 -0.00876614)
(0.369201 0.569413 -0.00580996)
(0.365346 0.539469 -0.00837525)
(0.330774 0.502367 -0.00908044)
(0.290035 0.461356 -0.00873893)
(0.24443 0.416472 -0.0088971)
(0.201101 0.369035 -0.00747908)
(0.165614 0.32439 -0.00663519)
(0.135485 0.281199 -0.004591)
(0.109289 0.242774 -0.00249558)
(0.090187 0.207557 0.00194049)
(0.068979 0.18067 -0.00293998)
(0.0493455 0.152884 -0.00471069)
(0.0347633 0.126413 -0.00197827)
(0.0151006 0.102265 0.000100133)
(-0.00220301 0.081295 0.00674204)
(-0.0169629 0.0546998 0.00793578)
(-0.0375619 0.0355321 0.0105484)
(-0.0584476 0.0148638 0.00781824)
(-0.0826655 -0.000338388 0.00972187)
(-0.106552 -0.0126187 0.0108062)
(-0.133564 -0.0246534 0.00745702)
(-0.172308 -0.0393019 0.00477374)
(-0.220658 -0.070248 0.00398752)
(-0.272261 -0.119632 0.00613674)
(-0.310996 -0.190358 0.00472024)
(-0.332497 -0.282622 -0.00255361)
(-0.341062 -0.415049 -0.0171399)
(-0.345582 -0.547563 -0.0304861)
(-0.328158 -0.662154 -0.0524421)
(-0.260009 -0.703358 -0.0797574)
(-0.154174 -0.604158 -0.0873041)
(-0.040595 -0.324298 -0.0731681)
(0.0116212 -0.0259671 -0.00577397)
(5.73656e-05 0.238628 0.000984328)
(0.0365446 0.476857 -0.0342692)
(0.107397 0.600089 -0.044607)
(0.187399 0.653067 -0.039892)
(0.254233 0.654155 -0.0276892)
(0.302727 0.631522 -0.0189378)
(0.341864 0.594928 -0.0101597)
(0.3713 0.556553 -0.00460936)
(0.370058 0.516676 -0.00502802)
(0.335801 0.480308 -0.00446565)
(0.292713 0.442023 -0.00399138)
(0.244641 0.400438 -0.00324505)
(0.200253 0.355198 -0.00301436)
(0.16352 0.311554 -0.00168893)
(0.136108 0.267451 -0.00223699)
(0.1164 0.228565 -0.000231192)
(0.0965546 0.191074 -0.000110725)
(0.0807902 0.159597 0.00215512)
(0.0645863 0.134453 0.00246038)
(0.0442368 0.109784 -0.00222241)
(0.0286426 0.0877372 0.000846149)
(0.00884756 0.066257 0.0033312)
(-0.00712522 0.0450111 0.00960501)
(-0.0198411 0.0236918 0.00953491)
(-0.0400498 0.0058124 0.00790762)
(-0.0605736 -0.00971045 0.0108274)
(-0.0800479 -0.0231277 0.0116688)
(-0.10326 -0.0386819 0.0118941)
(-0.135638 -0.0526818 0.00937255)
(-0.175229 -0.0682182 0.00795922)
(-0.222524 -0.0868175 0.00628107)
(-0.279157 -0.123167 0.00494947)
(-0.346772 -0.183967 0.00460592)
(-0.386608 -0.289941 0.00470399)
(-0.379508 -0.413901 -0.00202984)
(-0.355255 -0.552357 -0.0144134)
(-0.285399 -0.644957 -0.0288163)
(-0.173474 -0.631566 -0.0551709)
(-0.027113 -0.390583 -0.0534297)
(0.035433 -0.0290482 -0.0175681)
(0.000614094 0.249968 0.00215457)
(0.0374714 0.464525 -0.0264912)
(0.104762 0.587418 -0.0364942)
(0.179415 0.643506 -0.0342726)
(0.245013 0.649237 -0.0194161)
(0.294063 0.626753 -0.0135837)
(0.335736 0.588762 -0.00389186)
(0.36503 0.547818 0.000144992)
(0.364626 0.500501 0.000194312)
(0.333625 0.460537 0.000623639)
(0.290273 0.419385 0.000809643)
(0.241362 0.376843 0.000873988)
(0.19879 0.334181 0.000776467)
(0.16534 0.293915 0.00032872)
(0.139048 0.253856 0.000188798)
(0.117597 0.215064 0.00143541)
(0.103373 0.17563 0.00359172)
(0.091596 0.14333 0.00552771)
(0.0757091 0.115096 0.00580677)
(0.0612796 0.0931918 0.00863288)
(0.0422518 0.0731621 0.0035607)
(0.023898 0.0541951 0.00371568)
(0.00842151 0.0357375 0.00834085)
(-0.00855764 0.0184108 0.00803638)
(-0.0220787 -0.00385711 0.00850073)
(-0.0386609 -0.0175677 0.00932182)
(-0.0572064 -0.0352364 0.0106849)
(-0.0764756 -0.0521819 0.0117171)
(-0.102264 -0.0706665 0.0126009)
(-0.135625 -0.0896249 0.0123285)
(-0.179236 -0.111055 0.0126328)
(-0.221392 -0.144311 0.013221)
(-0.270839 -0.182907 0.0136932)
(-0.307419 -0.239163 0.0121168)
(-0.334047 -0.322992 0.00655426)
(-0.349593 -0.454714 -0.000546308)
(-0.321907 -0.55649 -0.0147096)
(-0.224866 -0.587513 -0.0383787)
(-0.0573308 -0.378195 -0.0516421)
(0.0269053 0.00629407 -0.0195077)
(0.00670954 0.224605 0.000734868)
(0.0437914 0.419379 -0.0226092)
(0.103498 0.548509 -0.0312322)
(0.175789 0.608417 -0.0301562)
(0.239694 0.622739 -0.0176691)
(0.288901 0.603088 -0.0103403)
(0.332838 0.567011 -0.00132714)
(0.35947 0.523931 0.00266853)
(0.359536 0.47387 0.00337487)
(0.331977 0.431278 0.00370937)
(0.287684 0.389045 0.00429284)
(0.240817 0.349132 0.00471452)
(0.201582 0.311184 0.00410026)
(0.169104 0.274199 0.00372541)
(0.143341 0.236047 0.00328429)
(0.123141 0.199729 0.00452029)
(0.107712 0.164232 0.00625935)
(0.100227 0.130792 0.00816212)
(0.090948 0.10116 0.00831458)
(0.0752913 0.0764263 0.00727116)
(0.0597216 0.0610239 0.00755953)
(0.0395881 0.043608 0.00720662)
(0.024301 0.0272348 0.00446787)
(0.00789332 0.0109736 0.00561861)
(-0.00748659 -0.00586444 0.00834911)