/*--------------------------------*- C++ -*----------------------------------*\
| =========                 |                                                 |
| \\      /  F ield         | OpenFOAM: The Open Source CFD Toolbox           |
|  \\    /   O peration     | Version:  v1806                                 |
|   \\  /    A nd           | Web:      www.OpenFOAM.com                      |
|    \\/     M anipulation  |                                                 |
\*---------------------------------------------------------------------------*/
FoamFile
{
    version     2.0;
    format      ascii;
    class       surfaceScalarField;
    location    "0.0065";
    object      phi;
}
// * * * * * * * * * * * * * * * * * * * * * * * * * * * * * * * * * * * * * //

dimensions      [0 3 -1 0 0 0 0];
oriented        oriented;


internalField   nonuniform List<scalar> 
187200
(
8.98173e-06
-6.71255e-06
-2.26949e-06
3.13834e-05
-1.51218e-05
-7.27983e-06
5.3992e-05
-1.48217e-05
-7.78685e-06
7.26982e-05
-1.17632e-05
-6.94297e-06
8.6564e-05
-8.09802e-06
-5.7678e-06
9.73885e-05
-4.85176e-06
-5.97265e-06
0.000106299
-1.87537e-06
-7.03539e-06
0.000112775
1.80222e-06
-8.27774e-06
0.000116358
5.94433e-06
-9.52735e-06
0.000114221
1.2093e-05
-9.95662e-06
0.000105164
1.80155e-05
-8.9578e-06
8.67934e-05
2.49938e-05
-6.62354e-06
6.53594e-05
2.76113e-05
-6.17725e-06
2.86431e-05
3.72254e-05
-5.09121e-07
-2.64975e-05
4.50548e-05
1.00858e-05
-0.000100861
5.69437e-05
1.74196e-05
-0.000194829
7.23848e-05
2.15831e-05
-0.000294144
9.01605e-05
9.15473e-06
-0.000392433
0.000112693
-1.44048e-05
-0.000483637
0.000141932
-5.07277e-05
-0.000562957
0.000176318
-9.69972e-05
-0.000623992
0.000215177
-0.000154143
-0.000659644
0.000257297
-0.000221645
-0.000664133
0.000300423
-0.000295934
-0.000632965
0.00034057
-0.000371739
-0.000565445
0.000373336
-0.000440856
-0.000464591
0.000395882
-0.000496737
-0.000338584
0.000404993
-0.000531
-0.000199418
0.000397272
-0.000536437
-5.30137e-05
0.000365405
-0.000511809
6.64435e-05
0.000323577
-0.000443034
0.000139499
0.000276053
-0.000349108
0.000161542
0.000220335
-0.000242378
0.000150101
0.00016081
-0.000149369
0.000119892
0.000112248
-8.2039e-05
8.48566e-05
7.64697e-05
-4.14339e-05
5.32682e-05
5.25016e-05
-2.09133e-05
2.82726e-05
3.83283e-05
-1.33328e-05
8.7547e-06
2.93235e-05
-9.80563e-06
1.53718e-05
-6.61709e-06
1.69212e-05
-1.97169e-05
-3.91671e-06
5.2924e-05
-3.42175e-05
-1.6907e-05
8.97033e-05
-2.98804e-05
-2.17205e-05
0.000118392
-1.72253e-05
-2.32264e-05
0.000136911
-1.26421e-06
-2.5353e-05
0.000147959
1.3285e-05
-2.91849e-05
0.000152565
2.92163e-05
-3.56969e-05
0.000149097
4.85871e-05
-4.33168e-05
0.000133873
7.26633e-05
-5.14958e-05
0.000101999
0.000102431
-5.84635e-05
5.26463e-05
0.000134262
-6.68941e-05
-2.027e-05
0.000174063
-7.61532e-05
-0.00012789
0.000222972
-8.77403e-05
-0.000261664
0.000275978
-0.00010498
-0.000418785
0.000332867
-0.000130691
-0.000593524
0.000397626
-0.000165943
-0.000775578
0.000468722
-0.000214283
-0.000955915
0.00054799
-0.000277493
-0.00112214
0.00063329
-0.000354371
-0.00126231
0.00072354
-0.000441439
-0.00136616
0.000815785
-0.000535617
-0.00142475
0.000906881
-0.000633111
-0.0014312
0.000993399
-0.000729654
-0.00138284
0.0010679
-0.000815833
-0.00127813
0.00112572
-0.000889866
-0.00112048
0.00116108
-0.000945387
-0.000918868
0.00116869
-0.000974424
-0.000687469
0.00114399
-0.000970397
-0.000446024
0.00108493
-0.000929103
-0.000222848
0.00099201
-0.000849781
-3.47632e-05
0.000873888
-0.000738396
0.000107097
0.000731937
-0.000597744
0.000186056
0.000588263
-0.000446888
0.000205115
0.000459808
-0.000318056
0.000181636
0.000348469
-0.000212743
0.000142848
0.00025736
-0.000142102
0.000102217
0.000191453
-9.83208e-05
6.51446e-05
0.000147264
-7.18638e-05
2.92931e-05
0.000113088
-4.79125e-05
6.56395e-05
-2.09747e-05
1.96757e-05
-3.03043e-05
-9.08828e-06
6.16518e-05
-4.57806e-05
-3.04129e-05
0.000102641
-3.20735e-05
-3.87961e-05
0.000130488
-2.98197e-06
-4.20906e-05
0.000145027
2.97448e-05
-4.55475e-05
0.000146553
6.67844e-05
-5.5026e-05
0.000136127
0.000109063
-6.94211e-05
0.00011118
0.000158447
-8.49127e-05
6.55584e-05
0.000218749
-0.000100465
-1.62231e-06
0.000288325
-0.000118713
-0.000101741
0.000369956
-0.000135575
-0.000231442
0.000459767
-0.000156004
-0.000386717
0.000556332
-0.000178086
-0.000564859
0.000659891
-0.000205771
-0.000757978
0.000767008
-0.000241022
-0.000954316
0.000877764
-0.000283801
-0.00114318
0.000991746
-0.000334164
-0.00131346
0.00110826
-0.000389982
-0.00145606
0.0012246
-0.000448717
-0.00156337
0.00133831
-0.00050746
-0.00163014
0.00144554
-0.000562992
-0.00165178
0.00154237
-0.000613842
-0.00162775
0.00162408
-0.000654713
-0.00155727
0.00168417
-0.000686748
-0.0014424
0.00171691
-0.000706069
-0.00128819
0.00171742
-0.000710547
-0.00110237
0.0016813
-0.000698435
-0.000895625
0.00160613
-0.000668879
-0.00068123
0.00149306
-0.000622526
-0.000474705
0.00134691
-0.000561428
-0.000288787
0.00117759
-0.000489617
-0.00014663
0.00100146
-0.000411678
-4.36067e-05
0.000819186
-0.000333946
2.53762e-05
0.000651107
-0.000260282
6.07321e-05
0.000508882
-0.000195769
7.37829e-05
0.000399642
-0.000155332
6.84618e-05
0.000319464
-0.00012269
5.26362e-05
0.000260418
-9.73279e-05
2.73844e-05
0.00020412
-6.57804e-05
0.000117517
-2.44934e-05
2.10685e-05
-3.27742e-05
-1.85985e-05
6.63828e-05
-4.16072e-05
-4.94877e-05
0.000107295
-1.21839e-05
-6.08015e-05
0.000131397
3.68256e-05
-6.39101e-05
0.000135463
9.68879e-05
-7.12086e-05
0.000123107
0.000165552
-8.64109e-05
9.41056e-05
0.000244386
-0.000106322
4.63128e-05
0.000334376
-0.000128136
-2.52995e-05
0.000439323
-0.000148961
-0.000123331
0.000554481
-0.000168124
-0.000247448
0.000679501
-0.000185428
-0.00039416
0.000808054
-0.000201575
-0.000557865
0.000938062
-0.000218026
-0.000730404
0.00106727
-0.000234844
-0.000904102
0.00119333
-0.000252622
-0.00107004
0.00131422
-0.000270524
-0.00122111
0.00143103
-0.000288214
-0.0013507
0.00154189
-0.000304031
-0.0014537
0.001644
-0.000316402
-0.00152663
0.00173541
-0.000324166
-0.00156723
0.00181349
-0.000327347
-0.00157511
0.00187498
-0.000324731
-0.00155042
0.00191569
-0.0003163
-0.00149364
0.00193143
-0.000304041
-0.00140776
0.00191888
-0.000287841
-0.00129668
0.00187548
-0.000269146
-0.00116479
0.00179909
-0.000249669
-0.00101774
0.00168979
-0.000230716
-0.000861576
0.00155113
-0.000214232
-0.000702304
0.00139015
-0.000202515
-0.00054711
0.0012174
-0.000195005
-0.000399399
0.00104185
-0.000188107
-0.000268846
0.000871815
-0.000183182
-0.000164792
0.000721024
-0.00017397
-8.86823e-05
0.000592413
-0.000159641
-3.39897e-05
0.000490186
-0.000145237
3.67302e-06
0.000411462
-0.000129661
2.34483e-05
0.00034951
-0.000108868
2.04266e-05
0.000281524
-7.43824e-05
0.000162603
-2.46592e-05
2.35573e-05
-2.19655e-05
-3.43659e-05
7.28093e-05
-1.36739e-05
-7.71853e-05
0.000115622
3.66002e-05
-9.15962e-05
0.000133611
0.000111978
-9.31418e-05
0.000128554
0.000202865
-0.000100921
0.000104625
0.000307513
-0.000118033
6.22349e-05
0.000426902
-0.000140125
6.79143e-07
0.000556829
-0.000160897
-8.22431e-05
0.00069739
-0.000175145
-0.000186378
0.000843516
-0.0001849
-0.000307914
0.000990365
-0.000189329
-0.000441908
0.00113227
-0.000190223
-0.000583295
0.00126712
-0.000187669
-0.000725336
0.00139148
-0.000182166
-0.00086252
0.00150462
-0.000174109
-0.000990266
0.0016042
-0.000162227
-0.0011041
0.00168994
-0.000145082
-0.00120053
0.00176102
-0.00012269
-0.00127741
0.00181827
-9.73886e-05
-0.00133339
0.00186116
-6.97761e-05
-0.0013673
0.00188782
-4.04212e-05
-0.00138061
0.00189729
-9.00893e-06
-0.00137309
0.0018886
1.95739e-05
-0.00134729
0.00186105
4.45795e-05
-0.00130648
0.0018136
6.44621e-05
-0.00125216
0.00174529
7.58827e-05
-0.00118532
0.00165559
7.66493e-05
-0.00110626
0.00154545
6.52768e-05
-0.00101377
0.00141741
4.12411e-05
-0.00090432
0.00127625
4.45814e-06
-0.000782355
0.00112732
-3.18846e-05
-0.000646727
0.000982361
-7.61351e-05
-0.000504777
0.00084542
-0.000115555
-0.000365751
0.000723926
-0.000141928
-0.000240655
0.000621711
-0.000154394
-0.000137015
0.000539437
-0.000152891
-5.88097e-05
0.000474331
-0.000141075
-8.98355e-06
0.000417877
-0.000118192
1.0291e-05
0.000341409
-7.91598e-05
0.000196135
-2.32413e-05
2.68644e-05
7.20714e-06
-5.6037e-05
8.60978e-05
4.38381e-05
-0.000116745
0.000132152
0.000120947
-0.000130401
0.000147108
0.000223494
-0.000126471
0.000136749
0.000343872
-0.000130648
0.000108222
0.000480794
-0.000144754
6.60391e-05
0.00063128
-0.000162195
4.43239e-06
0.000790448
-0.000172013
-7.55229e-05
0.000950335
-0.00017299
-0.000171663
0.00110516
-0.000165505
-0.000275213
0.00124709
-0.000153173
-0.000384953
0.00137798
-0.000135973
-0.000498734
0.00149524
-0.000114336
-0.000611348
0.00159112
-8.70243e-05
-0.000715557
0.00166386
-5.5032e-05
-0.000811955
0.00171559
-1.49992e-05
-0.000898611
0.0017511
2.54973e-05
-0.000974254
0.00177098
6.56806e-05
-0.00103815
0.00177437
0.000107795
-0.00108944
0.0017622
0.000150249
-0.00112858
0.00173832
0.000188651
-0.00115774
0.00170493
0.000221528
-0.0011792
0.00166298
0.000247077
-0.00119406
0.00161365
0.000262263
-0.00120373
0.00155639
0.000266891
-0.00120715
0.00148993
0.000258781
-0.00120139
0.00141321
0.000236629
-0.00118225
0.00132547
0.000200842
-0.0011439
0.00122761
0.000151442
-0.00108062
0.00112194
9.10152e-05
-0.000985843
0.00101207
2.04734e-05
-0.000864241
0.000901143
-4.03829e-05
-0.000715514
0.000798223
-0.00010153
-0.000549623
0.00070823
-0.000150195
-0.000384386
0.000632891
-0.000176417
-0.000236882
0.000572182
-0.000180248
-0.000119143
0.000521254
-0.000164663
-3.73716e-05
0.00047054
-0.000134435
1.95648e-06
0.000389531
-8.74506e-05
0.000223038
-2.49467e-05
3.57118e-05
5.56263e-05
-8.41309e-05
0.000106551
0.000134424
-0.000161425
0.000161602
0.000239531
-0.000173635
0.000178588
0.000365655
-0.000159147
0.000170084
0.000507932
-0.000155556
0.000146183
0.000665079
-0.000160385
0.000112586
0.000830691
-0.000165815
6.52456e-05
0.000999441
-0.000161652
1.17536e-06
0.00116006
-0.000145653
-7.40988e-05
0.0013044
-0.000123971
-0.000165948
0.00143254
-9.3601e-05
-0.000260059
0.00153302
-6.09208e-05
-0.000351843
0.00160458
-1.75585e-05
-0.000443487
0.00165605
2.67184e-05
-0.000528433
0.00168425
6.45609e-05
-0.000607996
0.00168863
0.00010653
-0.000682629
0.00167091
0.000154821
-0.000750583
0.00163601
0.000202921
-0.00081159
0.00158966
0.000245715
-0.000867337
0.00153673
0.000281222
-0.000920586
0.00148262
0.000308946
-0.000973611
0.00142969
0.000328263
-0.00102797
0.00137894
0.000338396
-0.00108268
0.00133131
0.000337037
-0.00113678
0.00128536
0.000325129
-0.00118751
0.0012384
0.000302262
-0.00122975
0.00118739
0.000268055
-0.00125614
0.00112873
0.000223129
-0.00125848
0.00106148
0.00016847
-0.00122843
0.000986445
0.000105446
-0.00115909
0.00090687
3.58632e-05
-0.00104874
0.000825314
-3.45251e-05
-0.000897855
0.000750014
-0.000102672
-0.000714701
0.000685257
-0.000160182
-0.000517078
0.000634993
-0.000199724
-0.000329434
0.00059606
-0.000211523
-0.000173621
0.000560058
-0.000194617
-6.25498e-05
0.000515777
-0.000156309
-4.62721e-06
0.000432275
-0.000100667
0.000247689
-2.92782e-05
4.53108e-05
0.000124343
-0.000114028
0.000134881
0.00025411
-0.000209256
0.000206025
0.000384306
-0.000215919
0.000231211
0.000526651
-0.000186182
0.000229271
0.00068077
-0.000170898
0.000212828
0.000844049
-0.000162528
0.000186298
0.00100913
-0.000151911
0.000150932
0.00116807
-0.000133258
0.000105307
0.00131048
-0.0001048
4.47266e-05
0.00143364
-6.86518e-05
-1.98655e-05
0.00152864
-3.15085e-05
-9.91067e-05
0.0015928
1.946e-05
-0.000187439
0.00163118
6.17331e-05
-0.000271358
0.00163422
0.000105743
-0.000351036
0.00161168
0.00015224
-0.000425869
0.00156537
0.000198086
-0.000497936
0.00150287
0.00024011
-0.000567053
0.00142933
0.000275803
-0.000635017
0.00135399
0.000303634
-0.000704781
0.0012837
0.000322792
-0.000777613
0.00122211
0.000333345
-0.000854457
0.00117091
0.000335617
-0.000935996
0.00112989
0.000330588
-0.00102147
0.00109755
0.000319236
-0.00110779
0.00107083
0.000300848
-0.00119063
0.00104535
0.000275887
-0.0012641
0.00101648
0.000244387
-0.00131961
0.000979725
0.000204513
-0.00134958
0.000932581
0.000158869
-0.00134504
0.000876622
0.000105285
-0.00129775
0.000815125
4.44515e-05
-0.00120144
0.000751582
-2.25794e-05
-0.00105285
0.000693166
-9.17363e-05
-0.000859484
0.000647943
-0.000156053
-0.000638409
0.000619824
-0.000205907
-0.000417054
0.000604171
-0.000229465
-0.000225332
0.0005883
-0.000219964
-8.62658e-05
0.000554874
-0.000178163
-1.04496e-05
0.000472476
-0.000116018
0.000272215
-3.49756e-05
5.70573e-05
0.000207905
-0.000140618
0.000170105
0.000394012
-0.00025295
0.000263429
0.000544344
-0.000253362
0.000303038
0.000692578
-0.000205536
0.000308679
0.000847552
-0.000172423
0.000299208
0.00100533
-0.00015181
0.000279139
0.00115658
-0.000127383
0.000248181
0.00129408
-9.50592e-05
0.000206175
0.00141008
-5.75912e-05
0.000158879
0.001498
-1.70707e-05
0.000103289
0.0015575
2.67272e-05
3.3883e-05
0.00158913
7.30733e-05
-3.99773e-05
0.00158576
0.000119276
-0.000123014
0.00155015
0.000167103
-0.000206774
0.00148571
0.000209738
-0.000286816
0.00140033
0.000245086
-0.000363885
0.00130818
0.000271754
-0.000441025
0.00121697
0.000289503
-0.000520912
0.00113492
0.000298953
-0.000604763
0.00106634
0.000301207
-0.000693957
0.00101334
0.00029796
-0.00078885
0.000975547
0.000290261
-0.000888936
0.000950133
0.000279843
-0.000992804
0.000933339
0.000268081
-0.00109699
0.000920762
0.000254254
-0.0011972
0.00090773
0.000237825
-0.00128882
0.000889133
0.000218969
-0.00136369
0.000862911
0.000191681
-0.00141489
0.000825285
0.000158497
-0.00143241
0.000777885
0.000116262
-0.00140474
0.000723032
6.442e-05
-0.00132549
0.000666528
5.80339e-06
-0.00118283
0.000616454
-6.59479e-05
-0.000985832
0.000585779
-0.000134831
-0.000748407
0.00057686
-0.000194461
-0.000499275
0.000586676
-0.000231638
-0.000275808
0.000597387
-0.000232554
-0.000109763
0.000582957
-0.000194128
-1.6367e-05
0.000508239
-0.000129158
0.000296393
-4.05451e-05
6.9894e-05
0.00029771
-0.000159699
0.000208873
0.000543083
-0.00028805
0.000327929
0.000708736
-0.000283448
0.000386474
0.000852651
-0.000218619
0.000402231
0.000996166
-0.00016437
0.000396378
0.00113817
-0.000126988
0.000379909
0.00126965
-9.6598e-05
0.000351385
0.00137917
-5.65623e-05
0.000310409
0.00146404
-1.29847e-05
0.000258173
0.00151982
3.04168e-05
0.000196504
0.00154567
7.34996e-05
0.000130473
0.00153758
0.000117582
6.03002e-05
0.00149496
0.000160972
-1.80915e-05
0.0014263
0.000202242
-0.000104948
0.00133833
0.000234235
-0.00019103
0.00123115
0.000255264
-0.000276857
0.00112982
0.000264193
-0.000364069
0.00103895
0.000265229
-0.000453774
0.000964498
0.000260128
-0.000547676
0.000908248
0.000251997
-0.000646783
0.000869109
0.000243337
-0.000750998
0.000843975
0.000235786
-0.000858918
0.000828594
0.000229459
-0.000969193
0.000818613
0.000225002
-0.00107972
0.000809995
0.000221292
-0.00118788
0.000798981
0.000216908
-0.0012887
0.000782385
0.000207569
-0.00137901
0.000756856
0.000196365
-0.00145034
0.000721647
0.000174972
-0.00149187
0.000676027
0.000143385
-0.00148742
0.000620809
9.77753e-05
-0.00142626
0.000566564
3.88023e-05
-0.00129545
0.000521169
-3.5526e-05
-0.00109845
0.000497085
-0.000108305
-0.000848585
0.000501502
-0.000174505
-0.000576729
0.000535994
-0.000221174
-0.000324674
0.000579194
-0.000233862
-0.000132691
0.000594312
-0.000203339
-2.27665e-05
0.00053628
-0.000137966
0.000319032
-4.54052e-05
8.24012e-05
0.000384314
-0.000169005
0.000247674
0.000689408
-0.000311598
0.000393326
0.000867127
-0.000304043
0.000471533
0.00100059
-0.000226144
0.00049952
0.00112307
-0.000154887
0.000497745
0.00123922
-9.92786e-05
0.000481007
0.00134426
-5.78713e-05
0.000451107
0.00142797
-1.88972e-05
0.000408922
0.00148287
2.33562e-05
0.000356352
0.00150669
6.5703e-05
0.000292299
0.00150086
0.000108862
0.000218144
0.00146199
0.000149748
0.000134866
0.00139204
0.000186197
4.8507e-05
0.00129664
0.00021602
-3.7739e-05
0.00119075
0.000233829
-0.000131098
0.00108444
0.000240061
-0.000223811
0.000987263
0.000235265
-0.000316792
0.000906547
0.000225383
-0.000411576
0.000845436
0.000213846
-0.000509467
0.000802031
0.000204108
-0.000610769
0.000772366
0.000198046
-0.000715124
0.000751978
0.000196351
-0.000821385
0.000736984
0.000197872
-0.000929252
0.00072417
0.00020231
-0.00103847
0.000710914
0.000208303
-0.00114874
0.000694841
0.000214402
-0.00125744
0.000674458
0.000216633
-0.00136112
0.00064675
0.000213781
-0.00145223
0.000609675
0.000203086
-0.00151849
0.000563457
0.000178828
-0.00154156
0.000512699
0.000131179
-0.00150436
0.000461529
6.78416e-05
-0.00139535
0.000415981
-3.827e-06
-0.00120581
0.000389969
-8.24258e-05
-0.000947641
0.000397921
-0.000154587
-0.000653254
0.000447908
-0.000206301
-0.000372177
0.000525987
-0.00022787
-0.00015489
0.000581672
-0.000204647
-2.9511e-05
0.000552901
-0.000141999
0.00033925
-4.97288e-05
9.29514e-05
0.00045939
-0.000168028
0.000283176
0.000822288
-0.000323105
0.00045472
0.00101022
-0.000314636
0.00055191
0.00113027
-0.000226868
0.000591345
0.00122801
-0.000144378
0.000593905
0.00131459
-7.79263e-05
0.00057577
0.0013877
-2.53007e-05
0.000542196
0.00144217
1.93728e-05
0.000496959
0.00147166
5.64442e-05
0.000441054
0.00147137
9.12222e-05
0.000372085
0.00143842
0.00013141
0.000290624
0.00137508
0.000168367
0.000199387
0.00128583
0.000197447
0.000100286
0.00117955
0.00021619
2.75679e-06
0.00106871
0.000219565
-9.46196e-05
0.000966807
0.000215014
-0.000186994
0.00087895
0.000200686
-0.000280927
0.000813028
0.000187452
-0.000375514
0.000763172
0.000176851
-0.000471307
0.00072655
0.000171273
-0.000568132
0.000698228
0.000170962
-0.000665899
0.000674415
0.00017533
-0.000764513
0.000652753
0.000182845
-0.000865176
0.000631719
0.000193114
-0.000969525
0.000610373
0.000204889
-0.00107823
0.000587668
0.000215883
-0.00119179
0.000561727
0.000226286
-0.00130723
0.000530411
0.000231776
-0.00141809
0.000492828
0.000227712
-0.00150898
0.00044823
0.000206119
-0.00156316
0.000396325
0.000170555
-0.00155826
0.000341186
0.000115438
-0.00147709
0.000292345
4.24742e-05
-0.00130647
0.000262095
-4.2753e-05
-0.0010488
0.000266383
-0.000126129
-0.00073339
0.000324367
-0.00019187
-0.000421932
0.000434659
-0.00022013
-0.000176203
0.000541364
-0.000205421
-3.60108e-05
0.00055556
-0.000142851
0.000357167
-5.39279e-05
0.000100569
0.000517378
-0.000158556
0.000312933
0.000934035
-0.000324111
0.000508332
0.00113086
-0.000316038
0.000623299
0.00123683
-0.000221534
0.000672206
0.00130936
-0.000130262
0.000678589
0.0013662
-5.7995e-05
0.000659058
0.00140977
-2.5474e-06
0.000621945
0.001436
4.32795e-05
0.000571888
0.00143956
8.21617e-05
0.000509067
0.00141741
0.000116784
0.000434413
0.00136627
0.000146807
0.000345623
0.00128734
0.000176534
0.000245298
0.00118768
0.000198483
0.000139689
0.0010781
0.000207066
3.87173e-05
0.000968576
0.000201105
-6.11812e-05
0.000878071
0.000188634
-0.000154345
0.000800405
0.000171709
-0.000245012
0.000744008
0.000159688
-0.000334769
0.000699141
0.000153787
-0.000423813
0.000662216
0.000153378
-0.000511974
0.000628979
0.00015741
-0.000599565
0.000597285
0.000164722
-0.000687619
0.00056645
0.000174357
-0.000778582
0.000536361
0.000186321
-0.000875248
0.000506959
0.00020008
-0.000980006
0.000477747
0.000214679
-0.0010946
0.000447396
0.000228929
-0.00121781
0.000414351
0.000239266
-0.00134238
0.000376109
0.000241292
-0.00145613
0.000328847
0.000233132
-0.00154204
0.00027259
0.000209646
-0.00157717
0.00021234
0.000163974
-0.00153442
0.000154946
9.46489e-05
-0.00139309
0.000112744
8.01716e-06
-0.00114709
0.000105933
-8.55488e-05
-0.000822262
0.000166557
-0.000167016
-0.000478298
0.000302732
-0.000212036
-0.00020025
0.000466917
-0.000203602
-4.26813e-05
0.000540053
-0.000142062
0.000372144
-5.76576e-05
0.000105177
0.000555555
-0.000143353
0.000334237
0.00101905
-0.000314071
0.000551882
0.00122673
-0.000313517
0.000683845
0.00131879
-0.000213914
0.000741022
0.00136627
-0.000114088
0.000749226
0.00139548
-3.74796e-05
0.00072812
0.00141252
1.83625e-05
0.000688236
0.00141404
6.18458e-05
0.000633141
0.0013961
9.85526e-05
0.000563563
0.00135598
0.000131009
0.000481221
0.00129084
0.000157767
0.000386427
0.00120304
0.000179086
0.000281716
0.00109946
0.00019293
0.000173512
0.00099199
0.00019431
6.89495e-05
0.000889963
0.000183175
-2.81748e-05
0.000808101
0.000167094
-0.000118847
0.000739186
0.000151891
-0.000203305
0.000685588
0.000142878
-0.000285966
0.000640369
0.000141433
-0.000366305
0.000598621
0.000143934
-0.000444346
0.000558027
0.000148994
-0.000520902
0.000518061
0.00015578
-0.000597845
0.000479201
0.000164191
-0.000678155
0.000441917
0.000174754
-0.00076517
0.000406364
0.00018761
-0.000862295
0.000372134
0.000202736
-0.000972187
0.00033812
0.000219168
-0.00109494
0.00030244
0.000234668
-0.00122627
0.000261511
0.000245928
-0.00135838
0.000211415
0.000249536
-0.0014742
0.000151021
0.000237392
-0.00155117
8.54702e-05
0.000203834
-0.00155376
9.19976e-06
0.000148337
-0.00145264
-5.48368e-05
6.64678e-05
-0.0012322
-8.33214e-05
-3.11849e-05
-0.000912418
-2.77275e-05
-0.000125501
-0.000546245
0.000129275
-0.000192716
-0.000230519
0.000351258
-0.000200067
-4.93333e-05
0.000501272
-0.000142404
0.000383567
-6.07566e-05
0.000106775
0.000573906
-0.000125127
0.000347607
0.00107439
-0.000296173
0.000582552
0.00129367
-0.000301885
0.000730551
0.00137645
-0.000205665
0.000797011
0.00140278
-0.000102968
0.000807068
0.00140641
-2.09854e-05
0.000784159
0.00139811
3.73227e-05
0.00074049
0.00137866
7.90445e-05
0.000681501
0.00134437
0.000110719
0.000607209
0.00129127
0.000138997
0.000518341
0.00121702
0.000162685
0.000418398
0.00112531
0.000177673
0.000312704
0.0010222
0.000182954
0.000205194
0.000918696
0.000180803
0.000101062
0.000825427
0.000168668
8.69033e-06
0.000748562
0.00015191
-7.74874e-05
0.000685164
0.000140199
-0.000156016
0.000630296
0.00013382
-0.000231554
0.000581645
0.000134261
-0.000303542
0.000533889
0.000136721
-0.000372295
0.000486718
0.000140062
-0.000439046
0.000440628
0.000144184
-0.000505917
0.000396411
0.000149662
-0.000575858
0.000354513
0.000157346
-0.000652242
0.000314857
0.000167892
-0.000738782
0.000276881
0.000181793
-0.000838592
0.000239176
0.000198755
-0.000953479
0.000199635
0.000217692
-0.00108301
0.000155079
0.000235962
-0.00122042
0.000100129
0.000248695
-0.00135452
3.58314e-05
0.000249294
-0.00146545
-3.57592e-05
0.000232155
-0.0015157
-0.000129558
0.000189011
-0.00146986
-0.000220013
0.000119336
-0.00130648
-0.00027658
2.98803e-05
-0.00100125
-0.000250969
-8.19889e-05
-0.000625233
-8.65869e-05
-0.000160157
-0.000273237
0.000190018
-0.000190755
-5.72393e-05
0.000427139
-0.000141864
0.00038682
-6.04917e-05
0.000104966
0.000574547
-0.000105606
0.000352782
0.00110094
-0.000274371
0.000601924
0.0013323
-0.000287769
0.00076462
0.00140929
-0.000195533
0.000839679
0.00141794
-9.02158e-05
0.000851914
0.00140033
-6.16108e-06
0.000827827
0.00137108
5.11162e-05
0.000781606
0.00133464
9.02429e-05
0.000719676
0.0012874
0.000118897
0.000641508
0.00122473
0.000144708
0.000549393
0.00114594
0.000163204
0.000446888
0.00105322
0.000174599
0.00034063
0.000953591
0.000174866
0.000236474
0.000855818
0.000167035
0.000137411
0.000767967
0.000156522
4.93444e-05
0.000693737
0.000142892
-3.22381e-05
0.000633797
0.000132949
-0.000106839
0.000576358
0.000128539
-0.000176269
0.000522807
0.000128268
-0.000241481
0.000470259
0.000128841
-0.000303005
0.00041894
0.000129302
-0.000362164
0.000369591
0.000130196
-0.000420921
0.00032278
0.000132388
-0.000482029
0.000278447
0.000137175
-0.000548457
0.00023624
0.000145045
-0.000623738
0.00019538
0.000156782
-0.000711446
0.000154138
0.000172746
-0.000813992
0.000109856
0.000192326
-0.000932711
6.00848e-05
0.000213714
-0.00106843
3.02444e-06
0.000232824
-0.00121452
-6.38115e-05
0.000245731
-0.00134403
-0.000150479
0.000244232
-0.00143322
-0.000259782
0.000219413
-0.00144055
-0.000375645
0.000162959
-0.00132831
-0.000466844
7.80255e-05
-0.00107822
-0.00048012
-2.0942e-05
-0.000694184
-0.000349949
-0.000120669
-0.000322027
-1.79699e-05
-0.00016417
-6.30156e-05
0.000310285
-0.000142157
0.000378218
-5.44137e-05
0.000100275
0.000559341
-8.50696e-05
0.0003505
0.00110055
-0.000249833
0.000610085
0.00134429
-0.00027158
0.000786395
0.00141965
-0.000186667
0.00087082
0.00141525
-8.1732e-05
0.000886606
0.00138002
4.52495e-06
0.000861824
0.00133311
6.27456e-05
0.000813454
0.00128256
0.000100452
0.000749077
0.00122553
0.000126248
0.000669689
0.00115753
0.000146586
0.000576637
0.00107684
0.00016215
0.000474243
0.000985762
0.000169853
0.00036898
0.000890559
0.000168296
0.000268335
0.000798209
0.000158253
0.000174678
0.000715546
0.000146079
8.87332e-05
0.000643441
0.00013624
1.23492e-05
0.000581706
0.000128475
-5.81978e-05
0.000522721
0.000124184
-0.000123332
0.000465803
0.000122138
-0.000183933
0.000410692
0.000120169
-0.000240547
0.00035772
0.000117835
-0.000294426
0.000307443
0.000116026
-0.000347399
0.000259941
0.000115812
-0.000401787
0.000214716
0.000118119
-0.000460138
0.00017099
0.000123601
-0.000525373
0.000127794
0.000132821
-0.000601448
8.37764e-05
0.000146436
-0.000691946
3.58389e-05
0.000164515
-0.000796923
-2.06592e-05
0.000185721
-0.000923921
-7.83878e-05
0.00020841
-0.001062
-0.000154064
0.000228336
-0.00119893
-0.000252324
0.000238771
-0.00131396
-0.000373607
0.000228849
-0.00136795
-0.000512275
0.000190627
-0.00131191
-0.000642312
0.000119428
-0.00111611
-0.000706078
3.01562e-05
-0.000769681
-0.000622763
-7.36155e-05
-0.000359139
-0.000296851
-0.000131661
-7.37824e-05
0.000158021
-0.000133092
0.000344019
-3.95842e-05
9.3906e-05
0.000530341
-6.49053e-05
0.000341659
0.00107473
-0.000221936
0.00060805
0.00133122
-0.00025332
0.000796976
0.00140983
-0.00017911
0.000891502
0.0013973
-7.65816e-05
0.000912311
0.00134777
1.14461e-05
0.000888169
0.0012866
7.06576e-05
0.000838605
0.00122443
0.000107692
0.000773176
0.00116008
0.000130887
0.000693812
0.00108904
0.000147856
0.000601971
0.0010088
0.000159878
0.000501671
0.000920898
0.000165164
0.000398619
0.000830295
0.000163316
0.000301373
0.00074394
0.000151515
0.000211779
0.000664758
0.000140381
0.000129844
0.000594479
0.000130898
5.6262e-05
0.000530897
0.00012439
-1.18152e-05
0.000470996
0.000119802
-7.45033e-05
0.000412623
0.000115868
-0.000132235
0.00035675
0.000111673
-0.000185845
0.000304063
0.000107268
-0.000236385
0.00025431
0.000103673
-0.000285482
0.000207249
0.000101789
-0.000335197
0.000162015
0.000102416
-0.000387864
0.000117553
0.000106104
-0.000445597
7.26614e-05
0.000112866
-0.000511593
2.61156e-05
0.000123657
-0.000587359
-2.71238e-05
0.000138729
-0.000681722
-8.42008e-05
0.000157904
-0.000791357
-0.00014904
0.000180288
-0.000918248
-0.000230733
0.000203559
-0.00105505
-0.000337168
0.000221651
-0.00118267
-0.00047197
0.000225984
-0.00126883
-0.000632581
0.000206459
-0.00126542
-0.0008
0.000154282
-0.00112428
-0.000919335
7.21202e-05
-0.000825368
-0.000898169
-2.35094e-05
-0.000408192
-0.000620676
-9.33508e-05
-7.66131e-05
-6.46861e-05
-0.000108872
0.000276688
-9.28155e-06
8.66016e-05
0.00049052
-4.67809e-05
0.000328081
0.00102685
-0.0001936
0.000597548
0.00129469
-0.000232934
0.000797448
0.00138029
-0.000170365
0.000902737
0.00136497
-7.29586e-05
0.000930275
0.0013059
1.4323e-05
0.000908602
0.00123399
7.42753e-05
0.000859362
0.00116248
0.000111193
0.000794065
0.00109216
0.000133211
0.0007159
0.00101928
0.000147924
0.000626486
0.000940821
0.000157394
0.00052948
0.000857225
0.00016068
0.000430689
0.000772011
0.000157075
0.000336045
0.000690124
0.00014846
0.000249592
0.000614704
0.000136508
0.000170624
0.000545809
0.000127637
9.8454e-05
0.000482075
0.000120993
3.20269e-05
0.000421856
0.000115567
-2.94701e-05
0.000364024
0.000110095
-8.55824e-05
0.000308509
0.000104354
-0.000137645
0.000257475
9.86502e-05
-0.000186232
0.000208901
9.39953e-05
-0.000232914
0.000162867
9.10646e-05
-0.000279656
0.000118084
9.06734e-05
-0.000328134
7.33064e-05
9.27239e-05
-0.000380227
2.738e-05
9.73746e-05
-0.000436691
-2.28963e-05
0.000105476
-0.000503874
-7.72777e-05
0.000117336
-0.000584369
-0.000137194
0.000133489
-0.000679559
-0.000208152
0.000154301
-0.000792165
-0.000295902
0.000177775
-0.000920866
-0.000408888
0.000200422
-0.00105265
-0.000555384
0.000215199
-0.00116029
-0.000736889
0.000211947
-0.00119841
-0.000940854
0.000178972
-0.0011073
-0.00112106
0.000110618
-0.000852476
-0.00117559
2.25896e-05
-0.000461704
-0.000954569
-5.68789e-05
-7.65376e-05
-0.000365577
-8.42764e-05
0.000192911
7.23919e-06
7.8906e-05
0.000443
-3.13862e-05
0.000310996
0.000960906
-0.000166144
0.000579939
0.00123756
-0.000211819
0.000789236
0.00133323
-0.000162238
0.000906107
0.00131999
-7.18834e-05
0.000941918
0.00125587
1.42271e-05
0.000924843
0.0011764
7.46707e-05
0.000877397
0.00109737
0.000112552
0.00081332
0.00102222
0.000134018
0.000737348
0.000948191
0.000147065
0.000651348
0.000872015
0.000154806
0.000558459
0.00079306
0.000157054
0.000463975
0.00071352
0.000152975
0.000373028
0.000636565
0.000144506
0.000288752
0.000564378
0.000134601
0.000211478
0.000497429
0.000125654
0.000140258
0.000434711
0.000118583
7.45926e-05
0.000375338
0.000112183
1.38221e-05
0.000319293
0.000105502
-4.27094e-05
0.000266381
9.86589e-05
-9.36056e-05
0.000215849
9.25214e-05
-0.000141306
0.000169368
8.72327e-05
-0.000186698
0.000124463
8.37956e-05
-0.000231888
8.05289e-05
8.27452e-05
-0.000278089
3.6563e-05
8.29444e-05
-0.000325264
-1.21457e-05
8.66999e-05
-0.000376012
-6.47129e-05
9.25653e-05
-0.000435291
-0.000119631
0.000101632
-0.000504298
-0.000182732
0.000114545
-0.000586597
-0.00025781
0.000131956
-0.000685661
-0.000350687
0.000153849
-0.000803234
-0.000469837
0.000178522
-0.000933354
-0.000626074
0.00020081
-0.00105481
-0.000826599
0.000211161
-0.00112618
-0.0010655
0.000196019
-0.00108576
-0.00130539
0.000143919
-0.000878546
-0.00144168
5.88802e-05
-0.000509894
-0.00130093
-2.22943e-05
-0.000102656
-0.000714773
-5.80425e-05
5.5237e-05
3.50175e-05
7.1271e-05
0.000390573
-1.88444e-05
0.000291526
0.000881117
-0.000140466
0.000556787
0.00116316
-0.000190861
0.000773651
0.00127075
-0.000154381
0.000902657
0.00126365
-7.26706e-05
0.000947977
0.00119886
1.16886e-05
0.000937761
0.00111461
7.20072e-05