/*--------------------------------*- C++ -*----------------------------------*\
| =========                 |                                                 |
| \\      /  F ield         | OpenFOAM: The Open Source CFD Toolbox           |
|  \\    /   O peration     | Version:  v1806                                 |
|   \\  /    A nd           | Web:      www.OpenFOAM.com                      |
|    \\/     M anipulation  |                                                 |
\*---------------------------------------------------------------------------*/
FoamFile
{
    version     2.0;
    format      ascii;
    class       vectorField;
    location    "0.035";
    object      currentcloudofpoints;
}
// * * * * * * * * * * * * * * * * * * * * * * * * * * * * * * * * * * * * * //


2409
(
(0.734887 1.24228 0.999848)
(0.867019 0.787277 0.999884)
(1.18289 1.35691 0.999662)
(1.00213 1.05486 0.729248)
(1.00285 1.05467 1.27118)
(1.06113 1.08045 1.00003)
(0.559704 1.35102 0.999662)
(0.741968 0.625314 1.00041)
(1.25626 1.54159 0.999961)
(0.979641 1.04523 0.548683)
(0.978016 1.04698 1.44912)
(1.17547 1.34027 1.0886)
(1.15009 1.29703 1.16751)
(1.10835 1.23202 1.22871)
(1.05689 1.14608 1.26736)
(1.17962 1.34961 1.04413)
(1.16382 1.31889 1.12838)
(1.12964 1.26519 1.19803)
(1.08223 1.19059 1.24902)
(1.03029 1.09886 1.27138)
(0.875085 0.80031 1.06181)
(0.894171 0.842574 1.12407)
(0.923115 0.904474 1.1879)
(0.961633 0.975199 1.23805)
(0.871503 0.793838 1.03039)
(0.886104 0.821781 1.09075)
(0.908623 0.874306 1.15536)
(0.943839 0.940794 1.21181)
(0.981405 1.01471 1.25453)
(1.17511 1.34047 0.911097)
(1.14972 1.29663 0.832837)
(1.10796 1.2308 0.772416)
(1.0571 1.14517 0.733437)
(1.17943 1.34965 0.955287)
(1.16344 1.31901 0.871688)
(1.12917 1.2643 0.802685)
(1.08224 1.18927 0.752161)
(1.02987 1.09869 0.729249)
(0.962007 0.975071 0.762035)
(0.923537 0.903969 0.8121)
(0.892224 0.841577 0.874942)
(0.875507 0.801371 0.937544)
(0.981469 1.01485 0.745868)
(0.944059 0.940257 0.787725)
(0.908131 0.873531 0.844676)
(0.884606 0.821574 0.907997)
(0.872868 0.79527 0.969333)
(0.932499 1.10078 1.23716)
(0.858164 1.14913 1.18804)
(0.795038 1.19171 1.12468)
(0.750477 1.22667 1.06932)
(0.969342 1.07621 1.25017)
(0.895827 1.12477 1.21427)
(0.827026 1.17073 1.15342)
(0.772319 1.20806 1.0948)
(0.740926 1.23515 1.03525)
(0.751494 1.22682 0.931011)
(0.794048 1.19234 0.874573)
(0.857314 1.14899 0.811137)
(0.931081 1.10056 0.764063)
(0.742074 1.23467 0.964973)
(0.77206 1.20911 0.904478)
(0.826433 1.1701 0.846754)
(0.894377 1.12504 0.78503)
(0.968381 1.0761 0.751263)
(0.790405 0.869546 0.999645)
(0.729579 0.962463 0.999336)
(0.693199 1.05772 1.00001)
(0.694124 1.15599 0.999896)
(0.832327 0.829576 1.00007)
(0.761824 0.916956 0.99911)
(0.714239 1.01032 0.999719)
(0.691919 1.10616 1)
(0.714101 1.19881 0.999868)
(0.798419 1.31201 0.999803)
(0.882689 1.36185 1.00037)
(0.983897 1.38443 1.00008)
(1.08601 1.38473 0.999662)
(0.766592 1.27571 0.999752)
(0.840116 1.33662 1.0001)
(0.933527 1.37309 1.00033)
(1.03589 1.38348 0.999893)
(1.13594 1.37415 0.999524)
(0.750513 0.635372 1.0938)
(0.766821 0.657587 1.18411)
(0.795049 0.690134 1.25771)
(0.827119 0.738316 1.31844)
(0.862577 0.799363 1.36746)
(0.894494 0.873302 1.411)
(0.936241 0.95796 1.43823)
(0.745051 0.629569 1.04721)
(0.760087 0.646493 1.13953)
(0.780663 0.674374 1.22216)
(0.812568 0.713378 1.28797)
(0.845711 0.768898 1.34259)
(0.879536 0.835425 1.3885)
(0.915992 0.915755 1.42357)
(0.958662 1.00241 1.44468)
(1.02412 1.13267 1.44614)
(1.07946 1.21382 1.42232)
(1.13549 1.29386 1.38392)
(1.18014 1.37088 1.33239)
(1.21868 1.43776 1.26175)
(1.23937 1.49374 1.18014)
(1.25188 1.52995 1.09238)
(1.00006 1.09058 1.44718)
(1.052 1.173 1.43405)
(1.10967 1.25266 1.40238)
(1.15812 1.3324 1.35835)
(1.20098 1.40362 1.29791)
(1.23003 1.46582 1.22063)
(1.24615 1.51244 1.1366)
(1.25446 1.53634 1.04638)
(0.750072 0.635471 0.9053)
(0.766997 0.657619 0.817022)
(0.795842 0.689047 0.741259)
(0.824784 0.736772 0.679011)
(0.860106 0.797079 0.62994)
(0.893578 0.87283 0.589049)
(0.935828 0.9577 0.56229)
(0.746854 0.629877 0.952969)
(0.75824 0.646922 0.86035)
(0.782517 0.673104 0.778077)
(0.811514 0.712983 0.710243)
(0.843328 0.766575 0.65495)
(0.877399 0.833938 0.609471)
(0.915749 0.915522 0.577402)
(0.958697 1.00138 0.554594)
(1.25183 1.53007 0.907606)
(1.23951 1.494 0.819804)
(1.2186 1.43721 0.738479)
(1.1802 1.37036 0.667768)
(1.13569 1.29427 0.615155)
(1.07926 1.21419 0.577836)
(1.0255 1.13218 0.553489)
(1.25438 1.53638 0.953562)
(1.2462 1.51269 0.86338)
(1.23013 1.46579 0.779366)
(1.20089 1.40281 0.702505)
(1.15831 1.3324 0.641172)
(1.10971 1.25313 0.597105)
(1.05207 1.17314 0.566375)
(1.00244 1.08923 0.550937)
(0.567214 1.34437 1.0873)
(0.593362 1.32425 1.17548)
(0.637122 1.29163 1.25792)
(0.695601 1.24894 1.32209)
(0.758765 1.20259 1.36603)
(0.826716 1.1543 1.40369)
(0.904694 1.10492 1.42529)
(0.563176 1.34847 1.04388)
(0.580932 1.33445 1.13257)
(0.615853 1.30822 1.21867)
(0.668155 1.26971 1.2916)
(0.727674 1.22577 1.34478)
(0.794022 1.17824 1.38247)
(0.863198 1.1296 1.41399)
(0.944311 1.07768 1.43989)
(0.569134 1.34316 0.912471)
(0.590229 1.32595 0.825102)
(0.639949 1.29076 0.742864)
(0.693206 1.24993 0.675371)
(0.760081 1.20229 0.635226)
(0.827738 1.15413 0.600606)
(0.90591 1.1035 0.573713)
(0.566177 1.34656 0.955495)
(0.579344 1.33522 0.86779)
(0.615761 1.30862 0.781682)
(0.668234 1.26984 0.708059)
(0.727063 1.22614 0.654008)
(0.79546 1.17812 0.620044)
(0.863903 1.12878 0.589239)
(0.946164 1.07583 0.556478)
(0.657486 0.69151 1.0004)
(0.593562 0.765108 1.00013)
(0.546444 0.850604 0.999713)
(0.514881 0.945339 0.999836)
(0.503204 1.04622 1)
(0.505919 1.1499 0.999971)
(0.523764 1.25298 0.999672)
(0.698896 0.659702 1.00043)
(0.624725 0.728122 1.00033)
(0.569662 0.807279 0.99982)
(0.530352 0.896905 0.999705)
(0.508857 0.994683 0.999902)
(0.505168 1.09701 1)
(0.515 1.20066 0.999854)
(0.541861 1.30182 0.999625)
(0.614223 1.43611 0.999753)
(0.686563 1.50334 0.999879)
(0.776192 1.55299 1.00031)
(0.878053 1.5812 1.00052)
(0.976596 1.59368 1.00025)
(1.06974 1.59103 0.999917)
(1.16099 1.57182 0.999962)
(0.587058 1.39414 0.99979)
(0.650815 1.47038 0.999798)
(0.731774 1.5289 1.00006)
(0.828497 1.56765 1.00047)
(0.928949 1.58668 1.00042)
(1.02372 1.59119 1.00001)
(1.11476 1.58093 0.999922)
(1.20812 1.55521 0.999962)
(0.982537 1.05303 0.645498)
(0.985527 1.04879 0.593105)
(0.989846 1.05328 0.688922)
(0.984164 1.05211 1.35499)
(0.991872 1.05229 1.3122)
(0.984316 1.04991 1.40523)
(0.79424 0.711907 0.999275)
(0.82837 0.750094 0.999386)
(0.768947 0.659025 1.00012)
(1.22432 1.44229 0.999838)
(1.20211 1.39806 0.99976)
(1.24381 1.49074 0.999882)
(0.784471 1.45347 1.24898)
(0.785907 1.51035 1.1707)
(0.930521 1.29882 1.39739)
(0.976923 1.56055 1.15748)
(0.645405 1.45681 1.07754)
(0.98772 1.22613 1.4315)
(1.15438 1.549 1.13499)
(1.0685 1.53474 1.21456)
(0.690546 1.45317 1.16952)
(0.88102 1.51737 1.21417)
(0.858132 1.55648 1.11471)
(0.705881 1.3648 1.27529)
(0.973789 1.49168 1.27216)
(1.06212 1.57097 1.13009)
(0.885181 1.43974 1.30438)
(1.10694 1.58009 1.06508)
(1.0273 1.30933 1.41013)
(1.02405 1.58594 1.07376)
(0.613739 1.40189 1.12149)
(0.89956 1.19526 1.41393)
(0.832651 1.27512 1.3776)
(0.972954 1.39811 1.35512)
(1.1475 1.49108 1.2382)
(0.745558 1.52542 1.08312)
(0.639765 1.37542 1.19985)
(0.884821 1.36008 1.35788)
(1.13155 1.42949 1.3081)
(1.06116 1.4641 1.30134)
(0.595187 1.40607 1.05646)
(0.960271 1.14504 1.43872)
(1.18637 1.55969 1.05919)
(0.80433 1.37604 1.32315)
(0.756924 1.29647 1.34106)
(1.08267 1.38265 1.35857)
(0.812544 1.56045 1.05047)
(0.94331 1.58115 1.07033)
(1.00386 1.18035 1.44035)
(1.02957 1.22123 1.43152)
(0.968783 1.09673 1.44508)
(0.990128 1.14001 1.44556)
(0.974109 1.18573 1.43418)
(1.05197 1.26177 1.41722)
(1.07947 1.29892 1.39625)
(1.00806 1.26849 1.42177)
(1.10847 1.33731 1.37042)
(1.13042 1.37443 1.34358)
(1.05577 1.3452 1.38483)
(1.15563 1.39925 1.3194)
(1.17573 1.4316 1.28388)
(1.10671 1.40584 1.33354)
(1.18377 1.46266 1.24879)
(1.19227 1.49046 1.20808)
(1.14208 1.45921 1.27339)
(1.19624 1.5204 1.15809)
(1.2022 1.53758 1.11375)
(1.1504 1.5213 1.18783)
(1.21892 1.5446 1.07578)
(1.22165 1.55002 1.02983)
(1.17 1.55419 1.09714)
(1.17376 1.56564 1.02958)
(0.667376 1.48059 1.03884)
(0.629916 1.44725 1.03914)
(0.620212 1.4319 1.06751)
(0.604823 1.42161 1.02814)
(0.57748 1.37907 1.02894)
(0.761999 1.53959 1.0419)
(0.717189 1.51478 1.04189)
(0.696548 1.49143 1.08145)
(0.84639 1.57076 1.02588)
(0.794736 1.55706 1.0255)
(0.779472 1.54356 1.06701)
(0.959995 1.58697 1.03553)
(0.91191 1.58055 1.03538)
(0.881432 1.5697 1.06098)
(1.04673 1.58794 1.03719)
(1.00061 1.58858 1.03679)
(0.98426 1.58269 1.07235)
(1.13371 1.57551 1.03306)
(1.0883 1.5853 1.03221)
(1.0654 1.58254 1.0697)
(1.1457 1.56895 1.06267)
(0.738206 1.45406 1.2108)
(0.738651 1.48211 1.17161)
(0.785464 1.48282 1.21058)
(0.834409 1.51424 1.19321)
(0.833328 1.48602 1.23286)
(0.719441 1.49036 1.12677)
(0.766485 1.51849 1.12667)
(0.822573 1.53465 1.14301)
(0.870282 1.53809 1.16435)
(0.802628 1.54211 1.09949)
(0.962739 1.26409 1.41207)
(0.981453 1.30669 1.40407)
(0.947272 1.21191 1.41926)
(0.915265 1.24742 1.40436)
(0.953196 1.34822 1.37769)
(1.00202 1.35479 1.38316)
(0.881299 1.28681 1.38608)
(0.865662 1.23534 1.39584)
(0.908093 1.32879 1.37733)
(0.858966 1.31769 1.36782)
(0.929351 1.37874 1.35587)
(0.960439 1.56985 1.11358)
(1.00054 1.57234 1.11586)
(0.920206 1.55642 1.13712)
(0.902651 1.56745 1.09323)
(1.02198 1.51237 1.24519)
(0.975704 1.52774 1.21658)
(1.02229 1.5483 1.18641)
(1.01977 1.56531 1.14442)
(1.06531 1.5539 1.1722)
(1.04282 1.57808 1.10166)
(0.930867 1.53805 1.18717)
(0.92852 1.50395 1.24393)
(0.652334 1.42791 1.14679)
(0.62961 1.42994 1.09962)
(0.668862 1.45522 1.1239)
(0.604843 1.40403 1.08924)
(0.590736 1.37323 1.10541)
(0.60392 1.36351 1.14968)
(0.581169 1.37548 1.07216)
(0.616766 1.34984 1.18849)
(0.638995 1.33355 1.23125)
(0.627178 1.38916 1.16144)
(0.671772 1.32825 1.26773)
(0.702045 1.30621 1.30101)
(0.673103 1.37061 1.23926)
(0.758077 1.24933 1.35389)
(0.726195 1.27293 1.33159)
(0.73339 1.33009 1.31057)
(0.795648 1.23903 1.37075)
(0.829716 1.21488 1.38855)
(0.795418 1.28541 1.35883)
(0.861596 1.17482 1.40941)
(0.901863 1.15056 1.41832)
(0.933807 1.12557 1.43053)
(0.932661 1.17118 1.42269)
(0.745467 1.40909 1.26402)
(0.795445 1.41472 1.28859)
(0.756101 1.37062 1.30019)
(0.845204 1.40772 1.3145)
(0.83649 1.44644 1.27815)
(0.6994 1.40999 1.22559)
(0.88357 1.4791 1.26124)
(1.13006 1.5646 1.10017)
(0.780842 1.33621 1.33266)
(0.819844 1.32454 1.3512)
(0.845585 1.36781 1.34047)
(0.885784 1.39957 1.33296)
(0.836208 1.55825 1.08241)
(1.10777 1.55985 1.13378)
(1.11126 1.54113 1.17593)
(1.10771 1.51303 1.22882)
(1.08413 1.57465 1.09792)
(1.06586 1.49867 1.25959)
(1.01762 1.47824 1.28777)
(1.1059 1.47591 1.27147)
(0.665321 1.41488 1.18603)
(0.93012 1.46545 1.2886)
(0.930203 1.41791 1.32995)
(0.974405 1.44449 1.31584)
(1.01743 1.43164 1.32963)
(1.02973 1.39236 1.35909)
(1.07296 1.42327 1.33108)
(1.09671 1.44637 1.30599)
(0.638638 0.975042 1.30229)
(0.533479 1.05896 1.16411)
(0.598258 0.823835 1.16113)
(0.641499 0.764814 1.17176)
(0.563219 1.10613 1.22171)
(0.690787 1.0424 1.3443)
(0.695202 0.694336 1.1421)
(0.551527 1.26886 1.13286)
(0.846777 0.969255 1.40777)
(0.572299 1.0192 1.23243)
(0.658197 0.8137 1.25273)
(0.529214 1.16341 1.13597)
(0.627648 1.08748 1.29865)
(0.790886 0.887047 1.37247)
(0.687944 1.15376 1.3368)
(0.619649 1.17904 1.27936)
(0.706389 0.731761 1.22347)
(0.82904 1.06344 1.4074)
(0.621761 0.748149 1.09004)
(0.513094 1.03816 1.08974)
(0.763652 0.99685 1.37987)
(0.571422 1.21844 1.20531)
(0.756135 1.11008 1.37579)
(0.526178 0.94203 1.08295)
(0.721201 0.849379 1.32063)
(0.746331 0.76768 1.29165)
(0.591958 0.910151 1.2232)
(0.658883 0.889393 1.29705)
(0.786277 0.806278 1.33805)
(0.705268 0.937351 1.34026)
(0.552692 0.904939 1.13626)
(0.541403 0.977716 1.1571)
(0.688085 0.674648 1.06646)
(0.902258 1.02979 1.42902)
(0.555968 0.851001 1.06946)
(0.525743 1.24377 1.06176)
(0.509313 1.1275 1.05942)
(0.65776 0.721407 1.11615)
(0.632226 0.756505 1.13152)
(0.667427 0.729641 1.15741)
(0.692515 0.685022 1.10448)
(0.653897 0.711494 1.07875)
(0.673012 0.748678 1.19814)
(0.700599 0.712842 1.1842)
(0.723837 0.665803 1.11852)
(0.731554 0.676492 1.16355)
(0.719746 0.655578 1.08025)
(0.73688 0.695256 1.20472)
(0.874151 0.921823 1.41015)
(0.896565 0.964802 1.42228)
(0.828469 0.844113 1.37)
(0.846755 0.87987 1.39037)
(0.818653 0.926871 1.39031)
(0.921005 0.994216 1.43501)
(0.942395 1.0391 1.44237)
(0.875598 0.999586 1.4174)
(0.531681 1.11047 1.15134)
(0.54733 1.1348 1.18147)
(0.549298 1.08231 1.19401)
(0.551375 1.19099 1.17269)
(0.568739 1.16172 1.21534)
(0.595864 1.09681 1.2622)
(0.591588 1.14267 1.25184)
(0.624642 1.13283 1.28933)
(0.56828 1.06209 1.22763)
(0.599824 1.05301 1.2672)
(0.59563 1.19889 1.24465)
(0.554541 1.03882 1.1993)
(0.61982 0.794303 1.16654)
(0.610393 0.785904 1.12636)
(0.588554 0.799382 1.07999)
(0.576772 0.837469 1.11614)
(0.607082 0.756934 1.04548)
(0.638159 0.719682 1.04592)
(0.671672 0.6829 1.03364)
(0.574301 0.808285 1.03516)
(0.541487 1.21566 1.1364)
(0.562531 1.24364 1.17078)
(0.528495 1.20316 1.10028)
(0.538926 1.25648 1.09821)
(0.521177 1.09259 1.1135)
(0.519606 1.14511 1.09859)
(0.518174 1.18457 1.06159)
(0.658697 1.12054 1.31749)
(0.655054 1.16603 1.30867)
(0.690227 1.09808 1.33919)
(0.660433 1.06484 1.32158)
(0.633801 1.03114 1.29982)
(0.665888 1.0086 1.32316)
(0.605651 0.996925 1.26964)
(0.825956 0.803067 1.35289)
(0.789432 0.847108 1.35508)
(0.776172 0.941366 1.37565)
(0.803929 0.982656 1.39275)
(0.747602 0.912852 1.35551)
(0.734719 0.966885 1.36024)
(0.756631 0.868897 1.34598)
(0.753104 0.828601 1.3285)
(0.713265 0.893434 1.32964)
(0.692283 1.20109 1.32966)
(0.658887 1.21376 1.3004)
(0.723693 1.1784 1.35099)
(0.757927 1.15621 1.36998)
(0.723203 1.13164 1.35533)
(0.724216 1.07616 1.3592)
(0.630246 1.23461 1.2704)
(0.605244 1.25481 1.23363)
(0.866026 1.0841 1.41623)
(0.828092 1.10926 1.40585)
(0.793622 1.08677 1.39183)
(0.792386 1.1322 1.38902)
(0.903598 1.06762 1.42683)
(0.864582 1.04672 1.41574)
(0.836873 1.01632 1.40611)
(0.797139 1.02978 1.39262)
(0.760105 1.05386 1.37679)
(0.628793 0.819717 1.20757)
(0.650264 0.790373 1.21303)
(0.596169 0.867167 1.19281)
(0.624854 0.861704 1.23859)
(0.554215 0.877573 1.10325)
(0.575373 0.864164 1.14902)
(0.573472 0.907868 1.18043)
(0.682218 0.773788 1.23797)
(0.57301 1.29635 1.15535)
(0.559782 1.30658 1.11097)
(0.546939 1.29407 1.07639)
(0.542478 1.29755 1.03088)
(0.583876 1.27079 1.19291)
(0.697754 0.989498 1.34203)
(0.672669 0.956243 1.32102)
(0.614158 0.941803 1.26588)
(0.582891 0.964187 1.22838)
(0.648824 0.932028 1.29955)
(0.62416 0.899608 1.26271)
(0.6832 0.913588 1.31766)
(0.714096 0.650093 1.03358)
(0.551393 0.850797 1.03471)
(0.535176 0.896481 1.0347)
(0.508634 1.04161 1.04476)
(0.514735 0.990412 1.04494)
(0.520739 0.943155 1.04125)
(0.541234 0.89562 1.07635)
(0.519567 0.989028 1.08688)
(0.507686 1.13851 1.02978)
(0.506642 1.086 1.02975)
(0.511657 1.08201 1.07501)
(0.524597 1.2485 1.0309)
(0.516347 1.19599 1.03147)
(0.750888 0.71241 1.24125)
(0.787968 0.753081 1.30523)
(0.771906 0.729572 1.27521)
(0.726922 0.750428 1.25837)
(0.807684 0.772411 1.32877)
(0.767252 0.786853 1.31462)
(0.72768 1.01991 1.36157)
(0.701288 0.791645 1.27261)
(0.537771 1.01771 1.16119)
(0.558687 0.998305 1.19553)
(0.568424 0.943723 1.19064)
(0.733738 0.808755 1.30605)
(0.689613 0.830485 1.28835)
(0.658397 0.850874 1.27613)
(0.690233 0.869427 1.30834)
(0.526163 1.00725 1.12481)
(0.522872 1.04824 1.1278)
(0.539276 0.923242 1.11)
(0.533564 0.95955 1.12105)
(0.547434 0.940911 1.14701)
(0.634629 0.869635 0.738401)
(0.59781 1.07815 0.732329)
(0.6355 0.8166 0.780784)
(0.637748 0.766853 0.835364)
(0.525875 1.11792 0.858306)
(0.741283 1.00729 0.630054)
(0.538848 1.21677 0.857125)
(0.820542 1.05787 0.595416)
(0.596955 0.893836 0.780355)
(0.55224 1.05002 0.800632)
(0.744792 0.849702 0.666956)
(0.623831 1.1785 0.719062)
(0.664823 1.03128 0.673132)
(0.598751 0.966453 0.741396)
(0.709221 0.947915 0.658715)
(0.559558 1.14437 0.791397)
(0.741249 1.10107 0.62989)
(0.698829 0.733201 0.787299)
(0.846156 0.969342 0.591209)
(0.689284 0.695067 0.867062)
(0.563666 0.81912 0.940476)
(0.516752 1.02522 0.898094)
(0.535341 0.907001 0.914889)
(0.620077 0.742741 0.919677)
(0.583229 1.23132 0.781673)
(0.554569 0.948527 0.828286)
(0.702572 0.796343 0.718805)
(0.583676 0.838783 0.853062)
(0.679496 1.14526 0.663877)
(0.511825 1.15944 0.935955)
(0.788631 0.90243 0.624871)
(0.686659 0.674899 0.937777)
(0.540803 1.27784 0.918759)
(0.663082 0.906648 0.69247)
(0.637558 1.10818 0.693735)
(0.900056 1.02837 0.570491)
(0.598195 0.929689 0.760362)
(0.616831 0.917671 0.739506)
(0.616345 0.881681 0.759287)
(0.63587 0.843151 0.759618)
(0.616557 0.855091 0.780469)
(0.647647 0.887492 0.713781)
(0.630436 0.936272 0.715943)
(0.669026 0.806151 0.74889)
(0.66786 0.832863 0.727927)
(0.68168 0.851397 0.705264)
(0.792507 0.987774 0.61168)
(0.781508 1.03182 0.6133)
(0.832081 1.0137 0.594143)
(0.740954 1.05406 0.630274)
(0.781807 1.07931 0.613727)
(0.816763 0.934647 0.606844)
(0.764914 0.954985 0.628576)
(0.725808 0.977572 0.644443)
(0.687014 0.989632 0.666692)
(0.70371 1.01948 0.652205)
(0.702793 1.06605 0.651194)
(0.749624 0.925975 0.643528)
(0.902916 1.06607 0.571725)
(0.942351 1.03737 0.555653)
(0.919679 0.993436 0.565168)
(0.549769 1.1809 0.821881)
(0.542959 1.13142 0.823121)
(0.533004 1.16682 0.856183)
(0.572283 1.18745 0.785494)
(0.56094 1.22471 0.817407)
(0.525956 1.18749 0.895214)
(0.519145 1.13844 0.89634)
(0.587463 1.2785 0.801089)
(0.565827 1.27106 0.83799)
(0.540026 1.24727 0.887118)
(0.565927 1.30229 0.869547)
(0.526644 1.2177 0.925752)
(0.858582 1.04319 0.585385)
(0.873848 0.999075 0.582347)
(0.785308 1.12739 0.616841)
(0.824011 1.10611 0.598569)
(0.861299 1.08075 0.585931)
(0.575922 0.921248 0.803782)
(0.577842 0.957454 0.783866)
(0.610449 0.8281 0.816091)
(0.591273 0.866849 0.815796)
(0.569387 0.893405 0.840123)
(0.873285 0.921573 0.589726)
(0.895915 0.964826 0.578056)
(0.84367 0.886925 0.606752)
(0.598852 1.02185 0.736458)
(0.576603 1.00786 0.769987)
(0.574886 1.06366 0.76509)
(0.554326 0.998271 0.813658)
(0.556632 1.09654 0.79509)
(0.539633 1.08385 0.827784)
(0.579836 1.11058 0.760644)
(0.534549 1.03778 0.847335)
(0.522045 1.0706 0.87728)
(0.535752 0.98628 0.861519)
(0.68702 0.927743 0.676671)
(0.727197 0.898907 0.664133)
(0.704301 0.878896 0.680506)
(0.768371 0.876315 0.647482)
(0.803548 0.824844 0.650027)
(0.78505 0.795153 0.673479)
(0.723266 0.823574 0.69175)
(0.76446 0.769899 0.700633)
(0.825439 0.850868 0.627865)
(0.612056 1.128 0.725469)
(0.592935 1.16115 0.754176)
(0.605809 1.20433 0.749233)
(0.658929 1.21423 0.697234)
(0.634127 1.23381 0.729498)
(0.612893 1.26069 0.761287)
(0.651579 1.16206 0.690308)
(0.687088 1.19732 0.669452)
(0.631063 1.14309 0.705826)
(0.618808 1.09286 0.712771)
(0.658539 1.12679 0.678467)
(0.632242 1.05476 0.702072)
(0.632231 0.998864 0.706534)
(0.665685 0.969265 0.684831)
(0.711416 1.12304 0.647525)
(0.672357 1.08797 0.66888)
(0.651526 1.06961 0.683387)
(0.751067 1.15169 0.633645)
(0.720023 1.17406 0.649842)
(0.666613 0.775115 0.783728)
(0.667884 0.750462 0.810953)
(0.636978 0.792086 0.807507)
(0.66293 0.730998 0.850767)
(0.694167 0.714974 0.826493)
(0.733846 0.69652 0.801627)
(0.747989 0.712448 0.763412)
(0.728577 0.677625 0.841887)
(0.701994 0.764579 0.752357)
(0.750034 0.745294 0.730249)
(0.515113 1.09061 0.915859)
(0.610924 0.802539 0.844048)
(0.65418 0.719075 0.893199)
(0.628921 0.755087 0.876694)
(0.601674 0.790166 0.885576)
(0.555207 1.31049 0.914805)
(0.551665 1.31388 0.958996)
(0.605791 0.752644 0.959702)
(0.638198 0.716841 0.959726)
(0.67155 0.68292 0.969107)
(0.714361 0.650559 0.969039)
(0.652429 0.708936 0.928504)
(0.554405 0.834138 0.969994)
(0.577936 0.791068 0.969821)
(0.591471 0.779935 0.929851)
(0.523762 0.925067 0.957274)
(0.53916 0.877161 0.956896)
(0.549289 0.86229 0.927478)
(0.515076 0.984008 0.948887)
(0.509399 1.03488 0.94906)
(0.526258 0.96505 0.905886)
(0.508837 1.1545 0.967839)
(0.508024 1.10147 0.967844)
(0.518265 1.20535 0.96737)
(0.533089 1.26506 0.958542)
(0.718889 0.655724 0.921382)
(0.719787 0.66597 0.885657)
(0.687961 0.68483 0.901847)
(0.573474 0.828757 0.896186)
(0.559479 0.872047 0.883455)
(0.545819 0.928037 0.870533)
(0.822065 1.51912 0.821304)
(0.760055 1.46161 0.777575)
(1.07299 1.56197 0.845739)
(0.863506 1.35744 0.643089)
(0.626082 1.41898 0.885629)
(1.16481 1.5462 0.866733)
(0.982228 1.235 0.568859)
(0.970033 1.3487 0.618071)
(0.711816 1.48974 0.869228)
(0.848657 1.45359 0.723459)
(0.757386 1.38069 0.701815)
(0.812328 1.55445 0.920075)
(0.951323 1.45103 0.686943)
(0.905469 1.28378 0.603667)
(0.92751 1.51767 0.774772)
(0.89728 1.19722 0.587345)
(1.13869 1.51187 0.784661)
(0.840821 1.25269 0.615155)
(0.649177 1.46312 0.939644)
(1.11175 1.5788 0.933952)
(1.00374 1.5856 0.914671)
(1.03423 1.51288 0.749483)
(1.05126 1.32049 0.600528)
(0.672344 1.39613 0.782347)
(0.718616 1.51847 0.945235)
(0.989377 1.55653 0.828492)
(1.09982 1.38058 0.646033)
(1.03546 1.42132 0.658245)
(0.599826 1.40554 0.944725)
(1.18932 1.55876 0.940897)
(0.961124 1.14546 0.559753)
(0.905925 1.55876 0.862904)
(0.916142 1.58191 0.938828)
(1.12193 1.44265 0.699024)
(0.687616 1.33332 0.719839)
(0.779453 1.2925 0.646333)
(1.17521 1.56508 0.970439)
(1.22312 1.54966 0.970191)
(1.22039 1.54427 0.924262)
(0.767439 1.50526 0.843622)
(0.735976 1.47699 0.822612)
(0.79142 1.49099 0.798536)
(0.805845 1.45751 0.74929)
(0.836729 1.48721 0.770881)
(0.818029 1.53689 0.870801)
(0.763846 1.52303 0.893449)
(0.888945 1.48505 0.748011)
(0.876799 1.51802 0.797179)
(0.865146 1.53876 0.841294)
(0.860674 1.55566 0.89097)
(0.917258 1.53959 0.8187)
(0.632752 1.44965 0.969256)
(0.668576 1.4839 0.969634)
(0.580486 1.37835 0.971406)
(0.607664 1.42101 0.972249)
(0.624818 1.43462 0.941803)
(0.703042 1.51125 0.972451)
(0.748025 1.53644 0.972482)
(0.684048 1.4914 0.942104)
(0.795012 1.55455 0.960209)
(0.846127 1.56859 0.959895)
(0.766134 1.53746 0.932199)
(0.946983 1.58801 0.969303)
(0.897523 1.58186 0.969641)
(0.866001 1.56772 0.928806)
(0.990366 1.58931 0.957575)
(1.03684 1.58701 0.956674)
(0.960924 1.58289 0.926619)
(1.09077 1.58443 0.967315)
(1.13612 1.57471 0.966513)
(1.05788 1.58104 0.923514)
(1.14955 1.56776 0.936913)
(0.970504 1.0959 0.551606)
(0.93548 1.12475 0.56753)
(0.991368 1.13996 0.552593)
(0.60819 1.3734 0.853718)
(0.598022 1.38135 0.897616)
(0.613731 1.41212 0.914749)
(0.585075 1.37429 0.928199)
(0.631961 1.3611 0.801701)
(0.648431 1.40911 0.832804)
(0.681057 1.47667 0.904131)
(0.638528 1.44115 0.912585)
(0.669066 1.455 0.876126)
(0.692392 1.44448 0.824084)
(1.11822 1.55319 0.854733)
(1.10509 1.53779 0.813579)
(1.15127 1.52917 0.82544)
(1.1878 1.50047 0.803075)
(1.20188 1.51955 0.843033)
(1.13761 1.56278 0.899933)
(1.17686 1.55259 0.903765)
(1.09201 1.57003 0.889436)
(1.20778 1.53677 0.887246)
(0.65644 1.34364 0.759993)
(0.691207 1.29121 0.696286)
(0.664253 1.3119 0.730929)
(0.680834 1.36483 0.749479)
(0.770353 1.24716 0.641427)
(0.736073 1.27172 0.660436)
(0.733834 1.31335 0.679121)
(0.834739 1.20369 0.608754)
(0.801482 1.22738 0.627393)
(0.811723 1.27197 0.632494)
(0.902115 1.15039 0.582983)
(0.861359 1.17578 0.594313)
(0.868122 1.2252 0.60062)
(0.932355 1.17201 0.577529)
(0.960746 1.39832 0.651581)
(0.907986 1.40342 0.664154)
(0.916773 1.35238 0.632101)
(0.885656 1.31989 0.623892)
(0.938312 1.31659 0.61136)
(0.872793 1.26851 0.609522)
(0.85266 1.30492 0.628768)
(0.821709 1.32526 0.645359)
(0.803651 1.41715 0.711562)
(0.811977 1.36837 0.671413)
(0.856869 1.40529 0.680336)
(0.900973 1.45108 0.705211)
(0.768523 1.33648 0.670659)
(0.71629 1.42915 0.778382)
(0.760012 1.42099 0.737657)
(0.716471 1.38859 0.739807)
(0.946336 1.26048 0.589039)
(0.979274 1.2932 0.594099)
(1.01752 1.2791 0.582271)
(1.01263 1.33665 0.607887)
(0.901196 1.24111 0.595012)
(0.942947 1.21683 0.58075)
(0.972032 1.19042 0.56597)
(1.02672 1.22639 0.567872)
(1.06534 1.26747 0.588614)
(1.0021 1.18468 0.559292)
(1.00307 1.3844 0.637465)
(0.994083 1.43701 0.671999)
(1.0439 1.37024 0.628632)
(0.716568 1.50425 0.907357)
(0.940083 1.48348 0.729473)
(0.722127 1.35747 0.71018)
(0.911339 1.56949 0.90093)
(0.980572 1.51393 0.761481)
(0.994141 1.48233 0.716414)
(1.03806 1.46869 0.70053)
(1.01086 1.53407 0.788698)
(0.958791 1.53683 0.800886)
(0.9486 1.55729 0.845446)
(1.08066 1.47984 0.720348)
(1.13309 1.47673 0.741008)
(1.08751 1.51222 0.764705)
(1.17016 1.4368 0.720247)
(1.17966 1.4725 0.762393)
(1.05319 1.53669 0.796966)
(1.07912 1.43223 0.676919)
(1.11092 1.41111 0.672331)
(1.06792 1.40088 0.650846)
(1.15057 1.40432 0.684585)
(1.13967 1.37381 0.658516)
(1.03818 1.57384 0.880437)
(0.996578 1.57127 0.871677)
(0.956007 1.57101 0.887985)
(1.03131 1.55889 0.836462)
(1.07559 1.35006 0.622899)
(1.09228 1.30552 0.609077)
(1.1178 1.337 0.631296)
(0.878668 0.987231 1.20188)
(0.807059 0.892865 1.08728)
(0.730323 1.0061 1.06216)
(0.862883 1.06301 1.20454)
(0.702595 1.11046 1.0551)
(0.815194 1.02459 1.16441)
(0.851248 0.928501 1.15455)
(0.77734 0.988249 1.11366)
(0.751361 1.08661 1.1109)
(0.925436 1.03343 1.23185)
(0.767003 0.910388 1.03732)
(0.808765 1.10434 1.15933)
(0.742171 1.15386 1.09426)
(0.816266 0.845599 1.03807)
(0.714522 1.18411 1.04782)
(0.723486 1.21353 1.02413)
(0.732204 1.20493 1.05795)
(0.745624 1.18953 1.08094)
(0.768432 1.172 1.10784)
(0.727749 1.16839 1.07073)
(0.831375 0.91031 1.11828)
(0.815901 0.957591 1.13405)
(0.793804 0.941682 1.10006)
(0.771633 0.950249 1.07354)
(0.754612 0.997139 1.08595)
(0.750914 0.959477 1.04898)
(0.787705 0.901419 1.06167)
(0.812311 0.869526 1.06208)
(0.792446 0.878419 1.03768)
(0.874127 0.886948 1.13799)
(0.854301 0.866787 1.10388)
(0.84358 0.847482 1.07363)
(0.847161 0.822584 1.04934)
(0.741641 1.04654 1.08434)
(0.72782 1.09787 1.08047)
(0.7172 1.05756 1.05659)
(0.696771 1.08492 1.0264)
(0.713859 1.0328 1.03061)
(0.7464 1.11974 1.10145)
(0.722354 1.13197 1.07366)
(0.696763 1.1336 1.02803)
(0.707656 1.14684 1.05108)
(0.703223 1.17061 1.02363)
(0.922294 0.981579 1.21536)
(0.943801 1.00448 1.23298)
(0.902553 1.01056 1.2167)
(0.964806 1.04296 1.248)
(0.895134 1.04838 1.21919)
(0.870865 1.02505 1.20359)
(0.929205 1.067 1.23425)
(0.898217 1.08215 1.22106)
(0.834068 0.976961 1.16115)
(0.796832 1.00648 1.13779)
(0.764982 1.03768 1.11112)
(0.78522 1.05534 1.13501)
(0.779798 0.890329 1.01829)
(0.750194 0.937462 1.01773)
(0.804285 0.858127 1.01866)
(0.732588 0.985799 1.02987)
(0.902837 0.947417 1.19318)
(0.865183 0.958498 1.1783)
(0.847776 1.00531 1.18444)
(0.88867 0.916728 1.16994)
(0.839687 1.04342 1.18465)
(0.861298 1.10551 1.19664)
(0.801864 1.14764 1.14019)
(0.83417 1.12622 1.1735)
(0.837172 1.08325 1.18226)
(0.775878 1.12814 1.12154)
(0.843842 0.817299 1.01885)
(0.780904 1.09497 1.13306)
(0.812128 1.06443 1.16172)
(0.819575 1.27299 1.09872)
(1.07811 1.35 1.11532)
(1.02852 1.37706 1.06028)
(1.03087 1.3055 1.16099)
(0.95068 1.27878 1.16885)
(1.01065 1.21404 1.21965)
(0.98454 1.34045 1.12244)
(0.937147 1.3639 1.06699)
(0.93441 1.18827 1.2118)
(1.11405 1.37418 1.05485)
(0.901152 1.317 1.11839)
(0.876956 1.24705 1.15801)
(0.843158 1.32877 1.05875)
(0.781308 1.28388 1.04819)
(0.987519 1.13813 1.25026)
(0.983919 1.37039 1.0633)
(1.00741 1.35923 1.09175)
(0.961678 1.35261 1.0945)
(0.919352 1.34091 1.09317)
(0.943021 1.32957 1.12045)
(1.03229 1.34398 1.11749)
(1.05473 1.32827 1.13854)
(1.00922 1.32317 1.1406)
(1.05459 1.36358 1.0873)
(0.991995 1.29113 1.16333)
(0.96854 1.31054 1.14527)
(0.926881 1.29949 1.14357)
(0.765705 1.25492 1.05853)
(0.757115 1.2628 1.02342)
(0.807195 1.23204 1.10994)
(0.784908 1.24859 1.08209)
(0.800022 1.278 1.07309)
(1.11426 1.32549 1.14048)
(1.12784 1.34808 1.10282)
(1.0968 1.36264 1.08573)
(1.14598 1.35915 1.0715)
(1.14966 1.36834 1.02749)
(1.03168 1.17979 1.24605)
(1.05517 1.22375 1.22693)
(1.0664 1.26836 1.19237)
(1.08794 1.3033 1.16521)
(1.02101 1.25999 1.18692)
(1.01958 1.14039 1.25994)
(0.995076 1.09581 1.26129)
(0.999221 1.17556 1.23607)
(0.896089 1.16893 1.20156)
(0.933966 1.14359 1.2266)
(0.963063 1.16183 1.22989)
(0.961056 1.11873 1.2431)
(0.905963 1.21843 1.18419)
(0.867363 1.19792 1.17203)
(0.974251 1.1991 1.21384)
(0.942622 1.23358 1.18757)
(0.913532 1.26407 1.16406)
(0.982904 1.24434 1.18875)
(0.789182 1.29848 1.02434)
(0.836379 1.21868 1.13967)
(0.849199 1.25974 1.12536)
(0.831361 1.30053 1.07893)
(0.812115 1.30558 1.05259)
(0.872394 1.32215 1.08724)
(0.860512 1.29477 1.1068)
(0.889902 1.28292 1.13711)
(1.10032 1.38019 1.02708)
(1.07148 1.37492 1.05727)
(1.05756 1.3812 1.03022)
(0.819997 1.32106 1.02897)
(0.862314 1.34661 1.03023)
(0.960753 1.3751 1.03392)
(0.909531 1.3639 1.0335)
(0.889788 1.34667 1.06233)
(1.0063 1.38126 1.03006)
(0.933386 1.20442 0.794369)
(1.09883 1.34284 0.873459)
(0.882763 1.33174 0.916914)
(1.02061 1.21753 0.775709)
(0.902569 1.28862 0.859813)
(1.00382 1.3418 0.875522)
(0.866755 1.2105 0.832578)
(0.981338 1.27909 0.824282)
(0.820765 1.26138 0.893396)
(1.05304 1.29579 0.822643)
(1.07544 1.37608 0.938363)
(0.988647 1.14154 0.751752)
(0.962505 1.37324 0.943681)
(0.802115 1.3008 0.951805)
(0.7856 1.2435 0.913762)
(0.807288 1.22668 0.885202)
(0.767798 1.27091 0.976741)
(0.77689 1.26305 0.942109)
(0.811449 1.28065 0.922751)
(0.844376 1.23585 0.866869)
(0.830908 1.20059 0.855773)
(0.862104 1.17947 0.822001)
(0.932448 1.15149 0.776937)
(0.963061 1.17203 0.774144)
(0.960795 1.12028 0.758979)
(1.0048 1.17885 0.762743)
(0.979126 1.20921 0.787276)
(0.942213 1.28493 0.842471)
(0.957777 1.2419 0.811046)
(0.919365 1.24782 0.830302)
(1.00229 1.24791 0.803101)
(0.89529 1.17618 0.801199)
(0.900344 1.20748 0.812863)
(0.885254 1.25003 0.848122)
(0.799764 1.30689 0.975526)
(0.862605 1.27389 0.878989)
(0.852611 1.29583 0.905993)
(0.893723 1.31017 0.889432)
(0.842479 1.31517 0.935813)
(0.995175 1.09741 0.74031)
(1.02033 1.14183 0.741528)
(1.03701 1.1807 0.75293)
(1.03065 1.31914 0.851644)
(1.01789 1.28666 0.824675)
(0.993684 1.31156 0.850564)
(1.03673 1.25745 0.800503)
(0.953668 1.31655 0.867711)
(1.07638 1.32026 0.847684)
(1.05164 1.34139 0.875862)
(1.12489 1.3214 0.853227)
(1.10019 1.2984 0.825914)
(1.07817 1.26385 0.797604)