/*--------------------------------*- C++ -*----------------------------------*\
| =========                 |                                                 |
| \\      /  F ield         | OpenFOAM: The Open Source CFD Toolbox           |
|  \\    /   O peration     | Version:  v1806                                 |
|   \\  /    A nd           | Web:      www.OpenFOAM.com                      |
|    \\/     M anipulation  |                                                 |
\*---------------------------------------------------------------------------*/
FoamFile
{
    version     2.0;
    format      ascii;
    class       volScalarField;
    location    "0.073";
    object      p;
}
// * * * * * * * * * * * * * * * * * * * * * * * * * * * * * * * * * * * * * //

dimensions      [0 2 -2 0 0 0 0];


internalField   nonuniform List<scalar> 
64000
(
8.73292e-06
-0.104831
-0.238632
-0.317193
-0.37721
-0.422293
-0.467791
-0.506936
-0.539687
-0.583939
-0.597852
-0.652099
-0.665988
-0.712713
-0.709626
-0.755924
-0.700373
-0.779389
-0.633458
-0.852095
-0.53577
-0.750496
-0.61561
-0.692162
-0.539449
-0.504842
-0.368915
-0.309023
-0.24904
-0.234586
-0.235639
-0.251902
-0.312123
-0.340307
-0.387808
-0.389802
-0.416308
-0.409121
-0.421583
-0.414991
-0.107423
-0.213392
-0.285887
-0.338892
-0.387675
-0.425721
-0.461336
-0.499386
-0.530085
-0.568433
-0.588053
-0.621449
-0.62677
-0.64939
-0.639097
-0.662629
-0.66479
-0.731305
-0.59415
-0.765902
-0.477035
-0.664411
-0.566273
-0.622865
-0.465777
-0.433371
-0.311911
-0.266017
-0.215384
-0.2045
-0.226683
-0.214375
-0.28274
-0.303862
-0.353088
-0.358821
-0.386625
-0.389297
-0.40918
-0.408619
-0.254595
-0.292838
-0.333674
-0.3659
-0.408369
-0.432724
-0.473999
-0.49993
-0.529318
-0.564444
-0.589871
-0.63231
-0.648874
-0.708849
-0.726598
-0.782022
-0.742967
-0.820302
-0.700796
-0.906105
-0.680229
-0.902569
-0.875334
-0.975986
-0.864275
-0.859361
-0.76245
-0.713615
-0.639843
-0.571866
-0.535858
-0.48146
-0.48166
-0.430823
-0.432097
-0.410662
-0.419896
-0.413405
-0.42533
-0.42399
-0.335154
-0.348441
-0.368092
-0.392376
-0.408212
-0.438367
-0.466146
-0.501737
-0.550867
-0.595245
-0.62727
-0.693626
-0.745217
-0.812963
-0.836629
-0.889737
-0.890653
-0.991494
-0.910491
-1.13904
-0.954805
-1.18522
-1.21824
-1.33859
-1.25591
-1.25803
-1.16111
-1.09889
-0.999143
-0.89685
-0.806468
-0.689841
-0.62492
-0.546313
-0.501196
-0.459038
-0.465231
-0.442262
-0.448582
-0.448007
-0.389939
-0.390166
-0.41711
-0.411287
-0.453535
-0.467908
-0.525519
-0.552604
-0.615466
-0.675483
-0.763258
-0.878416
-0.944169
-1.02564
-1.0727
-1.15157
-1.16406
-1.26268
-1.18687
-1.4245
-1.27562
-1.49737
-1.55104
-1.67934
-1.61384
-1.612
-1.51561
-1.43588
-1.3282
-1.20329
-1.08006
-0.945004
-0.810992
-0.691426
-0.589472
-0.526562
-0.498991
-0.482051
-0.482561
-0.481446
-0.436044
-0.441005
-0.436733
-0.474126
-0.46499
-0.511371
-0.544347
-0.653725
-0.782193
-0.923288
-1.03459
-1.11265
-1.18293
-1.25293
-1.29301
-1.38116
-1.35972
-1.49016
-1.42424
-1.62665
-1.51302
-1.70729
-1.78403
-1.88296
-1.82388
-1.81233
-1.71126
-1.63418
-1.5097
-1.39309
-1.24962
-1.10204
-0.958485
-0.842571
-0.705345
-0.589063
-0.553631
-0.525506
-0.524746
-0.526548
-0.492906
-0.47538
-0.512023
-0.561135
-0.649494
-0.684888
-0.837982
-0.952138
-1.07527
-1.16171
-1.26228
-1.35735
-1.43765
-1.51991
-1.5644
-1.62929
-1.63855
-1.71514
-1.66971
-1.84496
-1.79827
-1.86687
-1.9457
-2.01853
-1.96545
-1.94549
-1.8544
-1.77646
-1.66774
-1.54914
-1.4038
-1.24912
-1.06739
-0.924128
-0.783221
-0.639711
-0.585186
-0.561423
-0.561761
-0.56759
-0.539555
-0.527173
-0.568015
-0.641109
-0.730079
-0.820091
-1.02346
-1.07751
-1.24185
-1.35559
-1.48134
-1.57834
-1.66975
-1.73713
-1.79243
-1.85382
-1.85255
-1.92268
-1.87509
-1.98275
-1.99086
-1.97586
-2.03618
-2.0988
-2.05529
-2.0319
-1.94821
-1.88164
-1.7797
-1.67778
-1.53972
-1.38221
-1.21256
-1.03684
-0.912752
-0.723612
-0.650644
-0.615915
-0.615523
-0.625987
-0.580935
-0.562168
-0.632031
-0.723954
-0.854026
-1.00988
-1.16701
-1.28916
-1.41915
-1.55665
-1.68044
-1.78373
-1.87845
-1.95371
-2.01479
-2.06844
-2.08119
-2.11475
-2.08303
-2.09839
-2.14419
-2.08953
-2.09616
-2.15377
-2.12391
-2.0993
-2.02796
-1.96314
-1.88602
-1.78938
-1.65762
-1.49924
-1.32889
-1.12861
-0.984265
-0.812751
-0.69472
-0.665401
-0.661055
-0.677379
-0.665372
-0.649097
-0.725857
-0.840704
-0.989387
-1.16961
-1.3205
-1.44601
-1.59548
-1.70952
-1.85583
-1.95252
-2.04784
-2.11931
-2.17479
-2.22673
-2.24173
-2.26427
-2.23378
-2.22175
-2.2416
-2.21991
-2.11243
-2.19342
-2.1671
-2.15479
-2.08805
-2.04527
-1.97419
-1.88405
-1.77427
-1.61959
-1.44792
-1.25744
-1.09742
-0.925671
-0.788482
-0.742165
-0.73159
-0.751507
-0.715276
-0.703616
-0.801165
-0.929001
-1.13757
-1.28976
-1.46134
-1.60441
-1.75428
-1.88258
-2.00018
-2.0909
-2.20418
-2.25969
-2.31589
-2.34784
-2.36499
-2.38027
-2.3316
-2.32266
-2.30361
-2.27552
-2.11924
-2.21814
-2.18654
-2.20334
-2.13753
-2.11623
-2.05159
-1.98056
-1.86555
-1.72971
-1.55062
-1.34486
-1.15599
-1.01222
-0.856113
-0.796705
-0.786241
-0.808333
-0.847439
-0.838199
-0.935183
-1.10099
-1.28459
-1.45357
-1.62035
-1.76429
-1.91354
-2.02628
-2.14593
-2.2314
-2.30019
-2.3708
-2.41413
-2.44265
-2.46244
-2.47047
-2.42547
-2.41727
-2.37364
-2.32264
-2.10921
-2.21106
-2.20434
-2.22292
-2.19133
-2.16785
-2.12607
-2.05968
-1.96617
-1.8174
-1.66308
-1.47714
-1.27313
-1.11308
-0.956487
-0.895461
-0.869729
-0.897358
-0.890912
-0.884672
-1.00843
-1.169
-1.37059
-1.54002
-1.72163
-1.86361
-2.01637
-2.13183
-2.25466
-2.33236
-2.42522
-2.45551
-2.52128
-2.52782
-2.5548
-2.54404
-2.52286
-2.48851
-2.43461
-2.33217
-1.99242
-2.11894
-2.17091
-2.23243
-2.22369
-2.22424
-2.18602
-2.13748
-2.03819
-1.93971
-1.77756
-1.60309
-1.38507
-1.21281
-1.03222
-0.958584
-0.930156
-0.954976
-1.07895
-1.07789
-1.18825
-1.34978
-1.53511
-1.71428
-1.87894
-2.01761
-2.15101
-2.25501
-2.35932
-2.4318
-2.49145
-2.53811
-2.56317
-2.59601
-2.62416
-2.62743
-2.6009
-2.54991
-2.52013
-2.19897
-2.02046
-2.08084
-2.17083
-2.24731
-2.26159
-2.26822
-2.2398
-2.19093
-2.14228
-2.03331
-1.89509
-1.71818
-1.53051
-1.33751
-1.1696
-1.07501
-1.04209
-1.07464
-1.07649
-1.07855
-1.20052
-1.35999
-1.56032
-1.74165
-1.91028
-2.0412
-2.18184
-2.28273
-2.40044
-2.48407
-2.57093
-2.61738
-2.65708
-2.67573
-2.70158
-2.6536
-2.6697
-2.63876
-2.41612
-2.15296
-2.07288
-2.09762
-2.1318
-2.25579
-2.28398
-2.3029
-2.29482
-2.28089
-2.21715
-2.12745
-1.99611
-1.83712
-1.64003
-1.44578
-1.26962
-1.13491
-1.0962
-1.11973
-1.30869
-1.30484
-1.41058
-1.55982
-1.73929
-1.91038
-2.06382
-2.19038
-2.31394
-2.41308
-2.51761
-2.58109
-2.64092
-2.66471
-2.6761
-2.67205
-2.70321
-2.69782
-2.71915
-2.47187
-2.30173
-2.20374
-2.14643
-2.11917
-2.13123
-2.22393
-2.27363
-2.3127
-2.33144
-2.31206
-2.27623
-2.20999
-2.11657
-1.98151
-1.8114
-1.62583
-1.44496
-1.35189
-1.26244
-1.29699
-1.18531
-1.20663
-1.32482
-1.48575
-1.6816
-1.87151
-2.03153
-2.14678
-2.25352
-2.34051
-2.44377
-2.54326
-2.64261
-2.71831
-2.75817
-2.76891
-2.70658
-2.60746
-2.50722
-2.35801
-2.29546
-2.23678
-2.19122
-2.15257
-2.14345
-2.16762
-2.28328
-2.34173
-2.37509
-2.36098
-2.31797
-2.24928
-2.15169
-2.02225
-1.86054
-1.68135
-1.49349
-1.36755
-1.27537
-1.32018
-1.4044
-1.39923
-1.48475
-1.61242
-1.77612
-1.93411
-2.10382
-2.23691
-2.3737
-2.48963
-2.60675
-2.66666
-2.69406
-2.65996
-2.58475
-2.47702
-2.42479
-2.32084
-2.31032
-2.25872
-2.27006
-2.23766
-2.22049
-2.18065
-2.15846
-2.15728
-2.20511
-2.26675
-2.31905
-2.33813
-2.35605
-2.3536
-2.34037
-2.26485
-2.14865
-1.9665
-1.78249
-1.63667
-1.5283
-1.53068
-1.10558
-1.11613
-1.21369
-1.35274
-1.5573
-1.74158
-1.93178
-2.02763
-2.05226
-2.07034
-2.0917
-2.12203
-2.17619
-2.2545
-2.30037
-2.36022
-2.37913
-2.35454
-2.3439
-2.30649
-2.26667
-2.25453
-2.23059
-2.21421
-2.19206
-2.19231
-2.22381
-2.27343
-2.34729
-2.32928
-2.2726
-2.19303
-2.09416
-1.99657
-1.924
-1.80062
-1.71556
-1.53545
-1.5642
-1.59664
-1.2843
-1.22415
-1.26118
-1.31731
-1.43539
-1.54584
-1.68323
-1.83711
-2.00329
-2.1406
-2.25986
-2.32818
-2.37682
-2.40934
-2.42178
-2.4129
-2.40337
-2.38499
-2.34684
-2.32512
-2.30501
-2.25655
-2.27005
-2.23046
-2.22368
-2.20063
-2.21325
-2.17602
-2.12617
-2.19182
-2.3593
-2.5299
-2.65403
-2.63044
-2.54782
-2.36336
-2.13728
-1.97409
-1.58823
-1.60236
-1.16505
-1.16857
-1.2114
-1.29888
-1.44586
-1.58424
-1.73826
-1.86672
-2.00005
-2.11294
-2.21207
-2.29099
-2.35637
-2.41062
-2.44188
-2.46697
-2.4508
-2.42234
-2.4124
-2.34706
-2.33101
-2.30571
-2.26174
-2.25311
-2.23697
-2.22956
-2.23311
-2.21861
-2.1913
-2.1277
-2.06186
-1.934
-1.93422
-1.97473
-2.09218
-2.10202
-2.14775
-2.08303
-2.14787
-2.03182
-1.26578
-1.2568
-1.28658
-1.34643
-1.4621
-1.58351
-1.72715
-1.87654
-2.03056
-2.16785
-2.285
-2.36426
-2.43169
-2.48022
-2.51179
-2.51471
-2.50624
-2.47511
-2.45448
-2.40648
-2.38373
-2.32348
-2.32411
-2.27101
-2.28616
-2.25422
-2.26388
-2.23737
-2.24127
-2.19941
-2.20828
-2.15717
-2.13531
-1.95176
-1.75255
-1.51886
-1.3473
-1.20587
-1.12832
-1.15613
-1.23276
-1.24097
-1.27711
-1.34604
-1.46992
-1.59744
-1.74427
-1.90024
-2.04813
-2.19098
-2.30432
-2.40017
-2.47482
-2.52611
-2.56339
-2.56895
-2.56981
-2.51471
-2.50737
-2.44558
-2.42123
-2.36885
-2.34183
-2.3223
-2.29969
-2.28513
-2.28474
-2.25245
-2.25061
-2.19833
-2.18708
-2.08515
-2.03408
-1.89457
-1.83617
-1.67942
-1.58897
-1.44394
-1.44729
-1.60944
-1.28267
-1.26237
-1.33018
-1.38178
-1.50779
-1.62473
-1.76872
-1.9184
-2.07321
-2.21167
-2.33503
-2.43426
-2.51223
-2.56274
-2.60681
-2.61075
-2.62351
-2.56885
-2.56827
-2.526
-2.50852
-2.42353
-2.42374
-2.3669
-2.36888
-2.30973
-2.33052
-2.27896
-2.2871
-2.22029
-2.23192
-2.14817
-2.14531
-2.00879
-1.95755
-1.7946
-1.70765
-1.53449
-1.40792
-1.43192
-1.28802
-1.27146
-1.34291
-1.3938
-1.51814
-1.63715
-1.78119
-1.92859
-2.07563
-2.22191
-2.36007
-2.45582
-2.5365
-2.58412
-2.6383
-2.64478
-2.68343
-2.63568
-2.69305
-2.56998
-2.56047
-2.5113
-2.46052
-2.41283
-2.4051
-2.35813
-2.35267
-2.30553
-2.31229
-2.23946
-2.23862
-2.12126
-2.10063
-1.95354
-1.93291
-1.78945
-1.75828
-1.61452
-1.58539
-1.69271
-1.30142
-1.26883
-1.34609
-1.39475
-1.51388
-1.63654
-1.784
-1.91511
-2.06856
-2.19974
-2.31852
-2.42483
-2.51702
-2.57345
-2.64864
-2.67641
-2.74611
-2.7284
-2.75432
-2.59825
-2.58386
-2.52172
-2.50797
-2.44327
-2.46349
-2.3914
-2.41163
-2.31255
-2.34438
-2.23661
-2.24951
-2.1391
-2.16968
-2.01665
-2.00568
-1.82725
-1.78777
-1.60951
-1.50641
-1.46903
-1.31864
-1.29528
-1.35995
-1.41982
-1.5257
-1.64403
-1.76556
-1.9289
-2.06863
-2.20106
-2.3185
-2.40624
-2.49872
-2.54976
-2.66214
-2.67979
-2.78375
-2.72946
-2.78126
-2.60201
-2.64419
-2.57641
-2.54694
-2.50051
-2.51043
-2.44364
-2.47936
-2.43314
-2.50471
-2.50146
-2.66023
-2.61837
-2.72088
-2.6305
-2.71997
-2.58794
-2.58792
-2.39966
-2.31985
-2.25204
-1.2928
-1.27516
-1.30549
-1.38638
-1.48545
-1.59221
-1.73835
-1.8682
-2.01568
-2.13778
-2.26013
-2.34932
-2.44594
-2.50016
-2.59415
-2.65175
-2.74088
-2.72156
-2.77416
-2.64195
-2.65004
-2.58786
-2.59712
-2.5117
-2.58079
-2.4873
-2.5602
-2.5058
-2.57907
-2.50712
-2.59329
-2.45047
-2.5261
-2.37247
-2.48833
-2.33833
-2.43446
-2.25878
-2.30674
-2.23821
-1.3223
-1.31111
-1.33896
-1.39708
-1.50327
-1.58784
-1.73802
-1.87756
-2.01465
-2.13627
-2.25757
-2.34191
-2.44344
-2.48862
-2.61344
-2.63545
-2.78174
-2.71988
-2.82128
-2.63848
-2.66393
-2.57911
-2.62175
-2.5095
-2.58454
-2.46457
-2.57949
-2.50779
-2.60537
-2.53802
-2.65273
-2.48625
-2.57637
-2.38989
-2.49532
-2.31529
-2.38211
-2.14521
-2.11549
-1.96761
-1.25971
-1.24788
-1.27391
-1.30661
-1.42431
-1.49386
-1.64495
-1.76548
-1.92033
-2.0363
-2.17068
-2.26037
-2.3737
-2.43035
-2.54883
-2.59723
-2.70633
-2.7069
-2.76915
-2.62893
-2.61349
-2.55668
-2.60675
-2.49846
-2.60427
-2.41581
-2.50717
-2.54566
-2.63429
-2.51808
-2.63844
-2.41129
-2.54794
-2.29911
-2.46628
-2.17442
-2.2881
-1.95876
-1.93096
-1.78439
-1.30367
-1.30018
-1.31464
-1.33038
-1.43041
-1.51503
-1.64014
-1.75539
-1.90095
-2.01509
-2.15491
-2.24483
-2.37414
-2.42515
-2.55583
-2.56614
-2.71499
-2.69163
-2.76982
-2.63022
-2.58145
-2.53871
-2.57855
-2.45041
-2.57927
-2.31496
-2.5522
-2.59405
-2.70023
-2.50716
-2.74428
-2.43571
-2.59217
-2.28943
-2.4518
-2.14278
-2.22758
-1.83762
-1.72976
-1.47827
-1.20555
-1.19389
-1.21962
-1.2074
-1.28116
-1.36959
-1.49717
-1.59143
-1.75051
-1.8636
-2.02314
-2.1197
-2.26968
-2.3308
-2.46909
-2.51744
-2.64234
-2.64026
-2.70059
-2.58852
-2.47961
-2.46294
-2.49779
-2.35342
-2.52988
-2.20326
-2.55579
-2.59243
-2.72171
-2.49801
-2.74674
-2.4317
-2.64536
-2.2385
-2.45566
-1.97617
-2.1603
-1.61309
-1.50436
-1.06852
-1.28066
-1.28161
-1.28772
-1.287
-1.31332
-1.38598
-1.50355
-1.57561
-1.72259
-1.82657
-1.99138
-2.0968
-2.24144
-2.32073
-2.47844
-2.51435
-2.64853
-2.65637
-2.68748
-2.60726
-2.41813
-2.41733
-2.43922
-2.27165
-2.47839
-2.10238
-2.52369
-2.61227
-2.79092
-2.49549
-2.81332
-2.42941
-2.71411
-2.27523
-2.49318
-1.96623
-2.08298
-1.46895
-1.25056
-0.602358
-1.13916
-1.11981
-1.15562
-1.1057
-1.1552
-1.15691
-1.32553
-1.3594
-1.52618
-1.62711
-1.80168
-1.90237
-2.11132
-2.20122
-2.37341
-2.43409
-2.5706
-2.60127
-2.61761
-2.56107
-2.27257
-2.28922
-2.30157
-2.12058
-2.35198
-1.97721
-2.40536
-2.64439
-2.79567
-2.58156
-2.83839
-2.40688
-2.73302
-2.19671
-2.51933
-1.82181
-2.00767
-1.04901
-0.916888
0.165543
-1.25586
-1.27045
-1.26156
-1.23665
-1.25101
-1.19161
-1.34696
-1.35573
-1.50759
-1.57501
-1.77186
-1.89262
-2.09057
-2.19395
-2.37915
-2.44449
-2.58713
-2.63778
-2.6207
-2.59322
-2.20181
-2.24479
-2.21517
-2.00297
-2.22987
-1.85359
-2.30166
-2.65696
-2.90061
-2.5795
-2.92521
-2.45166
-2.83343
-2.22045
-2.60036
-1.88267
-2.07826
-0.872218
-0.605346
1.01717
-1.10761
-1.03453
-1.09959
-0.983028
-1.05696
-0.933358
-1.11256
-1.09496
-1.2597
-1.36633
-1.57929
-1.70397
-1.9414
-2.05901
-2.27603
-2.36595
-2.51591
-2.59122
-2.5668
-2.54075
-2.03322
-2.0858
-2.0228
-1.80428
-2.02528
-1.69074
-2.17943
-2.63314
-2.92871
-2.62584
-3.00731
-2.36955
-2.86829
-2.13288
-2.50707
-1.65468
-1.92592
-0.282798
0.0555257
2.7382
-1.24931
-1.32584
-1.23166
-1.21989
-1.14827
-1.06865
-1.12076
-1.11122
-1.25212
-1.33103
-1.52731
-1.65717
-1.88784
-2.0212
-2.25285
-2.36962
-2.54021
-2.63775
-2.6152
-2.5345
-2.00166
-1.98295
-1.91559
-1.61142
-1.8457
-1.53103
-2.12622
-2.56057
-3.01978
-2.67959
-3.11961
-2.49908
-2.95412
-2.17998
-2.71979
-1.64648
-2.1707
-0.0666189
0.489089
4.46049
-1.48836
-1.04952
-1.16885
-0.833447
-0.922285
-0.725852
-0.833976
-0.850759
-0.999335
-1.08918
-1.31329
-1.44642
-1.70587
-1.85416
-2.10816
-2.25183
-2.44563
-2.58918
-2.55738
-2.41941
-1.90336
-1.74342
-1.64739
-1.34118
-1.58748
-1.34197
-2.09503
-2.47078
-3.03678
-2.7026
-3.14589
-2.48864
-2.88695
-2.00013
-2.49822
-1.07391
-1.59995
1.03627
2.22596
9.02198
-1.32288
-1.59022
-1.39485
-1.35509
-0.953723
-0.897585
-0.833099
-0.82211
-0.957975
-1.03485
-1.2276
-1.36014
-1.61085
-1.76098
-2.02303
-2.18393
-2.42398
-2.60717
-2.70333
-2.37141
-1.94568
-1.63054
-1.49318
-1.12643
-1.4028
-1.19306
-2.09141
-2.34432
-3.12021
-2.75513
-3.23673
-2.55164
-3.00494
-2.12251
-2.66334
-1.3466
-1.80602
1.72194
3.49492
12.7861
-3.8191
-1.07117
-1.37833
-0.921632
-0.836949
-0.604518
-0.673877
-0.665981
-0.822246
-0.913773
-1.14575
-1.27546
-1.53547
-1.68831
-1.9557
-2.14224
-2.44791
-2.66194
-2.66689
-2.26908
-1.8629
-1.38158
-1.21131
-0.876313
-1.26581
-1.21155
-2.21864
-2.43212
-3.24798
-2.78587
-3.20743
-2.45516
-2.84245
-1.94724
-2.28981
-0.591901
-0.15167
5.73806
10.7484
25.478
-0.106164
-0.210159
-0.283463
-0.337389
-0.384502
-0.426251
-0.469793
-0.511337
-0.551379
-0.588733
-0.614749
-0.661804
-0.67729
-0.71835
-0.723488
-0.764748
-0.720439
-0.796147
-0.704131
-0.902547
-0.620686
-0.776968
-0.718776
-0.769868
-0.622335
-0.589536
-0.465763
-0.418646
-0.35917
-0.331983
-0.335025
-0.315191
-0.367377
-0.374303
-0.408392
-0.400921
-0.417056
-0.410662
-0.424878
-0.412587
-0.221427
-0.273072
-0.316277
-0.358736
-0.393599
-0.43134
-0.463117
-0.504976
-0.521497
-0.570956
-0.578033
-0.648023
-0.638433
-0.665725
-0.651008
-0.690759
-0.666335
-0.744653
-0.61923
-0.808585
-0.623919
-0.767157
-0.707025
-0.771972
-0.632707
-0.622968
-0.513879
-0.476701
-0.422937
-0.383237
-0.379152
-0.366832
-0.354684
-0.356179
-0.389032
-0.383473
-0.403562
-0.397247
-0.411826
-0.39892
-0.304766
-0.325891
-0.350373
-0.368017
-0.408165
-0.432455
-0.471722
-0.494789
-0.556155
-0.580042
-0.608831
-0.640622
-0.656494
-0.698209
-0.725793
-0.809868
-0.780311
-0.856976
-0.760994
-0.974126
-0.854842
-1.04589
-1.06733
-1.17677
-1.0732
-1.07722
-0.983133
-0.937179
-0.859334
-0.772293
-0.689114
-0.594145
-0.549255
-0.501704
-0.465045
-0.430741
-0.435861
-0.42306
-0.430421
-0.422438
-0.36437
-0.378259
-0.377866
-0.403634
-0.412535
-0.444417
-0.476286
-0.518139
-0.557644
-0.601503
-0.63017
-0.684786
-0.742541
-0.828038
-0.857936
-0.946954
-0.938897
-1.04658
-0.980625
-1.21722
-1.16356
-1.38216
-1.44172
-1.55899
-1.46644
-1.46432
-1.35788
-1.28226
-1.17195
-1.04511
-0.927696
-0.78111
-0.675905
-0.573305
-0.530839
-0.478412
-0.481068
-0.453644
-0.455909
-0.448704
-0.413235
-0.417894
-0.422488
-0.424221
-0.464861
-0.464859
-0.523063
-0.564442
-0.628978
-0.687617
-0.777118
-0.893001
-0.969866
-1.04579
-1.09691
-1.20023
-1.2086
-1.32043
-1.29258
-1.495
-1.43802
-1.65213
-1.72846
-1.83057
-1.73937
-1.73193
-1.62853
-1.55339
-1.41763
-1.26781
-1.11707
-0.972832
-0.833127
-0.698759
-0.594316
-0.537435
-0.511994
-0.490748
-0.486071
-0.484224
-0.451902
-0.443688
-0.4606
-0.489246
-0.467351
-0.513851
-0.553179
-0.652568
-0.7978
-0.933909
-1.04345
-1.12501
-1.19905
-1.27756
-1.32374
-1.43009
-1.42915
-1.53961
-1.48736
-1.67295
-1.64243
-1.83114
-1.91799
-2.00831
-1.93336
-1.89766
-1.79088
-1.68523
-1.58251
-1.42472
-1.27443
-1.10856
-0.964219
-0.841699
-0.704211
-0.609429
-0.573371
-0.5431
-0.533374
-0.534653
-0.505692
-0.501697
-0.539417
-0.570637
-0.621762
-0.64867
-0.791189
-0.967853
-1.07604
-1.1679
-1.27139
-1.37019
-1.45535
-1.53656
-1.59874
-1.66185
-1.67907
-1.75413
-1.71979
-1.8487
-1.84596
-1.94782
-2.01668
-2.09162
-2.01969
-1.98595
-1.89019
-1.80213
-1.67122
-1.5413
-1.38451
-1.21458
-1.04946
-0.903628
-0.782643
-0.651798
-0.598376
-0.573715
-0.56555
-0.572072
-0.54554
-0.553685
-0.603018
-0.663845
-0.737459
-0.803669
-1.01782
-1.09522
-1.24767
-1.36531
-1.48232
-1.5924
-1.67901
-1.76433
-1.81409
-1.87207
-1.87093
-1.92632
-1.89498
-1.96454
-1.98194
-2.01015
-2.05385
-2.13486
-2.08483
-2.05621
-1.98039
-1.89308
-1.79339
-1.65084
-1.50858
-1.35333
-1.19177
-1.02359
-0.893286
-0.750997
-0.674701
-0.642899
-0.629105
-0.637381
-0.601493
-0.610484
-0.672765
-0.75428
-0.864866
-0.985489
-1.1638
-1.29616
-1.43763
-1.56212
-1.68653
-1.78686
-1.88658
-1.96992
-2.02863
-2.07344
-2.07878
-2.09749
-2.06722
-2.07491
-2.09484
-2.07464
-2.10463
-2.16098
-2.14352
-2.11545
-2.05352
-1.9776
-1.86438
-1.74877
-1.61375
-1.46585
-1.31004
-1.08792
-0.957574
-0.795289
-0.715408
-0.673981
-0.671186
-0.68163
-0.687136
-0.694301
-0.779675
-0.893913
-0.984997
-1.15758
-1.31078
-1.44071
-1.59354
-1.73186
-1.84575
-1.96158
-2.05179
-2.13243
-2.19631
-2.24106
-2.24687
-2.25118
-2.21285
-2.19325
-2.18577
-2.17269
-2.12196
-2.19235
-2.18453
-2.17349
-2.12689
-2.0405
-1.96506
-1.8444
-1.74732
-1.63713
-1.47819
-1.31793
-1.09976
-0.921748
-0.800437
-0.767808
-0.744789
-0.760902
-0.740326
-0.751205
-0.848583
-0.958257
-1.1707
-1.27234
-1.45639
-1.5913
-1.74052
-1.89544
-2.01176
-2.11391
-2.20906
-2.26719
-2.34174
-2.37912
-2.39112
-2.38376
-2.34084
-2.29938
-2.26009
-2.21838
-2.11358
-2.21614
-2.20459
-2.21784
-2.16461
-2.12391
-2.02117
-1.96586
-1.88027
-1.71018
-1.54991
-1.3327
-1.17655
-0.98809
-0.84504
-0.812958
-0.795759
-0.811669
-0.872457
-0.885672
-0.987226
-1.14838
-1.31481
-1.45787
-1.60201
-1.75603
-1.90336
-2.01081
-2.1509
-2.24218
-2.31866
-2.37772
-2.43686
-2.486
-2.49902
-2.49165
-2.4523
-2.4075
-2.34292
-2.2643
-2.10124
-2.18886
-2.21516
-2.23657
-2.22522
-2.14441
-2.13495
-2.08221
-1.94004
-1.85403
-1.70025
-1.55919
-1.35766
-1.16904
-0.936149
-0.892162
-0.879278
-0.901587
-0.927393
-0.941572
-1.06882
-1.22904
-1.41717
-1.55964
-1.73113
-1.84179
-2.01035
-2.12667
-2.25623
-2.32586
-2.4524
-2.47334
-2.54052
-2.57595
-2.59438
-2.57979
-2.55536
-2.49752
-2.41229
-2.24839
-1.96869
-2.0611
-2.1745
-2.24479
-2.23196
-2.26694
-2.23861
-2.14156
-2.1156
-1.97182
-1.81042
-1.58987
-1.39713
-1.24425
-1.07893
-0.922525
-0.945679
-0.955835
-1.11575
-1.13259
-1.25568
-1.41169
-1.58914
-1.7417
-1.90008
-2.02484
-2.14943
-2.24325
-2.36232
-2.44986
-2.4948
-2.57991
-2.61132
-2.64884
-2.66933
-2.66713
-2.64089
-2.5798
-2.46286
-2.13082
-1.95928
-2.01756
-2.14461
-2.24927
-2.27779
-2.31517
-2.26365
-2.27706
-2.17191
-2.06614
-1.90614
-1.73846
-1.5027
-1.34394
-1.19821
-1.07097
-1.02274
-1.08409
-1.12789
-1.14358
-1.2716
-1.43027
-1.61958
-1.78243
-1.95827
-2.07457
-2.21062
-2.31178
-2.42918
-2.50586
-2.60703
-2.68611
-2.71659
-2.73442
-2.74243
-2.72068
-2.70992
-2.62543
-2.34907
-2.10892
-1.98913
-2.01417
-2.08333
-2.24204
-2.31571
-2.33036
-2.3642
-2.30772
-2.25246
-2.1499
-2.01787
-1.83663
-1.62133
-1.41587
-1.26028
-1.19177
-1.05199
-1.12707
-1.331
-1.34487
-1.46909
-1.6186
-1.80226
-1.95993
-2.10653
-2.23424
-2.3653
-2.46855
-2.57422
-2.63582
-2.68491
-2.70565
-2.73956
-2.73846
-2.75591
-2.7521
-2.69918
-2.46232
-2.26928
-2.13863
-2.05418
-2.02879
-2.0655
-2.18051
-2.28431
-2.36152
-2.37184
-2.35829
-2.30985
-2.24254
-2.13659
-1.99225
-1.79503
-1.60186
-1.42137
-1.35451
-1.23934
-1.29028
-1.25969
-1.28715
-1.41001
-1.58046
-1.77484
-1.91994
-2.09638
-2.20928
-2.32231
-2.41256
-2.51376
-2.60156
-2.6877
-2.76144
-2.77626
-2.79652
-2.73941
-2.62765
-2.47656
-2.32802
-2.24685
-2.16882
-2.10455
-2.06417
-2.09179
-2.15269
-2.34203
-2.39153
-2.42149
-2.39892
-2.36277
-2.29604
-2.20625
-2.06751
-1.8881
-1.68745
-1.49962
-1.36342
-1.29769
-1.27905
-1.41002
-1.4211
-1.52165
-1.6666
-1.8417
-1.99538
-2.15594
-2.27511
-2.40474
-2.50696
-2.60965
-2.65841
-2.67963
-2.6475
-2.56718
-2.48549
-2.44498
-2.35387
-2.31196
-2.26335
-2.24423
-2.18947
-2.14532
-2.1082
-2.09388
-2.12989
-2.17045
-2.30969
-2.37729
-2.40637
-2.40997
-2.39182
-2.36499
-2.28288
-2.14924
-1.96971
-1.75367
-1.6297
-1.55999
-1.54638
-1.179
-1.22058
-1.30613
-1.46605
-1.60804
-1.80703
-1.96892
-2.07402
-2.10745
-2.13444
-2.15536
-2.18426
-2.22648
-2.28485
-2.31594
-2.37011
-2.36866
-2.3219
-2.31566
-2.27806
-2.25559
-2.21135
-2.17415
-2.14546
-2.12074
-2.13776
-2.15503
-2.18017
-2.26628
-2.32141
-2.33465
-2.31314
-2.27928
-2.1826
-2.07378
-1.9627
-1.75547
-1.60587
-1.58337
-1.60172
-1.23987
-1.23274
-1.28167
-1.36718
-1.47018
-1.59709
-1.73283
-1.86124
-2.00181
-2.11702
-2.22371
-2.2819
-2.3255
-2.36091
-2.37869
-2.38859
-2.38603
-2.35606
-2.32211
-2.29678
-2.28441
-2.22847
-2.22055
-2.17265
-2.16886
-2.16334
-2.15806
-2.14085
-2.11966
-2.12613
-2.23912
-2.35753
-2.50517
-2.53145
-2.48878
-2.32888
-2.09053
-1.87699
-1.6886
-1.63322
-1.21407
-1.17069
-1.20881
-1.29387
-1.40198
-1.54808
-1.67689
-1.83373
-1.95259
-2.06849
-2.1667
-2.25128
-2.32432
-2.37966
-2.41861
-2.44812
-2.4379
-2.4212
-2.38464
-2.32551
-2.31197
-2.26546
-2.24622
-2.21461
-2.19959
-2.19676
-2.1954
-2.16066
-2.13062
-2.08282
-2.05236
-1.96476
-1.94637
-1.9415
-2.02689
-2.00905
-1.96411
-1.93617
-1.95472
-2.13792
-1.27363
-1.23352
-1.26794
-1.32856
-1.45198
-1.55685
-1.69874
-1.85475
-2.00356
-2.14141
-2.25802
-2.34211
-2.41324
-2.46868
-2.50759
-2.51098
-2.4995
-2.46289
-2.43464
-2.39119
-2.35191
-2.28749
-2.30005
-2.25482
-2.25889
-2.23112
-2.23871
-2.20762
-2.19783
-2.14077
-2.1431
-2.08539
-2.07243
-1.92961
-1.76263
-1.56015
-1.3947
-1.24346
-1.13142
-1.12059
-1.23383
-1.22444
-1.26794
-1.33789
-1.46605
-1.58458
-1.7258
-1.89326
-2.03577
-2.17459
-2.28729
-2.38783
-2.46977
-2.52786
-2.56626
-2.56716
-2.55947
-2.50611
-2.4917
-2.43072
-2.40494
-2.35525
-2.32642
-2.29778
-2.2872
-2.26717
-2.25943
-2.22748
-2.21927
-2.16063
-2.13855
-2.02632
-1.98704
-1.82663
-1.7513
-1.59325
-1.48498
-1.35205
-1.27155
-1.46379
-1.27852
-1.26773
-1.31441
-1.37494
-1.49842
-1.61811
-1.76424
-1.9231
-2.0739
-2.21218
-2.33607
-2.4412
-2.52581
-2.58083
-2.61825
-2.61193
-2.61486
-2.56374
-2.5643
-2.51412
-2.49109
-2.40238
-2.41179
-2.33638
-2.34966
-2.29609
-2.31652
-2.25484
-2.26205
-2.18772
-2.1951
-2.09862
-2.0896
-1.94818
-1.89942
-1.73785
-1.64096
-1.4328
-1.30211
-1.38234
-1.28849
-1.27998
-1.33328
-1.39551
-1.51696
-1.65048
-1.78853
-1.94704
-2.09502
-2.24037
-2.37242
-2.48174
-2.56973
-2.61981
-2.66208
-2.65853
-2.69236
-2.64669
-2.69841
-2.5909
-2.55146
-2.48045
-2.45528
-2.40489
-2.38421
-2.34407
-2.33025
-2.28789
-2.28137
-2.19536
-2.18379
-2.05496
-2.03583
-1.87767
-1.85915
-1.71523
-1.6837
-1.52697
-1.46834
-1.6202
-1.29239
-1.27593
-1.33631
-1.39695
-1.516
-1.63746
-1.78465
-1.93586
-2.09165
-2.23557
-2.37054
-2.47988
-2.57211
-2.62339
-2.68443
-2.70523
-2.77281
-2.76502
-2.79743
-2.64665
-2.58718
-2.50299
-2.51193
-2.43661
-2.45973
-2.36162
-2.40604
-2.28222
-2.31935
-2.2014
-2.22614
-2.1019
-2.14205
-1.98864
-1.99986
-1.82104
-1.7872
-1.59698
-1.49263
-1.4373
-1.32125
-1.30493
-1.35034
-1.41908
-1.52553
-1.64675
-1.78806
-1.94779
-2.10116
-2.24542
-2.38035
-2.48551
-2.57968
-2.62966
-2.72775
-2.77257
-2.89052
-2.85058
-2.88034
-2.65931
-2.62088
-2.53321
-2.54684
-2.49409
-2.51171
-2.43628
-2.45871
-2.40379
-2.48847
-2.45181
-2.58988
-2.53577
-2.64946
-2.54407
-2.6405
-2.50549
-2.5252
-2.36385
-2.23432
-2.21054
-1.29022
-1.28067
-1.31318
-1.37995
-1.48538
-1.58927
-1.73396
-1.87703
-2.02981
-2.16576
-2.30196
-2.40767
-2.5181
-2.58377
-2.68791
-2.73488
-2.84762
-2.80091
-2.81435
-2.64728
-2.62246
-2.57112
-2.59838
-2.50547
-2.58107
-2.4772
-2.58935
-2.44164
-2.58251
-2.46715
-2.61464
-2.46238
-2.57382
-2.41185
-2.54184
-2.38238
-2.48427
-2.31138
-2.22733
-2.20492
-1.32314
-1.31625
-1.34435
-1.39135
-1.50354
-1.59425
-1.74084
-1.86687
-2.01396
-2.13301
-2.26447
-2.36556
-2.49271
-2.56743
-2.68574
-2.70905
-2.82539
-2.77179
-2.83159
-2.64175
-2.66085
-2.54753
-2.61019
-2.48882
-2.57358
-2.44931
-2.55963
-2.45791
-2.65708
-2.50699
-2.65603
-2.49806
-2.62561
-2.4333
-2.5643
-2.37103
-2.46085
-2.19266
-2.14956
-2.01174
-1.25987
-1.24972
-1.28036
-1.30026
-1.41792
-1.49586
-1.64252
-1.7705
-1.91051
-2.02972
-2.16303
-2.26236
-2.39598
-2.48196
-2.60819
-2.63867
-2.74976
-2.73262
-2.78453
-2.65791
-2.6093
-2.53588
-2.58523
-2.45325
-2.56286
-2.37848
-2.50932
-2.53216
-2.69759
-2.52196
-2.68868
-2.41723
-2.57001
-2.34619
-2.53155
-2.23429
-2.40097
-2.02315
-1.99733
-1.7483
-1.30504
-1.30141
-1.32187
-1.33695
-1.42482
-1.51527
-1.64184
-1.75617
-1.91322
-2.0113
-2.15088
-2.24407
-2.3816
-2.45281
-2.59484
-2.62136
-2.73774
-2.72477
-2.7807
-2.65141
-2.5837
-2.50342
-2.55519
-2.39685
-2.5269
-2.27102
-2.5506
-2.58506
-2.73947
-2.5347
-2.7063
-2.48261
-2.633
-2.31629
-2.52878
-2.23242
-2.3892
-1.9694
-1.88554
-1.53181
-1.20568
-1.18823
-1.22253
-1.20986
-1.28367
-1.36541
-1.49558
-1.59072
-1.7517
-1.8743
-2.01983
-2.12467
-2.27675
-2.35295
-2.50346
-2.54814
-2.66385
-2.65809
-2.71875
-2.60573
-2.47429
-2.42136
-2.4701
-2.29949
-2.46382
-2.16942
-2.54457
-2.60815
-2.7671
-2.53029
-2.72455
-2.44088
-2.65969
-2.33164
-2.52829
-2.08201
-2.38961
-1.81688
-1.80383
-1.25199
-1.28052
-1.27461
-1.28769
-1.29142
-1.31544
-1.38207
-1.49968
-1.57527
-1.7195
-1.83161
-1.9996
-2.10318
-2.26764
-2.35852
-2.4995
-2.53737
-2.66916
-2.68987
-2.70802
-2.62026
-2.43648
-2.36516
-2.40674
-2.2228
-2.40695
-2.07998
-2.50748
-2.61554
-2.88007
-2.54475
-2.80663
-2.41524
-2.75554
-2.29044
-2.64109
-2.10372
-2.35679
-1.79641
-1.78006
-0.976739
-1.13678
-1.1086
-1.16287
-1.09042
-1.1671
-1.14801
-1.32195
-1.35783
-1.52896
-1.62667
-1.82132
-1.93181
-2.11937
-2.17803
-2.38134
-2.44584
-2.57811
-2.6344
-2.65779
-2.5702
-2.2971
-2.23525
-2.26468
-2.07869
-2.26992
-1.95635
-2.40325
-2.61913
-2.90123
-2.58936
-2.84156
-2.4089
-2.73777
-2.24081
-2.60183
-2.04297
-2.37836
-1.4705
-1.70154
-0.439846
-1.25626
-1.27125
-1.26799
-1.24876
-1.22652
-1.20837
-1.33842
-1.36483
-1.51523
-1.59998
-1.79273
-1.90831
-2.09863
-2.21251
-2.40251
-2.46808
-2.63543
-2.68779
-2.67048
-2.61828
-2.26141
-2.16454
-2.17924
-1.96449
-2.15045
-1.85224
-2.30694
-2.59903
-2.97933
-2.6449
-2.99474
-2.44881
-2.86261
-2.25327
-2.69778
-2.02259
-2.51028
-1.56051
-1.52444
0.132485
-1.09199
-1.03866
-1.10637
-0.986407
-1.07742
-0.922198
-1.11898
-1.1171
-1.29958
-1.39171
-1.60421
-1.71432
-1.9635
-2.07921
-2.31178
-2.40579
-2.59291
-2.64338
-2.66218
-2.55641
-2.14462
-1.99776
-1.99574
-1.75395
-1.9494
-1.66315
-2.19973
-2.54008
-3.01073
-2.66113
-3.06963
-2.43124
-2.8838
-2.15274
-2.66439
-1.76867
-2.35733
-1.0436
-1.35678
1.67902
-1.23455
-1.33641
-1.25459
-1.24799
-1.17583
-1.08704
-1.14257
-1.15783
-1.29295
-1.37796
-1.56281
-1.70373
-1.93296
-2.06604
-2.30349
-2.41987
-2.62356
-2.72345
-2.71243
-2.59259
-2.13012
-1.93291
-1.88879
-1.60701
-1.76353
-1.51075
-2.1327
-2.46568
-3.07607
-2.7159
-3.18407
-2.55926
-3.01425
-2.25262
-2.83473
-1.82147
-2.50554
-0.756159
-1.17188
3.43993
-1.40502
-1.01427
-1.16642
-0.863472
-0.940913
-0.76874
-0.866939
-0.878601
-1.04866
-1.13654
-1.37736
-1.50783
-1.77568
-1.93193
-2.1973
-2.36373
-2.55415
-2.72971
-2.74726
-2.49843
-2.04068
-1.74755
-1.67683
-1.31457
-1.55899
-1.3045
-2.08524
-2.36274
-3.10099
-2.76137
-3.26882
-2.54598
-2.9944
-2.13456
-2.66
-1.39265
-1.90436
0.410188
1.0592
8.57092
-1.07591
-1.52994
-1.41614
-1.41291
-1.13712
-0.922716
-0.922798
-0.895477
-1.01367
-1.09075
-1.2981
-1.45309
-1.71455
-1.86721
-2.15327
-2.33313
-2.60927
-2.81933
-2.90289
-2.56813
-2.13403
-1.72963
-1.53283
-1.12292
-1.38824
-1.14093
-2.04222
-2.25977
-3.14932
-2.77927
-3.26454
-2.58132
-3.04383
-2.13293
-2.70941
-1.41724
-1.86895
1.4661
3.73108
15.1659
-3.64498
-0.927981
-1.23052
-0.833282
-0.794673
-0.620205
-0.681215
-0.677981
-0.845902
-0.944897
-1.17416
-1.30214
-1.57828
-1.76715
-2.07522
-2.31376
-2.63121
-2.8724
-2.93383
-2.40856
-1.99168
-1.4875
-1.23276
-0.846318
-1.22313
-1.14662
-2.16354
-2.38516
-3.29418
-2.87533
-3.30566
-2.50264
-2.86027
-1.91935
-2.27151
-0.501731
0.11576
6.08734
13.7358
31.9839
-0.237276
-0.274228
-0.312031
-0.346479
-0.390603
-0.426889
-0.472006
-0.509157
-0.543341
-0.58942
-0.620643
-0.667874