/*--------------------------------*- C++ -*----------------------------------*\
| =========                 |                                                 |
| \\      /  F ield         | OpenFOAM: The Open Source CFD Toolbox           |
|  \\    /   O peration     | Version:  v1806                                 |
|   \\  /    A nd           | Web:      www.OpenFOAM.com                      |
|    \\/     M anipulation  |                                                 |
\*---------------------------------------------------------------------------*/
FoamFile
{
    version     2.0;
    format      ascii;
    class       volVectorField;
    location    "0.073";
    object      U_0;
}
// * * * * * * * * * * * * * * * * * * * * * * * * * * * * * * * * * * * * * //

dimensions      [0 1 -1 0 0 0 0];


internalField   nonuniform List<vector> 
64000
(
(-0.00920746 -0.0102395 -0.00678241)
(0.0137463 -0.01048 -0.00421039)
(0.0199039 -0.00357376 0.000867021)
(0.0237111 -0.00349234 0.00135334)
(0.024443 -0.0025658 0.00181906)
(0.0244884 -0.00279135 0.00261555)
(0.0239377 -0.00348564 0.00288484)
(0.0205501 -0.00395013 0.00307723)
(0.0191724 -0.00492446 0.00451958)
(0.0120092 -0.00441009 0.00386984)
(0.00673718 -0.00530437 0.00637007)
(-0.00654869 -0.00903871 0.00620129)
(-0.026677 -0.0127368 0.00642851)
(-0.0502241 -0.0178865 0.00398669)
(-0.0805607 -0.0181729 0.00507109)
(-0.115974 -0.0161043 0.00266563)
(-0.146876 0.000670373 0.0020041)
(-0.190559 -0.00439709 -0.00247352)
(-0.192505 -0.00994498 0.00582785)
(-0.251575 -0.0287066 -0.015781)
(-0.217145 -0.0233369 -0.0241029)
(-0.105312 -0.0246199 -0.0393183)
(-0.104015 -0.00993818 -0.0265989)
(-0.0997261 -0.00409076 -0.0372432)
(-0.114839 0.00253618 -0.0479818)
(-0.109665 0.0109178 -0.0571496)
(-0.0973255 0.0208138 -0.0619323)
(-0.0626282 0.0322169 -0.0573809)
(-0.0300892 0.0382601 -0.0532542)
(0.0133301 0.0527901 -0.0356733)
(0.0612309 0.0455693 -0.0320889)
(0.0947729 0.0376104 -0.0233805)
(0.110769 0.0266073 -0.0118028)
(0.10646 0.0131111 -0.00438294)
(0.0924881 0.00482072 0.00168778)
(0.07307 -0.00331461 0.004272)
(0.052601 -0.00690478 0.00586927)
(0.0315099 -0.00601945 0.00672767)
(0.016843 -0.00441472 0.00710416)
(0.00236383 -0.00281626 0.00495309)
(-0.00686001 0.000349114 -0.00313853)
(0.00900027 -0.0167715 -0.00286736)
(0.0244418 -0.0115418 -0.0010926)
(0.033628 -0.0083131 -0.000672426)
(0.038869 -0.0034088 -0.000691179)
(0.0387765 -0.000933773 -0.00138932)
(0.0371415 0.0031202 -0.00290993)
(0.0296684 0.00482924 -0.00272349)
(0.0227431 0.0105458 -0.00702075)
(0.00501856 0.0161776 -0.00438918)
(-0.0193272 0.024936 -0.0080839)
(-0.0562424 0.0313045 0.00033876)
(-0.104348 0.0425518 -0.00402153)
(-0.156184 0.0633332 -0.00686398)
(-0.21553 0.0762699 -0.0110576)
(-0.273352 0.0852192 -0.0182015)
(-0.355552 0.0929018 -0.0434022)
(-0.460185 0.0952157 -0.0583769)
(-0.510939 0.100986 -0.0758444)
(-0.593739 0.0984553 -0.0992535)
(-0.546192 0.125597 -0.0995987)
(-0.408274 0.140512 -0.126925)
(-0.388189 0.185743 -0.137693)
(-0.370927 0.211188 -0.146687)
(-0.358544 0.23657 -0.157991)
(-0.320721 0.258392 -0.164005)
(-0.270096 0.27912 -0.165331)
(-0.200039 0.295143 -0.153713)
(-0.123075 0.300846 -0.133677)
(-0.0529804 0.307719 -0.109812)
(0.0132304 0.289573 -0.0754289)
(0.0776612 0.25946 -0.0472084)
(0.113654 0.209276 -0.0387729)
(0.125786 0.159294 -0.0266623)
(0.120134 0.108283 -0.0127872)
(0.100726 0.068594 -0.00524385)
(0.0806266 0.0400494 -0.000815356)
(0.0552683 0.0255006 0.000219653)
(0.0330547 0.0157118 0.0018026)
(0.00821432 0.00727821 0.00227538)
(-0.000619623 -0.00734812 0.00150688)
(0.0150062 -0.0231377 -0.00136473)
(0.0320794 -0.018299 -0.00230306)
(0.0422838 -0.00596462 -0.00302602)
(0.0445253 0.00475636 -0.00497824)
(0.0418039 0.0160679 -0.00650118)
(0.0341462 0.0316126 -0.00776803)
(0.0200926 0.0457118 -0.00951786)
(0.00405467 0.0696054 -0.00200805)
(-0.0262916 0.0899245 -0.00475965)
(-0.0645657 0.117282 -0.00814701)
(-0.117729 0.149935 -0.0133041)
(-0.172584 0.183619 -0.0173224)
(-0.251056 0.210913 -0.0321232)
(-0.350394 0.229938 -0.0349386)
(-0.446421 0.24354 -0.0423018)
(-0.533864 0.24832 -0.0587294)
(-0.620683 0.269222 -0.0767479)
(-0.665893 0.298456 -0.094467)
(-0.733058 0.331903 -0.116251)
(-0.67174 0.370258 -0.10877)
(-0.507623 0.398932 -0.123915)
(-0.463873 0.455693 -0.126493)
(-0.435881 0.488076 -0.12347)
(-0.414333 0.520173 -0.125702)
(-0.372559 0.542512 -0.123918)
(-0.321466 0.556525 -0.119412)
(-0.256819 0.560451 -0.104649)
(-0.189282 0.550406 -0.0829878)
(-0.125019 0.530958 -0.0593168)
(-0.0685856 0.501099 -0.0399552)
(-0.0262758 0.452688 -0.0277772)
(0.00823614 0.379805 -0.0158164)
(0.030896 0.307295 -0.00810074)
(0.0423724 0.227622 -0.0110208)
(0.0482987 0.162619 -0.0108553)
(0.0479551 0.114484 -0.00705933)
(0.0387541 0.0770461 -0.0047965)
(0.027436 0.0509643 -0.00100655)
(0.00812132 0.0241361 0.00187196)
(0.000255007 -0.01189 0.00238071)
(0.0171383 -0.0252928 -0.00112749)
(0.038584 -0.0123517 -0.00271716)
(0.0465831 0.00584378 -0.00617027)
(0.0441642 0.029613 -0.00673687)
(0.0393936 0.0548235 -0.0087554)
(0.0261848 0.0901015 -0.00870626)
(0.00675011 0.122672 -0.00547373)
(-0.0204006 0.167678 -0.0104867)
(-0.0657789 0.208001 -0.012826)
(-0.111739 0.251963 -0.0170674)
(-0.177058 0.286525 -0.0243193)
(-0.263667 0.314147 -0.0267705)
(-0.355014 0.330185 -0.0287473)
(-0.441522 0.35143 -0.0309735)
(-0.520338 0.376251 -0.0367421)
(-0.591908 0.40609 -0.0509911)
(-0.665385 0.435442 -0.0602143)
(-0.69626 0.475361 -0.0693921)
(-0.748623 0.51858 -0.0772484)
(-0.675815 0.552382 -0.0507789)
(-0.491175 0.571916 -0.0465566)
(-0.433304 0.61457 -0.0415979)
(-0.405886 0.62352 -0.0295064)
(-0.385883 0.636525 -0.0264069)
(-0.353465 0.637774 -0.0210922)
(-0.314153 0.630114 -0.0176318)
(-0.266443 0.612094 -0.0103851)
(-0.2165 0.586758 0.00142187)
(-0.171886 0.554908 0.00861687)
(-0.139925 0.51533 0.0139609)
(-0.115775 0.471395 0.0124325)
(-0.0927783 0.415161 0.0070348)
(-0.0706205 0.350675 -0.00123338)
(-0.0483157 0.271175 -0.00500837)
(-0.0195863 0.20231 -0.0101766)
(0.000342561 0.146802 -0.0102866)
(0.00922218 0.110306 -0.00768403)
(0.0172663 0.0767514 -0.00320679)
(0.00647065 0.0360596 0.00154626)
(0.00076123 -0.0125115 0.000767133)
(0.0234311 -0.0150871 -0.00449909)
(0.0470343 0.00257472 -0.00690432)
(0.0550513 0.0376275 -0.00805199)
(0.0521429 0.0764871 -0.00714371)
(0.0460335 0.122604 -0.0148784)
(0.0265784 0.178626 -0.0121062)
(-0.000748515 0.237382 -0.00582389)
(-0.0335712 0.292017 -0.00765754)
(-0.0877942 0.335845 -0.0097269)
(-0.151311 0.369607 -0.0124556)
(-0.231255 0.388756 -0.0151035)
(-0.304396 0.411446 -0.0160335)
(-0.37851 0.437978 -0.0212681)
(-0.452375 0.468913 -0.019623)
(-0.519309 0.501547 -0.0211672)
(-0.577511 0.529594 -0.0242485)
(-0.631251 0.566372 -0.0210557)
(-0.642858 0.60928 -0.0173546)
(-0.681704 0.654167 -0.0260357)
(-0.609636 0.682414 0.00116841)
(-0.418499 0.688276 0.0145536)
(-0.356698 0.70174 0.0254403)
(-0.338298 0.678698 0.0365017)
(-0.330083 0.660975 0.0376077)
(-0.317046 0.635815 0.0436635)
(-0.298148 0.603524 0.0449106)
(-0.268689 0.567649 0.0489641)
(-0.239397 0.52697 0.0423388)
(-0.214962 0.488124 0.0346327)
(-0.194389 0.444025 0.0247337)
(-0.18499 0.411122 0.0173469)
(-0.177691 0.37512 0.00947498)
(-0.173176 0.344305 -0.0024103)
(-0.151595 0.279122 -0.0127798)
(-0.103419 0.208617 -0.0138687)
(-0.0520055 0.160548 -0.0133363)
(-0.0166058 0.129841 -0.011421)
(0.00302189 0.095182 -0.00576726)
(0.00358791 0.0452475 0.00150623)
(0.00550028 -0.00846824 -0.00029853)
(0.0289658 -0.000142874 -0.00558783)
(0.0614496 0.0257365 -0.00552642)
(0.0747379 0.0776887 -0.00938548)
(0.0684362 0.135463 -0.0142565)
(0.0639502 0.200077 -0.0183464)
(0.0457233 0.275181 -0.0136895)
(0.00771855 0.324337 -0.00356099)
(-0.0478561 0.367289 -0.00524193)
(-0.119696 0.400254 -0.00708292)
(-0.186528 0.42992 -0.00913944)
(-0.249401 0.459599 -0.00933983)
(-0.308966 0.494366 -0.00746894)
(-0.366724 0.522213 -0.00456693)
(-0.418222 0.552504 0.00170928)
(-0.46939 0.581005 0.00664581)
(-0.50376 0.61156 0.00837906)
(-0.537974 0.643536 0.00863019)
(-0.544429 0.689155 0.0105461)
(-0.570972 0.722784 0.00880951)
(-0.501258 0.747396 0.0347895)
(-0.326445 0.699317 0.0497617)
(-0.280959 0.681901 0.0599948)
(-0.283879 0.628373 0.073568)
(-0.291076 0.586573 0.0767337)
(-0.296376 0.544979 0.0770581)
(-0.293806 0.501763 0.0744006)
(-0.284597 0.461049 0.0684646)
(-0.269358 0.413996 0.0660735)
(-0.25893 0.37639 0.0457522)
(-0.249216 0.333498 0.0349326)
(-0.238818 0.303038 0.0208027)
(-0.225566 0.27824 0.00907136)
(-0.234105 0.265575 -0.00251978)
(-0.239691 0.24148 -0.0151618)
(-0.174464 0.192594 -0.0138217)
(-0.0925111 0.161466 -0.0149499)
(-0.0402894 0.134918 -0.0117499)
(-0.00446235 0.103229 -0.00663904)
(0.00257734 0.04847 0.00202514)
(0.00805059 -0.00293049 0.00073825)
(0.0387274 0.0118018 -0.00999436)
(0.0811444 0.051813 -0.0096221)
(0.10562 0.10641 -0.0112839)
(0.101299 0.169154 -0.0147066)
(0.0980897 0.244286 -0.0176774)
(0.0523768 0.303194 -0.00921065)
(-0.0129991 0.33552 0.00259395)
(-0.0603146 0.379 -0.00230523)
(-0.116966 0.420356 -0.00301674)
(-0.166068 0.466702 -0.00315118)
(-0.217053 0.508943 -0.00140801)
(-0.263772 0.547513 0.00175448)
(-0.310394 0.581115 0.00712912)
(-0.350874 0.613531 0.014382)
(-0.385164 0.638825 0.0199582)
(-0.410016 0.66551 0.0258213)
(-0.426636 0.678811 0.0292693)
(-0.420779 0.703619 0.0259878)
(-0.442183 0.718798 0.0170571)
(-0.431082 0.737352 0.0316913)
(-0.290151 0.632796 0.0529293)
(-0.230964 0.583474 0.0570902)
(-0.250725 0.52349 0.0702108)
(-0.267798 0.48028 0.0711662)
(-0.289401 0.44256 0.0710862)
(-0.302627 0.406938 0.0672882)
(-0.309792 0.373079 0.0605677)
(-0.308002 0.33655 0.0479206)
(-0.309206 0.302514 0.032763)
(-0.306513 0.269953 0.0198495)
(-0.298461 0.242181 0.00790385)
(-0.285941 0.223056 -0.00156583)
(-0.283463 0.207368 -0.00828258)
(-0.287385 0.217698 -0.0176911)
(-0.226389 0.193094 -0.0205062)
(-0.127314 0.166551 -0.0217215)
(-0.0558939 0.145894 -0.0167366)
(-0.00975416 0.11184 -0.0105764)
(0.00247483 0.0529789 0.000288373)
(0.00720631 0.0045336 -0.00308415)
(0.0453751 0.031038 -0.0133168)
(0.0996127 0.080274 -0.0136481)
(0.124813 0.135685 -0.0109039)
(0.129047 0.194179 -0.011814)
(0.112503 0.265498 -0.011909)
(0.0510878 0.294234 -0.000812039)
(0.00341274 0.346979 0.00532984)
(-0.0312406 0.393742 0.00151025)
(-0.081178 0.447096 0.00290454)
(-0.123594 0.490796 0.00399074)
(-0.166241 0.527834 0.0100413)
(-0.202219 0.560748 0.0161701)
(-0.232911 0.587611 0.0236059)
(-0.261284 0.612483 0.0280827)
(-0.289369 0.627882 0.0322273)
(-0.309153 0.638948 0.0348394)
(-0.327237 0.639872 0.0341456)
(-0.326561 0.634328 0.031042)
(-0.342619 0.615434 0.0145683)
(-0.382957 0.61833 0.0154463)
(-0.293824 0.540253 0.0341615)
(-0.219617 0.456951 0.0368836)
(-0.239681 0.41775 0.0483419)
(-0.263982 0.380848 0.0524337)
(-0.295145 0.356618 0.0539597)
(-0.318628 0.330142 0.0549565)
(-0.336676 0.304784 0.0481099)
(-0.346089 0.276569 0.039284)
(-0.354342 0.246708 0.0175581)
(-0.35597 0.215142 0.00963912)
(-0.346749 0.190708 0.000485839)
(-0.332864 0.177521 -0.00757462)
(-0.317304 0.169494 -0.0113111)
(-0.325559 0.191082 -0.0207897)
(-0.27634 0.196177 -0.0206349)
(-0.16126 0.171933 -0.022423)
(-0.0742806 0.155032 -0.0176088)
(-0.0148669 0.119078 -0.0102633)
(0.00363605 0.0565825 0.00104647)
(0.00628182 0.0150679 -0.00570561)
(0.0534609 0.0614925 -0.0179657)
(0.119316 0.117861 -0.0193902)
(0.150778 0.173027 -0.0131905)
(0.158191 0.234519 -0.0141819)
(0.12586 0.282866 -0.0110488)
(0.0691291 0.321112 -0.00215837)
(0.0319046 0.377632 0.00528458)
(0.00357128 0.415576 0.0113128)
(-0.0315424 0.45607 0.0112274)
(-0.0712154 0.49431 0.0154585)
(-0.102646 0.520967 0.0209694)
(-0.128681 0.543526 0.0279977)
(-0.153716 0.556042 0.0341241)
(-0.177553 0.560133 0.0362194)
(-0.202696 0.556911 0.0367996)
(-0.225281 0.549916 0.0355518)
(-0.25178 0.535433 0.0309872)
(-0.27284 0.521564 0.024897)
(-0.29213 0.49169 0.00996302)
(-0.344129 0.480597 -0.000233235)
(-0.316721 0.45206 0.0100488)
(-0.240049 0.353422 0.018589)
(-0.23847 0.336806 0.024678)
(-0.268282 0.310842 0.032565)
(-0.303073 0.296657 0.0370708)
(-0.336092 0.278596 0.0422403)
(-0.3614 0.256616 0.0386817)
(-0.381052 0.232895 0.0240969)
(-0.398608 0.199865 0.00927111)
(-0.40166 0.175387 -0.000519427)
(-0.3892 0.152406 -0.00579054)
(-0.374252 0.138875 -0.0117078)
(-0.34759 0.140386 -0.0194641)
(-0.338123 0.153288 -0.0234451)
(-0.305541 0.190652 -0.0283934)
(-0.196889 0.174048 -0.0264646)
(-0.0896486 0.164117 -0.0245419)
(-0.0198809 0.128779 -0.0136331)
(0.00450999 0.0623921 -0.00112562)
(0.00773379 0.03178 -0.00867325)
(0.0625072 0.100535 -0.0256792)
(0.137479 0.161122 -0.0248803)
(0.175917 0.214739 -0.0153867)
(0.176597 0.267069 -0.014682)
(0.144131 0.299691 -0.013437)
(0.102552 0.347778 -0.00280402)
(0.0698736 0.394216 0.00923608)
(0.0390799 0.431244 0.0159307)
(0.0149723 0.457977 0.0263531)
(-0.0121647 0.47999 0.0231753)
(-0.0432602 0.49312 0.0335177)
(-0.0661846 0.501364 0.0384373)
(-0.0892349 0.491856 0.0439665)
(-0.112967 0.476553 0.0435588)
(-0.139595 0.453775 0.0403988)
(-0.167185 0.430255 0.0351801)
(-0.197705 0.405104 0.0278048)
(-0.228035 0.388733 0.0194715)
(-0.261403 0.371422 0.00450531)
(-0.316534 0.3571 -0.00783431)
(-0.339985 0.35669 -0.007168)
(-0.270889 0.29172 0.00742761)
(-0.235774 0.281846 0.0102501)
(-0.269549 0.264492 0.0206932)
(-0.30426 0.256599 0.0282478)
(-0.343713 0.237547 0.0372609)
(-0.376209 0.220627 0.0321204)
(-0.404484 0.190708 0.0247231)
(-0.420389 0.164319 0.00969214)
(-0.425935 0.136339 0.0110711)
(-0.4219 0.115051 0.0174844)
(-0.402397 0.0956263 0.0145079)
(-0.378533 0.0974906 0.00895739)
(-0.358923 0.111208 -0.0130003)
(-0.328242 0.159659 -0.0242452)
(-0.227248 0.171589 -0.0248321)
(-0.106987 0.163998 -0.0215092)
(-0.0256984 0.136581 -0.0126321)
(0.00563117 0.0666046 7.0044e-05)
(0.00879122 0.0532082 -0.0112587)
(0.070567 0.142664 -0.0319535)
(0.154974 0.207133 -0.0311209)
(0.197471 0.255336 -0.0179441)
(0.19482 0.292256 -0.0118311)
(0.16992 0.326715 -0.0132718)
(0.1411 0.367319 -0.00275192)
(0.110237 0.404151 0.00504337)
(0.0848347 0.432339 0.0132894)
(0.0568312 0.453019 0.0288481)
(0.0284415 0.457704 0.037261)
(0.0116989 0.458497 0.0471181)
(-0.0122014 0.445517 0.0469132)
(-0.0421922 0.424478 0.0501138)
(-0.0686578 0.395901 0.0478192)
(-0.0998786 0.364423 0.0409548)
(-0.132569 0.334521 0.0326127)
(-0.167214 0.307851 0.0239423)
(-0.201217 0.292911 0.0153088)
(-0.240802 0.277814 0.00237495)
(-0.293482 0.27029 -0.00721141)
(-0.331823 0.275183 -0.0113411)
(-0.27429 0.260283 0.000756328)
(-0.229404 0.245806 0.00108061)
(-0.257931 0.233835 0.0134813)
(-0.296373 0.221885 0.0222787)
(-0.340908 0.206445 0.0314303)
(-0.378242 0.18381 0.0298412)
(-0.410281 0.157795 0.0194392)
(-0.433739 0.128229 0.0303604)
(-0.448076 0.0938118 0.0315925)
(-0.450114 0.065556 0.018637)
(-0.436966 0.0516042 0.0133327)
(-0.403557 0.0482222 0.00582133)
(-0.366371 0.0635461 -0.000246767)
(-0.335723 0.109604 -0.0220425)
(-0.251047 0.150897 -0.0284044)
(-0.124511 0.160035 -0.0235104)
(-0.02855 0.140345 -0.0150132)
(0.00487872 0.0707886 -0.00155587)
(0.0094565 0.0726657 -0.0118801)
(0.0766474 0.18392 -0.0357959)
(0.167592 0.250888 -0.034194)
(0.21045 0.287417 -0.0176163)
(0.214347 0.316112 -0.00984645)
(0.199238 0.348035 -0.006845)
(0.176005 0.37934 -0.00525771)
(0.149096 0.403574 0.00816459)
(0.12245 0.423191 0.0129779)
(0.0983182 0.431537 0.0252565)
(0.0753541 0.434125 0.0364646)
(0.0470848 0.42271 0.0518983)
(0.0219643 0.395939 0.0554286)
(-0.0027107 0.361901 0.0548255)
(-0.0349608 0.330379 0.0481317)
(-0.0696065 0.297492 0.0379024)
(-0.106921 0.27064 0.0269074)
(-0.141203 0.248957 0.0180239)
(-0.179737 0.240445 0.0084214)
(-0.223602 0.228723 -0.000196767)
(-0.270295 0.227199 -0.00784688)
(-0.30511 0.22988 -0.0113069)
(-0.256422 0.243178 -0.0024478)
(-0.212685 0.224306 -0.00315108)
(-0.238791 0.207034 0.00856147)
(-0.274513 0.190215 0.018109)
(-0.32219 0.17202 0.0253958)
(-0.363182 0.148984 0.0211307)
(-0.399719 0.121502 0.0378849)
(-0.432782 0.0867936 0.0452281)
(-0.454725 0.0537198 0.0402912)
(-0.456381 0.0280841 0.0513034)
(-0.449309 0.0047248 0.0399563)
(-0.433106 0.00111316 0.0341101)
(-0.396461 0.0107736 0.0249519)
(-0.352375 0.057431 0.00386117)
(-0.263769 0.111889 -0.0249589)
(-0.138436 0.148396 -0.0249564)
(-0.0345713 0.138847 -0.0142989)
(0.00600597 0.0740815 -0.00151312)
(0.0101091 0.092917 -0.0113379)
(0.0803654 0.223545 -0.0385404)
(0.171903 0.291185 -0.037319)
(0.220944 0.319885 -0.0187455)
(0.235942 0.34216 -0.00590597)
(0.228237 0.365433 0.000243577)
(0.207166 0.386969 0.0046897)
(0.182513 0.400807 0.00568953)
(0.161149 0.410001 0.0163089)
(0.137667 0.411392 0.0263836)
(0.110708 0.401653 0.0356827)
(0.0839532 0.382328 0.0426154)
(0.050852 0.353784 0.0552556)
(0.0204577 0.316922 0.0551496)
(-0.00828449 0.277466 0.0468147)
(-0.0455683 0.251114 0.0326234)
(-0.0842271 0.226382 0.0207785)
(-0.117752 0.210979 0.0124775)
(-0.15647 0.203908 0.00336367)
(-0.198819 0.198721 -0.00174922)
(-0.23978 0.198343 -0.00779568)
(-0.259237 0.205051 -0.00820457)
(-0.218189 0.235988 -0.00268363)
(-0.193952 0.210352 -0.00336721)
(-0.21289 0.181524 0.00495062)
(-0.246967 0.158188 0.0132031)
(-0.291829 0.132772 0.0179829)
(-0.33478 0.110386 0.0306273)
(-0.379072 0.077663 0.043296)
(-0.4167 0.0465287 0.0466228)
(-0.439553 0.0137737 0.0661677)
(-0.465655 -0.0238168 0.0469626)
(-0.473113 -0.065022 0.035362)
(-0.45557 -0.0858187 0.0143253)
(-0.415385 -0.0732414 0.00442903)
(-0.370646 -0.0244209 0.0091454)
(-0.284973 0.0607141 -0.0023787)
(-0.152593 0.117058 -0.03109)
(-0.0395079 0.131395 -0.0144162)
(0.00635581 0.0754637 -0.00309532)
(0.00908037 0.0994598 -0.0104001)
(0.0787846 0.247369 -0.0407332)
(0.172495 0.31874 -0.0414676)
(0.227314 0.344685 -0.0218961)
(0.252996 0.358496 -0.00348667)
(0.25244 0.369004 0.00639112)
(0.233404 0.380528 0.0125102)
(0.210539 0.388742 0.0160866)
(0.190263 0.393887 0.0190128)
(0.167454 0.388087 0.0230919)
(0.14352 0.373185 0.0292131)
(0.111871 0.348448 0.0397763)
(0.0781099 0.315598 0.0417788)
(0.0417031 0.282042 0.0494999)
(0.0113223 0.244278 0.0443914)
(-0.0209138 0.214616 0.0255883)
(-0.062399 0.195935 0.0150575)
(-0.0923152 0.183672 0.00781512)
(-0.128295 0.177098 -5.54947e-05)
(-0.167 0.173287 -0.0029705)
(-0.197698 0.172733 -0.00572044)
(-0.193841 0.199479 -0.000922092)
(-0.17009 0.216034 -0.00207496)
(-0.175646 0.187997 -0.0012879)
(-0.191249 0.154856 0.00247689)
(-0.215501 0.1204 0.00931851)
(-0.254614 0.0960915 0.0137752)
(-0.296516 0.0664461 0.0317585)
(-0.340644 0.0395505 0.0395382)
(-0.378832 0.00935547 0.0606779)
(-0.427212 -0.0326683 0.0452723)
(-0.468978 -0.0861337 0.0382659)
(-0.486824 -0.129779 0.024561)
(-0.474811 -0.162003 0.0139215)
(-0.434218 -0.165178 -0.00560645)
(-0.373127 -0.123574 -0.00684989)
(-0.291018 -0.0211184 -0.000559615)
(-0.171397 0.0765132 -0.0168656)
(-0.0435568 0.117512 -0.0199115)
(0.00723868 0.0759063 -0.00206048)
(0.00785325 0.109774 -0.00894747)
(0.0769909 0.272287 -0.0405705)
(0.171382 0.348307 -0.0430936)
(0.232679 0.371716 -0.0230709)
(0.264919 0.377753 -0.00263121)
(0.270199 0.375619 0.0116369)
(0.259066 0.37824 0.0208586)
(0.241812 0.380356 0.0235301)
(0.222657 0.378219 0.0261643)
(0.198179 0.366245 0.0277977)
(0.170355 0.34641 0.0295631)
(0.13854 0.316201 0.0273545)
(0.101356 0.284496 0.0296242)
(0.0628824 0.247883 0.0305451)
(0.027076 0.221083 0.0321605)
(-0.00379331 0.188144 0.0189099)
(-0.0358059 0.172096 0.00909794)
(-0.0655779 0.164235 0.00347616)
(-0.0975304 0.151722 -0.00237765)
(-0.129836 0.150978 -0.0028233)
(-0.133343 0.165364 0.000864849)
(-0.129091 0.187187 0.00202283)
(-0.135196 0.179537 0.00182447)
(-0.152555 0.154886 0.00111021)
(-0.169456 0.126674 0.00275888)
(-0.185664 0.0888583 0.00567327)
(-0.216008 0.0611198 0.0177481)
(-0.252623 0.0312619 0.0269783)
(-0.290477 0.0034061 0.0460573)
(-0.344135 -0.0364416 0.0397078)
(-0.400139 -0.089362 0.0378832)
(-0.448506 -0.14133 0.0282912)
(-0.478804 -0.193871 0.0180539)
(-0.483192 -0.234512 0.00310328)
(-0.449494 -0.253504 -0.0109985)
(-0.383913 -0.222037 -0.0203182)
(-0.2936 -0.132411 -0.0185406)
(-0.178382 0.0144138 0.000801075)
(-0.0536616 0.0940704 -0.0269331)
(0.00646614 0.0770415 -0.00337512)
(0.00556856 0.090075 -0.00792665)
(0.0712109 0.266627 -0.0397206)
(0.165843 0.348597 -0.0417565)
(0.231811 0.371756 -0.0222055)
(0.271064 0.37189 0.000936811)
(0.285121 0.365295 0.0149509)
(0.280867 0.363827 0.0205859)
(0.263531 0.358434 0.0237946)
(0.242828 0.351161 0.0258735)
(0.218845 0.338186 0.0264459)
(0.192004 0.317911 0.0258781)
(0.159115 0.291496 0.0222877)
(0.121886 0.258187 0.0183796)
(0.0854777 0.225841 0.01228)
(0.0490079 0.198426 0.0167563)
(0.0163459 0.174562 0.00914219)
(-0.00830578 0.157298 0.00363352)
(-0.0379253 0.145131 -0.00251566)
(-0.0647991 0.139703 -0.00265489)
(-0.0713721 0.148229 0.000592367)
(-0.073766 0.161158 0.00315668)
(-0.0868681 0.155063 0.00532609)
(-0.103774 0.142109 0.00498487)
(-0.12469 0.120775 0.0042765)
(-0.146283 0.100137 0.0044319)
(-0.161085 0.0650008 0.00628054)
(-0.181693 0.0322112 0.0163809)
(-0.211997 0.00309151 0.0302286)
(-0.254587 -0.0326507 0.0292267)
(-0.308927 -0.0773649 0.0326657)
(-0.364432 -0.125297 0.0294708)
(-0.417063 -0.18178 0.0255653)
(-0.455062 -0.240523 0.0161139)
(-0.471261 -0.295429 0.00294697)
(-0.449845 -0.327859 -0.0138355)
(-0.391411 -0.317651 -0.027295)
(-0.288117 -0.237634 -0.0314318)
(-0.176905 -0.0847908 -0.0199522)
(-0.0571242 0.0499308 -0.0194368)
(0.00854811 0.0653277 -0.00881951)
(0.00490822 0.103847 -0.00547944)
(0.0680227 0.286267 -0.0360986)
(0.161438 0.372123 -0.0410103)
(0.233619 0.393443 -0.0200573)
(0.282293 0.388512 0.00440676)
(0.306774 0.373948 0.01444)
(0.30707 0.36277 0.0209797)
(0.29193 0.35057 0.0224342)
(0.274183 0.338724 0.0207211)
(0.249163 0.318924 0.0175945)
(0.220704 0.293043 0.014483)
(0.184851 0.262085 0.00965621)
(0.143629 0.231264 0.0058782)
(0.10563 0.201534 0.00257757)
(0.0690824 0.180953 0.00204919)
(0.0396976 0.166653 -0.00032973)
(0.0139287 0.158253 -0.00349575)
(-0.00452474 0.150736 -0.00247325)
(-0.0131555 0.154338 -0.00119401)
(-0.0232842 0.154219 0.00164942)
(-0.03749 0.141965 0.00456124)
(-0.056 0.126056 0.00725222)
(-0.0748077 0.109301 0.00717278)
(-0.0962808 0.0911185 0.00649029)
(-0.121999 0.0727968 0.00801788)
(-0.14248 0.050502 0.00496441)
(-0.156287 0.0131007 0.00875996)
(-0.182795 -0.0204173 0.0118884)
(-0.221448 -0.0633415 0.0174484)
(-0.26919 -0.106787 0.0192867)
(-0.323563 -0.157365 0.0207271)
(-0.376945 -0.216161 0.0184835)
(-0.419822 -0.280129 0.0128309)
(-0.44563 -0.346352 0.00143631)
(-0.437273 -0.395668 -0.0145338)
(-0.389089 -0.406648 -0.0314482)
(-0.29729 -0.341538 -0.0465501)
(-0.182768 -0.187521 -0.034607)
(-0.0578706 0.00726208 -0.00889016)
(0.00635346 0.0680693 -0.0109944)
(-0.00518253 0.0765359 -0.0152831)
(0.0474792 0.268445 -0.0403633)
(0.142523 0.364352 -0.0464016)
(0.221954 0.387051 -0.0271916)
(0.28005 0.383146 -0.00684459)
(0.313757 0.361178 0.00567957)
(0.322991 0.342962 0.0119029)
(0.309516 0.324491 0.012653)
(0.287403 0.314029 0.0119532)
(0.258945 0.304829 0.008729)
(0.23051 0.293945 0.00652904)
(0.199043 0.276881 0.00356697)
(0.163713 0.257951 0.00177312)
(0.132588 0.236941 0.000428805)
(0.104156 0.217489 0.00300195)
(0.0773176 0.205972 -0.00187891)
(0.0560784 0.193763 -0.00803599)
(0.0386683 0.180093 -0.0052292)
(0.0212113 0.167066 -0.00455827)
(0.00102731 0.147624 -0.000421829)
(-0.0157333 0.125235 0.00421065)
(-0.0325048 0.103695 0.00677397)
(-0.0510448 0.0844217 0.00717579)
(-0.0716465 0.066419 0.00753352)
(-0.0938467 0.0482568 0.00377455)
(-0.121338 0.031026 0.0017251)
(-0.143301 0.00414684 0.00182776)
(-0.166128 -0.0311364 0.0010511)
(-0.20146 -0.0682326 0.00429689)
(-0.243099 -0.111206 0.00901582)
(-0.290815 -0.161391 0.0126254)
(-0.339346 -0.22564 0.0134047)
(-0.381773 -0.299403 0.00969551)
(-0.411215 -0.379301 0.000388847)
(-0.411118 -0.445873 -0.0137686)
(-0.371112 -0.477151 -0.0319753)
(-0.27907 -0.439474 -0.0547001)
(-0.166015 -0.307291 -0.0561605)
(-0.0453095 -0.0876079 -0.0210581)
(0.00953396 0.0358815 -0.00784814)
(-0.00623191 0.168107 -0.00786444)
(0.043218 0.378307 -0.0229656)
(0.131392 0.47812 -0.0336032)
(0.212841 0.501117 -0.0136925)
(0.278121 0.489671 -0.00552069)
(0.319617 0.45937 0.0116214)
(0.338025 0.424033 0.0149881)
(0.33728 0.409078 0.0166905)
(0.333451 0.41103 0.0119183)
(0.313339 0.408373 0.00640529)
(0.283083 0.396691 0.000580476)
(0.244441 0.372868 -0.00359879)
(0.201107 0.341067 -0.00675866)
(0.159338 0.307705 -0.00668096)
(0.126198 0.272953 -0.00557505)
(0.0994585 0.241867 -0.00223276)
(0.069321 0.213828 -0.00788012)
(0.0494078 0.187588 -0.0087267)
(0.0359855 0.156607 -0.00644843)
(0.0167258 0.131918 -0.00368925)
(-0.000174517 0.110707 0.0012406)
(-0.0162341 0.0862189 0.0053016)
(-0.0317206 0.0661571 0.00637348)
(-0.0513178 0.0453465 0.00883169)
(-0.073624 0.0270154 0.00171605)
(-0.0974276 0.00853964 0.005327)
(-0.120751 -0.00529847 0.0042608)
(-0.144889 -0.0309363 -0.000276813)
(-0.174019 -0.0680272 -0.00557253)
(-0.212985 -0.117134 -0.00840116)
(-0.261415 -0.169547 -0.00755754)
(-0.311718 -0.230801 -0.00538446)
(-0.35565 -0.298392 -0.00295743)
(-0.386714 -0.382879 -0.00740052)
(-0.39066 -0.463956 -0.0204714)
(-0.366543 -0.528527 -0.0487416)
(-0.301453 -0.520856 -0.0745183)
(-0.193051 -0.39592 -0.0707204)
(-0.0554466 -0.155391 -0.042609)
(0.01031 0.0346249 -0.00630631)
(-0.0188801 0.252315 -0.0227744)
(0.0171359 0.493548 -0.044183)
(0.106361 0.603796 -0.0528885)
(0.190599 0.645089 -0.0397575)
(0.261281 0.637627 -0.0287825)
(0.307699 0.610597 -0.013597)
(0.34584 0.56811 -0.00273403)
(0.372444 0.540648 -0.00227278)
(0.365785 0.520824 -0.00692263)
(0.328384 0.492196 -0.00977185)
(0.28362 0.455687 -0.0105349)
(0.235846 0.411742 -0.0110303)
(0.192501 0.362836 -0.0102161)
(0.156789 0.316242 -0.00889297)
(0.126513 0.272227 -0.00690858)
(0.10178 0.233008 -0.00409239)
(0.083189 0.197832 -0.000314209)
(0.0617413 0.171002 -0.00546483)
(0.044481 0.143499 -0.00560205)
(0.0330026 0.11689 -0.00410556)
(0.0148418 0.0935133 -0.00167825)
(-0.00217066 0.0737352 0.00284791)
(-0.0176833 0.0486564 0.00578621)
(-0.0361895 0.030002 0.00650239)
(-0.0537715 0.0117576 0.00547525)
(-0.0722797 -0.00412062 0.00949451)
(-0.0940468 -0.0187409 0.00872511)
(-0.128717 -0.036111 0.0049863)
(-0.170915 -0.0615381 0.00434605)
(-0.204943 -0.102459 0.00410891)
(-0.23617 -0.152887 0.000905018)
(-0.264572 -0.226006 -0.00558048)
(-0.298201 -0.317261 -0.0156433)
(-0.332221 -0.439985 -0.0245048)
(-0.352738 -0.555491 -0.0340751)
(-0.344612 -0.661089 -0.0545369)
(-0.276863 -0.691783 -0.0792671)
(-0.18228 -0.58386 -0.0887326)
(-0.0618453 -0.300875 -0.0636447)
(0.0106865 -0.0106733 -0.0103699)
(-0.000210812 0.218298 0.00184856)
(0.0370594 0.460577 -0.0344984)
(0.109448 0.585085 -0.0464562)
(0.191921 0.640317 -0.0419994)
(0.260749 0.643735 -0.0328289)
(0.309785 0.623005 -0.022323)
(0.346512 0.58701 -0.014815)
(0.370362 0.546753 -0.00691695)
(0.365954 0.505276 -0.00794374)
(0.330468 0.467343 -0.00716404)
(0.286942 0.428771 -0.00666044)
(0.2389 0.388551 -0.00541815)
(0.194728 0.345127 -0.0047619)
(0.157633 0.303521 -0.00347331)
(0.129926 0.260982 -0.00369635)
(0.109212 0.223055 -0.00171062)
(0.0885456 0.18559 -0.00173046)
(0.0742571 0.154011 0.000618049)
(0.0590018 0.130732 -1.55592e-05)
(0.0413823 0.104501 -0.00332797)
(0.0291739 0.0835978 -0.00120484)
(0.00976279 0.0607907 0.000425685)
(-0.0054485 0.0424425 0.00837505)
(-0.0179229 0.0213701 0.00684562)
(-0.0354568 0.00436834 0.00615552)
(-0.0520611 -0.0117891 0.00930081)
(-0.0704306 -0.0287635 0.010606)
(-0.0955977 -0.0458312 0.00914299)
(-0.133693 -0.0564303 0.00541341)
(-0.176129 -0.0727163 0.00430087)
(-0.227291 -0.103032 0.00471126)
(-0.283223 -0.158669 0.00716876)
(-0.33726 -0.239546 0.00926363)
(-0.359492 -0.357849 0.00613505)
(-0.353174 -0.488243 -0.0031007)
(-0.335898 -0.629887 -0.0168374)
(-0.27249 -0.717754 -0.0353077)
(-0.163342 -0.700787 -0.0578789)
(-0.0317136 -0.440532 -0.0578137)
(0.022539 -0.0768944 0.000600389)
(-0.000108584 0.236007 0.00010497)
(0.0362363 0.453358 -0.0292018)
(0.10352 0.576115 -0.0397003)
(0.17971 0.632435 -0.0373618)
(0.247204 0.637884 -0.023127)
(0.297725 0.61592 -0.0166247)
(0.33925 0.577418 -0.00734285)
(0.365599 0.537645 -0.00161725)
(0.36227 0.491973 -0.00136873)
(0.329309 0.453306 -0.000728711)
(0.284337 0.412835 -0.000460226)
(0.235131 0.371421 -0.000130181)
(0.193238 0.32986 -0.000241419)
(0.159457 0.290254 -0.000583671)
(0.132123 0.25103 -0.00069398)
(0.110761 0.211976 0.000241237)
(0.0960429 0.174136 0.00132474)
(0.0858956 0.140677 0.00252812)
(0.0708675 0.114033 0.00235571)
(0.0588205 0.091453 0.00475633)
(0.0415151 0.0719218 0.00116019)
(0.0251996 0.0527194 0.000802428)
(0.0105823 0.0343506 0.00462697)
(-0.00630851 0.0177065 0.00589519)
(-0.0174234 -0.00344806 0.00698814)
(-0.0328123 -0.0196035 0.00827651)
(-0.0502069 -0.0389362 0.00982658)
(-0.0701014 -0.0592085 0.0106801)
(-0.0985124 -0.0770798 0.0107373)
(-0.132638 -0.0950764 0.0090642)
(-0.174372 -0.113932 0.00921955)
(-0.215056 -0.145621 0.00900423)
(-0.269897 -0.185957 0.00937226)
(-0.31619 -0.256731 0.00974191)
(-0.347672 -0.358756 0.00677959)
(-0.362372 -0.504534 0.00215191)
(-0.330267 -0.617348 -0.0102627)
(-0.230647 -0.651489 -0.0324911)
(-0.0604896 -0.443503 -0.046729)
(0.0257206 -0.0409267 -0.0215101)
(0.00650698 0.208125 0.000145565)
(0.043954 0.405726 -0.0239978)
(0.104226 0.535911 -0.0330019)
(0.177587 0.597136 -0.0321299)
(0.242849 0.612715 -0.0196295)
(0.292975 0.59428 -0.0123061)
(0.336499 0.558445 -0.00295404)
(0.36063 0.515292 0.00197281)
(0.357941 0.46593 0.00274222)
(0.32831 0.423766 0.00294716)
(0.283147 0.382543 0.00350649)
(0.236559 0.344646 0.00396835)
(0.197066 0.308284 0.00347719)
(0.164082 0.272316 0.00313956)
(0.137252 0.235881 0.00237313)
(0.117012 0.199843 0.0026996)
(0.0999547 0.165769 0.00351889)
(0.0939422 0.130918 0.00588457)
(0.0860762 0.103835 0.005688)
(0.0719846 0.0792833 0.00504892)
(0.0602055 0.0635624 0.00560733)
(0.040078 0.0440359 0.00486722)
(0.0264731 0.0288239 0.00376255)
(0.0114122 0.0117739 0.00307631)
(-0.00436973 -0.00437477 0.00685019)
(-0.0167031 -0.02372 0.00736353)