/*--------------------------------*- C++ -*----------------------------------*\
| =========                 |                                                 |
| \\      /  F ield         | OpenFOAM: The Open Source CFD Toolbox           |
|  \\    /   O peration     | Version:  v1806                                 |
|   \\  /    A nd           | Web:      www.OpenFOAM.com                      |
|    \\/     M anipulation  |                                                 |
\*---------------------------------------------------------------------------*/
FoamFile
{
    version     2.0;
    format      ascii;
    class       vectorField;
    location    "0.071";
    object      currentcloudofpoints;
}
// * * * * * * * * * * * * * * * * * * * * * * * * * * * * * * * * * * * * * //


2409
(
(0.930549 1.39377 0.997633)
(0.699062 1.01793 1.01516)
(1.31658 1.3278 0.999178)
(0.965184 1.1924 0.837566)
(0.956817 1.18954 1.15538)
(1.11002 1.1064 1.00028)
(0.870335 1.5787 1.00235)
(0.595658 0.836956 0.99437)
(1.50026 1.46678 0.999506)
(1.09314 1.11416 0.65882)
(1.07192 1.10317 1.3204)
(1.29181 1.31648 1.07433)
(1.22737 1.28505 1.12488)
(1.14728 1.22512 1.14517)
(1.06085 1.17939 1.1421)
(1.30628 1.32458 1.03908)
(1.26132 1.2998 1.10134)
(1.18321 1.25936 1.13887)
(1.10664 1.19042 1.14166)
(1.0063 1.1934 1.14486)
(0.735805 1.04383 1.17543)
(0.792031 1.08117 1.2303)
(0.843648 1.11539 1.19741)
(0.88014 1.13842 1.15408)
(0.715679 1.02871 1.11233)
(0.760993 1.06613 1.20867)
(0.824362 1.10026 1.21883)
(0.855081 1.12435 1.16201)
(0.912548 1.16144 1.15098)
(1.28661 1.31839 0.922123)
(1.22275 1.28561 0.872814)
(1.14049 1.22957 0.858072)
(1.05797 1.1761 0.857034)
(1.30356 1.32371 0.958122)
(1.25578 1.30264 0.895975)
(1.17954 1.25947 0.862387)
(1.10024 1.1965 0.859947)
(1.00832 1.18537 0.850628)
(0.880116 1.13784 0.84536)
(0.841269 1.11377 0.815831)
(0.80014 1.08269 0.793201)
(0.728594 1.02594 0.852014)
(0.916358 1.16635 0.845381)
(0.853391 1.12095 0.841971)
(0.824952 1.10166 0.801045)
(0.76345 1.0565 0.819286)
(0.704975 1.02021 0.917438)
(0.93984 1.27086 1.1726)
(0.962705 1.36215 1.22028)
(0.929854 1.3979 1.16082)
(0.913412 1.40032 1.09359)
(0.932703 1.22473 1.14578)
(0.958707 1.31852 1.20894)
(0.946757 1.38671 1.19024)
(0.920121 1.40035 1.12643)
(0.92488 1.39334 1.04471)
(0.915077 1.40214 0.896353)
(0.923403 1.4005 0.821263)
(0.968758 1.3682 0.766277)
(0.941025 1.26937 0.824407)
(0.928416 1.39472 0.949062)
(0.915868 1.40237 0.858689)
(0.946005 1.39236 0.793213)
(0.966243 1.32126 0.779363)
(0.935543 1.22326 0.851297)
(0.68851 1.06619 1.02689)
(0.689844 1.11092 1.0275)
(0.719915 1.16491 1.01007)
(0.790338 1.27847 0.999068)
(0.694536 1.04843 1.02903)
(0.689727 1.09405 1.02639)
(0.706589 1.14017 1.02129)
(0.748434 1.21262 1.00053)
(0.860697 1.34483 0.999913)
(1.04977 1.43725 1.00699)
(1.13796 1.42837 1.00629)
(1.19803 1.39315 0.999218)
(1.26516 1.36152 0.999793)
(0.991135 1.42507 0.99976)
(1.10027 1.43357 1.00987)
(1.16712 1.41167 1.00085)
(1.22171 1.36936 1.00009)
(1.29889 1.35313 0.999237)
(0.580891 0.879633 1.19782)
(0.671531 0.91136 1.30025)
(0.767893 0.955786 1.39332)
(0.839651 0.974568 1.43404)
(0.882319 0.988034 1.39698)
(0.945131 1.02422 1.34091)
(1.0323 1.0563 1.3057)
(0.584927 0.852966 1.11487)
(0.62787 0.878952 1.24999)
(0.718259 0.938907 1.35345)
(0.809131 0.966253 1.41817)
(0.864338 0.979796 1.4186)
(0.905014 1.0032 1.36824)
(0.996454 1.04219 1.30394)
(1.05879 1.07632 1.30641)
(1.14041 1.17501 1.37322)
(1.21624 1.1967 1.35188)
(1.27384 1.23914 1.31451)
(1.33301 1.2832 1.28465)
(1.4001 1.32769 1.23876)
(1.45719 1.39338 1.17528)
(1.49195 1.44864 1.09408)
(1.09454 1.14287 1.35261)
(1.18332 1.18447 1.36496)
(1.24441 1.21653 1.32953)
(1.3006 1.26204 1.29684)
(1.36386 1.30274 1.26271)
(1.42879 1.35742 1.20721)
(1.47617 1.42107 1.13667)
(1.49726 1.45912 1.04742)
(0.592025 0.872062 0.797028)
(0.673165 0.915358 0.691532)
(0.768424 0.94326 0.601501)
(0.835256 0.97459 0.568137)
(0.888543 0.994013 0.594641)
(0.945942 1.02448 0.655097)
(1.03978 1.05522 0.682769)
(0.594471 0.85107 0.88895)
(0.610887 0.914379 0.733785)
(0.729324 0.921738 0.638972)
(0.805321 0.96085 0.582597)
(0.865443 0.983395 0.578327)
(0.910218 1.0068 0.626093)
(0.998547 1.03903 0.685242)
(1.07324 1.08114 0.67562)
(1.49073 1.44838 0.906245)
(1.45785 1.39492 0.824521)
(1.40135 1.32907 0.761664)
(1.33495 1.28217 0.714854)
(1.27426 1.23734 0.684696)
(1.21765 1.19708 0.651284)
(1.15369 1.16797 0.632069)
(1.49596 1.4586 0.952027)
(1.47589 1.42179 0.863772)
(1.42988 1.3595 0.792525)
(1.36571 1.30261 0.737965)
(1.30197 1.26039 0.7012)
(1.24413 1.21571 0.672162)
(1.18674 1.18288 0.640502)
(1.11988 1.14558 0.641114)
(0.876101 1.58863 1.19045)
(0.867747 1.55966 1.28337)
(0.87917 1.48883 1.33657)
(0.933606 1.38094 1.41057)
(0.964443 1.28527 1.42862)
(0.991758 1.21106 1.42591)
(1.03082 1.15215 1.35219)
(0.878262 1.59903 1.11493)
(0.873353 1.57445 1.24681)
(0.870363 1.52517 1.31222)
(0.908359 1.43975 1.37433)
(0.952468 1.3243 1.42803)
(0.973902 1.24947 1.41742)
(1.00259 1.17946 1.40459)
(1.05194 1.127 1.31355)
(0.869036 1.58808 0.811065)
(0.863857 1.55893 0.719403)
(0.885872 1.48632 0.657237)
(0.935702 1.37989 0.590882)
(0.972783 1.28848 0.562391)
(0.984559 1.22584 0.580315)
(1.02076 1.16104 0.635428)
(0.868413 1.58307 0.886061)
(0.865458 1.57654 0.758827)
(0.872701 1.52257 0.684469)
(0.911851 1.4382 0.629886)
(0.959011 1.32514 0.563407)
(0.977485 1.25918 0.578768)
(0.987629 1.19661 0.594268)
(1.0582 1.13451 0.658338)
(0.574342 0.926882 0.999247)
(0.569042 1.00385 1.0072)
(0.578213 1.08992 0.995117)
(0.588862 1.18804 0.997988)
(0.620995 1.2807 1.00377)
(0.672543 1.35274 0.997274)
(0.746913 1.45103 1.00026)
(0.583033 0.885411 0.995223)
(0.570792 0.96569 1.00456)
(0.571873 1.04599 1.00394)
(0.583544 1.13553 0.990517)
(0.602593 1.23671 1.00556)
(0.644604 1.31719 0.998539)
(0.706783 1.39036 0.997911)
(0.801645 1.52062 1.00161)
(0.984441 1.61213 1.00174)
(1.06365 1.62074 1.0021)
(1.139 1.62846 1.00453)
(1.22748 1.61823 1.00224)
(1.30586 1.60427 1.00012)
(1.37181 1.57736 0.999129)
(1.43825 1.52857 0.999929)
(0.93378 1.60457 1.00307)
(1.02634 1.614 1.00162)
(1.10199 1.62484 1.0036)
(1.18528 1.6227 1.00365)
(1.27168 1.60878 1.00111)
(1.34125 1.58788 0.999252)
(1.40484 1.54995 0.999555)
(1.47195 1.49815 0.999729)
(1.0334 1.11816 0.796041)
(1.09204 1.09676 0.709917)
(0.999889 1.17255 0.818521)
(1.03027 1.12243 1.19409)
(0.99191 1.17318 1.1682)
(1.07207 1.0944 1.27135)
(0.682772 0.850886 0.995652)
(0.695491 0.952454 0.990696)
(0.610259 0.850354 0.992492)
(1.40728 1.37279 0.998908)
(1.36273 1.35104 0.99946)
(1.45835 1.40385 0.998834)
(1.08589 1.55376 1.30214)
(1.12031 1.63094 1.20506)
(1.11885 1.31152 1.3794)
(1.30717 1.57326 1.18929)
(1.02278 1.63729 1.14085)
(1.15398 1.24426 1.38972)
(1.43184 1.50139 1.15006)
(1.36054 1.51446 1.24525)
(1.03095 1.62592 1.23386)
(1.19858 1.58871 1.25361)
(1.21203 1.61261 1.15559)
(0.981644 1.52339 1.33459)
(1.24555 1.50255 1.30097)
(1.37011 1.55933 1.14864)
(1.14583 1.48504 1.33568)
(1.39753 1.5551 1.07221)
(1.21762 1.29181 1.38901)
(1.34011 1.58417 1.08695)
(0.955398 1.61936 1.21545)
(1.06103 1.22101 1.36598)
(1.02876 1.30191 1.39297)
(1.19052 1.40106 1.36119)
(1.39607 1.41418 1.25307)
(1.11948 1.63356 1.11811)
(0.943548 1.58772 1.2889)
(1.1038 1.39112 1.37118)
(1.34355 1.35624 1.30151)
(1.29907 1.43226 1.32532)
(0.959161 1.63075 1.13153)
(1.08446 1.18409 1.36393)
(1.45605 1.51 1.06365)
(1.05501 1.45771 1.35478)
(0.997334 1.38593 1.40003)
(1.28404 1.33556 1.34599)
(1.1802 1.62234 1.07371)
(1.28533 1.5993 1.09539)
(1.14146 1.21188 1.38586)
(1.18866 1.22651 1.38164)
(1.06809 1.13971 1.34095)
(1.10236 1.184 1.37556)
(1.11857 1.21809 1.37763)
(1.22358 1.24429 1.36722)
(1.25316 1.26411 1.3444)
(1.19108 1.26739 1.39048)
(1.28111 1.28596 1.32095)
(1.30917 1.30846 1.30583)
(1.2513 1.31324 1.36547)
(1.33641 1.31855 1.28761)
(1.36899 1.33793 1.26265)
(1.31282 1.3468 1.3247)
(1.3979 1.36635 1.23933)
(1.42387 1.40018 1.20836)
(1.37047 1.37929 1.27704)
(1.44804 1.44547 1.16544)
(1.46203 1.47309 1.12032)
(1.41763 1.45724 1.20966)
(1.47695 1.48117 1.07921)
(1.4807 1.48867 1.0311)
(1.44313 1.50525 1.10666)
(1.44716 1.5191 1.03237)
(1.05253 1.62485 1.07565)
(1.012 1.6279 1.0862)
(0.993334 1.63448 1.13948)
(0.978408 1.62479 1.06972)
(0.922023 1.61629 1.08013)
(1.1377 1.62431 1.06661)
(1.09915 1.62447 1.07202)
(1.07256 1.63252 1.13184)
(1.20714 1.61729 1.03995)
(1.16202 1.62433 1.04089)
(1.1523 1.62585 1.09754)
(1.29653 1.59916 1.04729)
(1.26231 1.60562 1.05155)
(1.24172 1.60533 1.09242)
(1.35578 1.5777 1.04306)
(1.32475 1.59011 1.04551)
(1.3146 1.58932 1.09229)
(1.41739 1.53951 1.03709)
(1.38439 1.56425 1.03596)
(1.36918 1.56765 1.08009)
(1.42609 1.52959 1.0701)
(1.059 1.59104 1.27405)
(1.07377 1.62564 1.2227)
(1.10272 1.60048 1.26166)
(1.15663 1.61138 1.23283)
(1.13975 1.57515 1.28413)
(1.07535 1.63596 1.17635)
(1.12159 1.63495 1.16291)
(1.16704 1.6227 1.18041)
(1.20602 1.60388 1.20752)
(1.16607 1.62399 1.13597)
(1.14532 1.27959 1.37963)
(1.17422 1.30861 1.38713)
(1.11118 1.23753 1.36577)
(1.09006 1.26804 1.36879)
(1.15535 1.35822 1.37406)
(1.20189 1.34534 1.37915)
(1.06642 1.30455 1.37718)
(1.03777 1.25674 1.38112)
(1.1063 1.34789 1.37544)
(1.06369 1.34768 1.37963)
(1.14706 1.40045 1.36227)
(1.29886 1.58382 1.14772)
(1.32796 1.57478 1.14251)
(1.26369 1.58602 1.18177)
(1.25565 1.59902 1.13362)
(1.3011 1.50314 1.2774)
(1.28538 1.53819 1.25201)
(1.33691 1.54339 1.2187)
(1.34155 1.5629 1.17151)
(1.37088 1.538 1.1999)
(1.35536 1.57055 1.11839)
(1.26052 1.56918 1.2287)
(1.22775 1.54038 1.28288)
(0.995238 1.62219 1.22846)
(0.990713 1.63277 1.18021)
(1.02573 1.63424 1.19245)
(0.957128 1.62521 1.18046)
(0.918203 1.60458 1.20995)
(0.913761 1.59173 1.25585)
(0.918185 1.6142 1.16628)
(0.906242 1.57448 1.28833)
(0.907357 1.54105 1.3175)
(0.949826 1.60399 1.25675)
(0.93132 1.50948 1.33739)
(0.951743 1.45741 1.36754)
(0.963846 1.55788 1.31623)
(0.97982 1.32581 1.417)
(0.967289 1.38374 1.40601)
(0.986312 1.4599 1.36472)
(0.994585 1.29267 1.40668)
(1.00484 1.25327 1.39974)
(1.01399 1.34048 1.39898)
(1.01747 1.20849 1.3962)
(1.04519 1.1858 1.36179)
(1.06048 1.16433 1.34154)
(1.08168 1.20294 1.35241)
(1.03601 1.53227 1.31702)
(1.06802 1.50297 1.32558)
(1.01893 1.4883 1.34301)
(1.09819 1.47037 1.34271)
(1.11635 1.5152 1.31871)
(1.01132 1.57271 1.29816)
(1.17465 1.53546 1.30535)
(1.41579 1.52821 1.11369)
(1.0261 1.42418 1.37579)
(1.04538 1.37902 1.38236)
(1.08046 1.42181 1.36443)
(1.12304 1.44191 1.35335)
(1.2005 1.61655 1.11785)
(1.40187 1.52938 1.15441)
(1.40018 1.50313 1.20433)
(1.37873 1.46314 1.26045)
(1.3841 1.55359 1.11224)
(1.32688 1.4683 1.2917)
(1.26736 1.46891 1.31377)
(1.35209 1.41858 1.29471)
(0.992651 1.60535 1.26679)
(1.19694 1.49408 1.31958)
(1.16613 1.44335 1.34796)
(1.21419 1.45107 1.33619)
(1.24261 1.41727 1.34569)
(1.23907 1.37014 1.36166)
(1.29123 1.38158 1.3419)
(1.32563 1.39283 1.3205)
(0.762112 1.21114 1.42981)
(0.621124 1.3452 1.26077)
(0.591764 1.13958 1.25977)
(0.620422 1.08189 1.27733)
(0.686558 1.36748 1.31521)
(0.867827 1.21816 1.45623)
(0.588498 0.985651 1.25559)
(0.792804 1.52603 1.25119)
(0.937085 1.10813 1.43409)
(0.665387 1.29255 1.33056)
(0.709094 1.12191 1.36357)
(0.68749 1.439 1.24796)
(0.794824 1.28851 1.42091)
(0.882735 1.09175 1.45145)
(0.898243 1.28707 1.4489)
(0.813895 1.37856 1.38425)
(0.687599 1.03061 1.33116)
(0.96956 1.16423 1.43993)
(0.565787 1.03346 1.18887)
(0.591064 1.30927 1.16066)
(0.913127 1.16538 1.44144)
(0.775624 1.45233 1.30875)
(0.93532 1.23025 1.42673)
(0.569849 1.21938 1.15095)
(0.808013 1.10359 1.42849)
(0.78358 1.04148 1.41027)
(0.649177 1.21112 1.32782)
(0.755826 1.15388 1.42023)
(0.845742 1.04405 1.44529)
(0.838104 1.15898 1.44911)
(0.56705 1.20508 1.22912)
(0.598683 1.27449 1.25525)
(0.57016 0.933398 1.15391)
(1.01603 1.10796 1.32001)
(0.560588 1.12286 1.12927)
(0.747143 1.48576 1.11912)
(0.654097 1.37166 1.1033)
(0.574309 1.02597 1.2316)
(0.585501 1.06646 1.24368)
(0.607685 1.03547 1.26727)
(0.566216 0.974752 1.21572)
(0.568035 0.986172 1.17614)
(0.652184 1.05596 1.2984)
(0.640301 1.00248 1.28623)
(0.577024 0.9339 1.23024)
(0.626066 0.939452 1.27108)
(0.568805 0.918442 1.17769)
(0.673312 0.973545 1.31462)
(0.943091 1.0562 1.37423)
(0.998171 1.07195 1.31864)
(0.885032 1.04123 1.43635)
(0.906903 1.05336 1.43004)
(0.910343 1.10026 1.44976)
(1.02729 1.08281 1.2943)
(1.04535 1.10357 1.2947)
(0.96739 1.0979 1.37019)
(0.650728 1.39118 1.25522)
(0.691091 1.40109 1.28811)
(0.657547 1.35814 1.29302)
(0.738427 1.44446 1.28632)
(0.734404 1.40419 1.3177)
(0.74027 1.3287 1.36934)
(0.752388 1.36937 1.35392)
(0.807279 1.32876 1.40609)
(0.67622 1.32742 1.32508)
(0.730721 1.29345 1.37883)
(0.789539 1.41596 1.34336)
(0.647291 1.31925 1.29996)
(0.609134 1.11196 1.27014)
(0.576284 1.08918 1.22911)
(0.560335 1.07084 1.15828)
(0.56025 1.12919 1.20314)
(0.561287 0.995605 1.10958)
(0.568243 0.955047 1.11043)
(0.575139 0.907319 1.08082)
(0.557007 1.05215 1.08205)
(0.742538 1.4805 1.25527)
(0.784428 1.48752 1.28516)
(0.715104 1.47775 1.20261)
(0.770706 1.52285 1.20135)
(0.624456 1.37119 1.20586)
(0.660507 1.41976 1.19152)
(0.695516 1.42327 1.11088)
(0.855227 1.28217 1.44218)
(0.864742 1.32557 1.4249)
(0.882726 1.25201 1.44693)
(0.838292 1.24428 1.4515)
(0.782428 1.24666 1.42957)
(0.82283 1.21013 1.45299)
(0.715972 1.25274 1.38332)
(0.870295 1.0163 1.43677)
(0.864578 1.06742 1.44418)
(0.896024 1.13006 1.44139)
(0.92701 1.13654 1.44308)
(0.863566 1.12982 1.43971)
(0.877745 1.16569 1.44281)
(0.84991 1.09898 1.43602)
(0.827594 1.0762 1.43128)
(0.822316 1.13262 1.43548)
(0.915895 1.32646 1.43214)
(0.883666 1.3779 1.40473)
(0.933894 1.28935 1.43662)
(0.946434 1.25953 1.42309)
(0.917013 1.26183 1.43195)
(0.901677 1.22944 1.43056)
(0.851742 1.42874 1.36516)
(0.830632 1.46692 1.32641)
(0.985757 1.1522 1.40042)
(0.98191 1.18647 1.4342)
(0.955902 1.19085 1.43155)
(0.96402 1.21884 1.42711)
(1.02252 1.12996 1.33422)
(0.970201 1.13253 1.39686)
(0.950382 1.13614 1.43174)
(0.941107 1.16089 1.43508)
(0.924153 1.19617 1.426)
(0.648147 1.13889 1.31081)
(0.660135 1.10847 1.31429)
(0.622686 1.18105 1.29379)
(0.681556 1.16833 1.35033)
(0.558529 1.16475 1.18297)
(0.574623 1.17065 1.24285)
(0.610398 1.21429 1.28092)
(0.702677 1.08068 1.34617)
(0.831805 1.54069 1.27153)
(0.833115 1.55831 1.2231)
(0.810612 1.54818 1.16348)
(0.801356 1.52882 1.07019)
(0.820518 1.50123 1.29905)
(0.85328 1.18943 1.45087)
(0.807819 1.18003 1.44775)
(0.705764 1.21512 1.38142)
(0.662402 1.24834 1.33488)
(0.760375 1.1817 1.427)
(0.703304 1.18669 1.37806)
(0.799782 1.15427 1.43851)
(0.582954 0.869025 1.08084)
(0.56159 1.10357 1.06968)
(0.5715 1.1512 1.06538)
(0.612714 1.29497 1.08032)
(0.59383 1.24839 1.0874)
(0.582147 1.20051 1.0799)
(0.566456 1.17218 1.13945)
(0.577066 1.26382 1.15746)
(0.666798 1.35135 1.04311)
(0.638565 1.31829 1.04621)
(0.621009 1.34555 1.13767)
(0.744686 1.4524 1.05609)
(0.70464 1.39251 1.04871)
(0.725712 0.993202 1.36492)
(0.817285 1.00858 1.42897)
(0.779032 1.00002 1.40293)
(0.737638 1.03875 1.37429)
(0.845183 1.00888 1.44164)
(0.818319 1.04253 1.42855)
(0.890391 1.19646 1.43831)
(0.746535 1.08164 1.3857)
(0.611182 1.3092 1.25991)
(0.638582 1.28546 1.29893)
(0.626283 1.24171 1.29391)
(0.796251 1.07379 1.41678)
(0.761704 1.10908 1.40425)
(0.73575 1.13854 1.39434)
(0.784992 1.12819 1.4255)
(0.585373 1.29425 1.21259)
(0.600482 1.33155 1.21759)
(0.562445 1.21242 1.19387)
(0.571662 1.25029 1.20897)
(0.583846 1.24074 1.24297)
(0.700381 1.15983 0.629312)
(0.734958 1.30904 0.639637)
(0.647061 1.13026 0.674709)
(0.60075 1.09103 0.734366)
(0.649993 1.39534 0.75376)
(0.882862 1.19183 0.543147)
(0.741822 1.47657 0.747167)
(0.94498 1.18374 0.548927)
(0.63747 1.1956 0.685609)
(0.6376 1.32738 0.698917)
(0.825268 1.08791 0.566279)
(0.824537 1.37614 0.617798)
(0.823156 1.22811 0.545546)
(0.685791 1.23526 0.650867)
(0.831166 1.16562 0.553358)
(0.702448 1.39706 0.686004)
(0.921933 1.24293 0.540148)
(0.666555 1.01815 0.676355)
(0.93056 1.1065 0.572631)
(0.583716 1.00217 0.747387)
(0.56886 1.09742 0.876128)
(0.592646 1.30529 0.824216)
(0.559905 1.19575 0.847364)
(0.570497 1.01684 0.833374)
(0.789231 1.45768 0.678793)
(0.583713 1.24871 0.733319)
(0.741512 1.06584 0.606194)
(0.559966 1.14575 0.774602)
(0.887241 1.29091 0.537016)
(0.674791 1.41118 0.886012)
(0.884685 1.10002 0.546535)
(0.579977 0.926056 0.854297)
(0.789101 1.53719 0.825717)
(0.76513 1.15501 0.573236)
(0.819837 1.29554 0.575182)
(1.00393 1.11127 0.656921)
(0.666183 1.21524 0.665142)
(0.699104 1.19849 0.635459)
(0.673577 1.18028 0.654858)
(0.677598 1.14571 0.650048)
(0.647332 1.16454 0.676857)
(0.734461 1.15573 0.599159)
(0.73458 1.19639 0.604409)
(0.697191 1.09287 0.637554)
(0.723546 1.11026 0.614232)
(0.755618 1.11251 0.590354)
(0.908143 1.1527 0.554729)
(0.914993 1.18819 0.555247)
(0.93333 1.14816 0.556697)
(0.899834 1.21938 0.544519)
(0.931891 1.21568 0.557776)
(0.909012 1.10294 0.552695)
(0.882991 1.14742 0.553333)
(0.857661 1.17936 0.548985)
(0.827634 1.19817 0.551137)
(0.856103 1.21072 0.542009)
(0.8763 1.23709 0.536283)
(0.860423 1.13684 0.556576)
(1.00689 1.13687 0.639922)
(1.05634 1.10802 0.675739)
(1.03404 1.08163 0.688766)
(0.721832 1.43291 0.707363)
(0.677094 1.39699 0.709715)
(0.695388 1.43493 0.746274)
(0.749678 1.42329 0.678288)
(0.765336 1.46629 0.705924)
(0.706809 1.45902 0.804917)
(0.664069 1.41238 0.817363)
(0.827927 1.50449 0.694917)
(0.806772 1.51195 0.724636)
(0.766861 1.50863 0.783243)
(0.829909 1.5478 0.756839)
(0.727847 1.48068 0.851588)
(0.953144 1.15109 0.573385)
(0.956452 1.10451 0.61815)
(0.952465 1.23843 0.565123)
(0.963042 1.20698 0.562212)
(0.967688 1.17285 0.575462)
(0.608745 1.22068 0.712032)
(0.637507 1.24071 0.691789)
(0.602582 1.14626 0.723101)
(0.594871 1.17862 0.727263)
(0.566001 1.19787 0.756328)
(0.944206 1.05568 0.632811)
(0.996067 1.07215 0.676247)
(0.911902 1.05644 0.573835)
(0.715507 1.26819 0.641606)
(0.662944 1.27291 0.678307)
(0.684344 1.31567 0.672266)
(0.616816 1.28529 0.711152)
(0.670426 1.36049 0.689738)
(0.640753 1.36189 0.716705)
(0.715982 1.35023 0.664237)
(0.605048 1.32707 0.740514)
(0.61674 1.35372 0.785196)
(0.570737 1.27996 0.766616)
(0.800861 1.15958 0.562135)
(0.827422 1.12798 0.565103)
(0.795609 1.12162 0.571308)
(0.858862 1.09511 0.558347)
(0.86437 1.04268 0.561871)
(0.835721 1.03131 0.569446)
(0.78682 1.07684 0.582661)
(0.799161 1.02087 0.585095)
(0.889391 1.04669 0.563118)
(0.785703 1.33943 0.621653)
(0.765522 1.38503 0.652452)
(0.805896 1.41734 0.648349)
(0.887781 1.37649 0.596701)
(0.859129 1.42723 0.634213)
(0.84114 1.46986 0.664247)
(0.860545 1.32714 0.574173)
(0.91469 1.32671 0.557603)
(0.823572 1.33306 0.595235)
(0.78424 1.30336 0.604133)
(0.855429 1.29116 0.552151)
(0.792138 1.26436 0.582819)
(0.768246 1.23069 0.589459)
(0.797667 1.19351 0.563563)
(0.909743 1.2648 0.533448)
(0.856278 1.25907 0.53932)
(0.824032 1.25804 0.555575)
(0.946617 1.26606 0.554172)
(0.936703 1.29076 0.544212)
(0.654121 1.07607 0.675748)
(0.626443 1.06473 0.704424)
(0.619398 1.11269 0.705734)
(0.596187 1.05016 0.740662)
(0.620679 1.02385 0.714265)
(0.670668 0.965401 0.685085)
(0.723086 0.972091 0.633962)
(0.613459 0.971683 0.720643)
(0.705921 1.03767 0.6395)
(0.760502 1.00428 0.605691)
(0.634669 1.3566 0.85627)
(0.584737 1.1175 0.755523)
(0.579527 1.00899 0.78269)
(0.581199 1.05775 0.775658)
(0.566867 1.0833 0.799814)
(0.827927 1.56348 0.814424)
(0.826402 1.55714 0.897638)
(0.569219 1.01726 0.912461)
(0.57093 0.976731 0.908574)
(0.574945 0.933899 0.924545)
(0.583909 0.886355 0.921829)
(0.576571 0.972216 0.839065)
(0.590301 1.08566 0.924386)
(0.577446 1.05016 0.932249)
(0.563332 1.0538 0.859016)
(0.599413 1.17814 0.899546)
(0.595685 1.13362 0.89104)
(0.564184 1.14692 0.858739)
(0.597541 1.24451 0.905471)
(0.609941 1.28917 0.913389)
(0.571179 1.25064 0.833875)
(0.673215 1.37605 0.946615)
(0.64356 1.33295 0.947005)
(0.710921 1.42612 0.942751)
(0.768731 1.50729 0.910491)
(0.583567 0.900532 0.823474)
(0.580435 0.941532 0.765742)
(0.577801 0.959126 0.788942)
(0.550432 1.11716 0.822252)
(0.543038 1.16435 0.810592)
(0.547951 1.2223 0.788412)
(1.15638 1.61511 0.774414)
(1.08026 1.60307 0.721235)
(1.37744 1.55007 0.823471)
(1.09442 1.39847 0.618277)
(0.976326 1.6243 0.806525)
(1.43866 1.49435 0.85369)
(1.16162 1.25027 0.607094)
(1.16696 1.35211 0.617548)
(1.06749 1.62203 0.816074)
(1.12769 1.51483 0.684181)
(1.02538 1.49367 0.659609)
(1.15978 1.61621 0.885021)
(1.19592 1.4639 0.665404)
(1.09484 1.30071 0.61826)
(1.24008 1.55582 0.733618)
(1.05886 1.23205 0.635204)
(1.4002 1.44914 0.760737)
(1.03323 1.28431 0.607662)
(1.01536 1.60853 0.888699)
(1.405 1.55152 0.925812)
(1.32589 1.59745 0.902365)
(1.30833 1.50088 0.71621)
(1.24356 1.29257 0.625329)
(0.973109 1.59472 0.712414)
(1.08109 1.61427 0.90975)
(1.30857 1.58047 0.803593)
(1.29884 1.32647 0.664783)
(1.25187 1.39748 0.644946)
(0.947562 1.60761 0.875772)
(1.45835 1.50601 0.936573)
(1.09445 1.18636 0.634582)
(1.23904 1.60732 0.83252)
(1.25651 1.61417 0.923019)
(1.34392 1.3746 0.696739)
(0.951043 1.50013 0.65499)
(1.01391 1.36248 0.599677)
(1.44876 1.51649 0.967594)
(1.48096 1.48675 0.968498)
(1.4768 1.47881 0.921089)
(1.11047 1.61799 0.788351)
(1.07671 1.62501 0.768562)
(1.12216 1.6108 0.744462)
(1.10367 1.55178 0.692609)
(1.15191 1.56968 0.712469)
(1.16073 1.60937 0.819584)
(1.1163 1.60732 0.836509)
(1.18526 1.52902 0.702688)
(1.20245 1.58818 0.749329)
(1.19895 1.60783 0.797673)
(1.20338 1.60822 0.852574)
(1.2438 1.59364 0.782414)
(0.995704 1.60596 0.938956)
(1.03649 1.60968 0.944432)
(0.907145 1.59459 0.928494)
(0.96122 1.60455 0.939107)
(0.984014 1.60826 0.882037)
(1.07004 1.61722 0.952916)
(1.10791 1.62406 0.956534)
(1.04986 1.60765 0.898148)
(1.14611 1.62466 0.940462)
(1.19435 1.62119 0.943528)
(1.12066 1.61409 0.89242)
(1.28517 1.60847 0.961001)
(1.24259 1.61635 0.959918)
(1.21178 1.61435 0.902798)
(1.31887 1.59892 0.948669)
(1.35306 1.58142 0.948492)
(1.2951 1.60382 0.910982)
(1.38961 1.56184 0.962303)
(1.42123 1.53629 0.962042)
(1.36804 1.57095 0.910958)
(1.43088 1.52532 0.929276)
(1.08139 1.14958 0.644834)
(1.06211 1.17017 0.647281)
(1.11877 1.18199 0.626548)
(0.917526 1.60548 0.759843)
(0.925187 1.60998 0.802784)
(0.964112 1.61468 0.833277)
(0.911162 1.60298 0.838374)
(0.920332 1.57855 0.712618)
(0.973826 1.6211 0.7585)
(1.04311 1.61124 0.843345)
(0.999177 1.61476 0.842511)
(1.02571 1.62274 0.810293)
(1.0289 1.6253 0.762398)
(1.40866 1.51915 0.8328)
(1.39212 1.5018 0.783599)
(1.42175 1.47102 0.8047)
(1.4281 1.41822 0.797971)
(1.45127 1.44353 0.837547)
(1.4228 1.52389 0.886678)
(1.44823 1.5002 0.895384)
(1.39241 1.54866 0.872196)
(1.46491 1.46974 0.882193)
(0.929398 1.53954 0.678779)
(0.940714 1.44238 0.631949)
(0.920434 1.49419 0.65545)
(0.960878 1.54622 0.677498)
(0.991666 1.32037 0.583027)
(0.977575 1.37019 0.594298)
(0.98357 1.43168 0.634323)
(1.00738 1.25277 0.603339)
(0.999633 1.2884 0.59199)
(1.02376 1.3207 0.599556)
(1.03776 1.19631 0.637698)
(1.0102 1.22387 0.612045)
(1.04164 1.25633 0.622462)
(1.08376 1.20838 0.643484)
(1.18003 1.40883 0.642746)
(1.14442 1.43667 0.647975)
(1.12599 1.37381 0.620734)
(1.08883 1.34272 0.612914)
(1.13094 1.33116 0.617428)
(1.0618 1.29054 0.617643)
(1.06141 1.33733 0.609426)
(1.05385 1.38164 0.61433)
(1.07261 1.50287 0.675529)
(1.06268 1.44549 0.647296)
(1.10822 1.46328 0.660435)
(1.1617 1.48599 0.678834)
(1.01845 1.43295 0.638157)
(1.02696 1.59815 0.71579)
(1.04747 1.54294 0.68077)
(1.0005 1.54284 0.676037)
(1.13322 1.28094 0.619778)
(1.1709 1.30075 0.612878)
(1.20573 1.27262 0.611011)
(1.20704 1.32519 0.615424)
(1.081 1.26646 0.628563)
(1.11809 1.24571 0.629682)
(1.13122 1.22053 0.623318)
(1.19533 1.22917 0.617031)
(1.23607 1.24287 0.64435)
(1.15367 1.21065 0.617352)
(1.20998 1.37538 0.633104)
(1.22173 1.43246 0.654772)
(1.24651 1.34285 0.632216)
(1.07665 1.60857 0.852514)
(1.21479 1.50186 0.69734)
(0.989749 1.49788 0.65693)
(1.25086 1.60683 0.875113)
(1.27258 1.52379 0.726381)
(1.24898 1.4803 0.687559)
(1.27649 1.44768 0.673684)
(1.31413 1.5383 0.755283)
(1.27757 1.56789 0.765344)
(1.27548 1.59555 0.817631)
(1.32593 1.43904 0.691593)
(1.37267 1.40577 0.726306)
(1.35633 1.47376 0.729358)
(1.37049 1.34763 0.738638)
(1.4023 1.38324 0.766357)
(1.34965 1.52271 0.76323)
(1.30058 1.38735 0.664253)
(1.31971 1.3501 0.680725)
(1.2778 1.36164 0.648284)
(1.33883 1.3262 0.712933)
(1.31632 1.30383 0.698317)
(1.35205 1.57527 0.862423)
(1.31879 1.58845 0.851284)
(1.28817 1.59779 0.864763)
(1.34537 1.56171 0.810107)
(1.27137 1.30917 0.646633)
(1.26375 1.26345 0.663321)
(1.28801 1.28093 0.681785)
(0.86995 1.21627 1.22085)
(0.740925 1.13929 1.19267)
(0.736479 1.20234 1.14087)
(0.909069 1.29808 1.23969)
(0.770161 1.26969 1.11663)
(0.839274 1.27615 1.25366)
(0.81701 1.17027 1.24383)
(0.784793 1.23299 1.20875)
(0.804154 1.30191 1.19211)
(0.885352 1.21624 1.15661)
(0.700939 1.10665 1.09788)
(0.872194 1.34467 1.23732)
(0.837004 1.34687 1.15431)
(0.707149 1.06727 1.11651)
(0.842992 1.3408 1.08111)
(0.887877 1.36523 1.03472)
(0.878311 1.37258 1.08695)
(0.872944 1.37487 1.12173)
(0.882408 1.37833 1.1544)
(0.836845 1.34324 1.11995)
(0.779582 1.15723 1.22801)
(0.802954 1.20745 1.23416)
(0.767138 1.18804 1.20029)
(0.747424 1.18325 1.1641)
(0.766226 1.2262 1.17493)
(0.72379 1.16256 1.12238)
(0.720924 1.12908 1.14519)
(0.72248 1.10605 1.15655)
(0.703401 1.08911 1.104)
(0.804703 1.12382 1.23527)
(0.765502 1.11232 1.22221)
(0.737759 1.09421 1.18903)
(0.721683 1.06077 1.15096)
(0.779617 1.25973 1.16643)
(0.788408 1.28791 1.15479)
(0.753899 1.23698 1.12985)
(0.748004 1.21944 1.07455)
(0.730577 1.18901 1.09219)
(0.818834 1.32324 1.17281)
(0.80398 1.30968 1.13842)
(0.782605 1.26926 1.06319)
(0.803642 1.30368 1.1012)
(0.82038 1.3113 1.04404)
(0.864216 1.17579 1.16945)
(0.878519 1.17605 1.14971)
(0.878346 1.21945 1.18703)
(0.908439 1.19415 1.14052)
(0.900811 1.25965 1.19647)
(0.887922 1.25916 1.22812)
(0.904056 1.23934 1.1525)
(0.922519 1.28273 1.195)
(0.83418 1.22472 1.24533)
(0.813421 1.25762 1.23373)
(0.799351 1.27214 1.19884)
(0.824073 1.29873 1.22439)
(0.693664 1.08318 1.06655)
(0.696592 1.11212 1.06518)
(0.696119 1.06467 1.07261)
(0.716824 1.15839 1.09071)
(0.851549 1.16183 1.20046)
(0.847483 1.19386 1.23472)
(0.86477 1.25125 1.24706)
(0.834886 1.14262 1.22471)
(0.877684 1.29162 1.25385)
(0.933972 1.33214 1.23432)
(0.899141 1.37447 1.19409)
(0.91945 1.35967 1.23188)
(0.896154 1.32682 1.25062)
(0.857428 1.3512 1.18563)
(0.703587 1.0414 1.08306)
(0.839258 1.32895 1.21293)
(0.853583 1.31237 1.24824)
(1.02335 1.42834 1.12333)
(1.19881 1.34664 1.08015)
(1.19925 1.37388 1.0534)
(1.14033 1.35508 1.11413)
(1.13189 1.39431 1.18098)
(1.08796 1.31916 1.19304)
(1.16929 1.39914 1.12684)
(1.15076 1.4216 1.07387)
(1.04723 1.34552 1.22544)
(1.26776 1.35473 1.04918)
(1.11302 1.43362 1.1438)
(1.05705 1.40482 1.16852)
(1.07813 1.44141 1.07653)
(0.999058 1.43209 1.05697)
(1.0123 1.27616 1.2005)
(1.17659 1.39588 1.0613)
(1.17898 1.38602 1.0866)
(1.15706 1.41435 1.10248)
(1.12732 1.43028 1.11018)
(1.14366 1.42152 1.13792)
(1.17289 1.36794 1.0931)
(1.15888 1.34536 1.09095)
(1.16168 1.37685 1.12084)
(1.19595 1.36091 1.06899)
(1.14355 1.37905 1.14946)
(1.15248 1.39808 1.15241)
(1.12721 1.4161 1.16281)
(0.958713 1.41846 1.07134)
(0.967169 1.4164 1.02633)
(0.980969 1.41395 1.13307)
(0.970476 1.42054 1.10259)
(1.00915 1.43112 1.0906)
(1.2059 1.31727 1.0905)
(1.24831 1.33422 1.07616)
(1.22976 1.34868 1.06515)
(1.28277 1.34208 1.06069)
(1.30199 1.34868 1.02582)
(1.04707 1.25946 1.16558)
(1.07405 1.27689 1.14569)
(1.09997 1.30393 1.11789)
(1.14902 1.30778 1.09665)
(1.11168 1.35223 1.15107)
(1.01916 1.24402 1.16566)
(0.971204 1.23608 1.16118)
(1.05437 1.291 1.20546)
(1.0008 1.35223 1.21167)
(0.991293 1.31243 1.21029)
(1.03033 1.30971 1.22108)
(0.972035 1.27741 1.18431)
(1.05147 1.38217 1.19241)
(1.00524 1.38433 1.18318)
(1.07494 1.33408 1.21876)
(1.08946 1.37908 1.19942)
(1.0976 1.40394 1.17732)
(1.11233 1.36742 1.18729)
(1.02584 1.43512 1.03137)
(0.998685 1.40353 1.1557)
(1.04187 1.41585 1.14065)
(1.05119 1.43515 1.1005)
(1.0433 1.43732 1.06662)
(1.09068 1.43554 1.10964)
(1.07137 1.42835 1.12928)
(1.09015 1.41844 1.15433)
(1.26696 1.3577 1.02517)
(1.22254 1.35791 1.04728)
(1.22503 1.36203 1.02586)
(1.06797 1.43785 1.04115)
(1.11176 1.43473 1.04242)
(1.17478 1.40294 1.03283)
(1.14553 1.42288 1.03932)
(1.11649 1.43301 1.07672)
(1.19809 1.38117 1.02652)
(1.05028 1.34934 0.787503)
(1.21112 1.33543 0.914856)
(1.10093 1.42462 0.909022)
(1.06979 1.30123 0.823899)
(1.10601 1.40658 0.852479)
(1.17637 1.37062 0.890423)
(1.03219 1.39789 0.808986)
(1.12744 1.36322 0.849372)
(1.01224 1.43816 0.852396)
(1.13085 1.32271 0.89195)
(1.24006 1.36281 0.949305)
(1.00376 1.26519 0.810412)
(1.17546 1.40292 0.945087)
(1.02759 1.43695 0.942675)
(0.959682 1.42753 0.871697)
(0.97193 1.42341 0.836954)
(0.986329 1.42289 0.970356)
(0.976463 1.42917 0.916964)
(1.01197 1.44147 0.892862)
(1.03105 1.42068 0.834952)
(0.983763 1.4089 0.81025)
(0.999663 1.38565 0.78732)
(0.994739 1.31154 0.787639)
(1.0239 1.30534 0.785222)
(0.967526 1.26767 0.824841)
(1.03744 1.27917 0.80687)
(1.06416 1.32655 0.7967)
(1.11969 1.385 0.84974)
(1.08856 1.36381 0.822094)
(1.07851 1.38399 0.83696)
(1.09823 1.34196 0.837451)
(1.01328 1.35867 0.782677)
(1.04202 1.37521 0.802712)
(1.07032 1.40212 0.84142)
(1.04275 1.43433 0.977547)
(1.06934 1.42453 0.857893)
(1.06249 1.43349 0.884166)
(1.1041 1.41682 0.879222)
(1.06266 1.43214 0.926092)
(0.975621 1.22955 0.837741)
(1.01609 1.2336 0.839701)
(1.04 1.24783 0.846557)
(1.15452 1.34723 0.898257)
(1.12731 1.34443 0.875442)
(1.15101 1.36549 0.875515)
(1.09482 1.32019 0.863582)
(1.14322 1.38812 0.86965)
(1.16641 1.32379 0.907616)
(1.17923 1.34879 0.916497)
(1.21143 1.31192 0.899761)
(1.16197 1.29879 0.894209)
(1.11005 1.28642 0.881967)
(1.07293 1.26847 0.862286)
(1.19451 1.36321 0.929077)
(1.2216 1.35052 0.933478)
(1.26191 1.34665 0.939626)
(1.2506 1.33083 0.917491)
(1.09277 1.42889 0.981199)
(1.18891 1.39848 0.973082)
(1.15573 1.41346 0.974134)
(1.13745 1.41053 0.930544)
(1.1179 1.42063 0.960645)
(1.25542 1.36228 0.972867)
(1.21818 1.37351 0.974917)
(1.205 1.37779 0.950625)
(1.17541 1.38762 0.913822)
(1.28644 1.35128 0.970478)
(1.14376 1.39905 0.896725)
(0.756871 1.25134 0.892474)