/*--------------------------------*- C++ -*----------------------------------*\
| =========                 |                                                 |
| \\      /  F ield         | OpenFOAM: The Open Source CFD Toolbox           |
|  \\    /   O peration     | Version:  v1806                                 |
|   \\  /    A nd           | Web:      www.OpenFOAM.com                      |
|    \\/     M anipulation  |                                                 |
\*---------------------------------------------------------------------------*/
FoamFile
{
    version     2.0;
    format      ascii;
    class       volVectorField;
    location    "0.071";
    object      U_0;
}
// * * * * * * * * * * * * * * * * * * * * * * * * * * * * * * * * * * * * * //

dimensions      [0 1 -1 0 0 0 0];


internalField   nonuniform List<vector> 
64000
(
(-0.00906097 -0.0100864 -0.0065761)
(0.0137129 -0.0103891 -0.00401129)
(0.0199654 -0.00356634 0.000936132)
(0.023624 -0.00354928 0.00138822)
(0.0242724 -0.00260558 0.00188949)
(0.0242756 -0.00282382 0.00269518)
(0.0236852 -0.00347531 0.00296876)
(0.0203085 -0.00395776 0.00312713)
(0.0188806 -0.00494908 0.00455601)
(0.0117911 -0.00440229 0.00390941)
(0.00639876 -0.00540425 0.00636184)
(-0.00698768 -0.00905152 0.00625434)
(-0.0271548 -0.0127887 0.00647903)
(-0.0507292 -0.0179202 0.00401918)
(-0.0813408 -0.0181805 0.00510171)
(-0.116615 -0.0159381 0.00270652)
(-0.147971 0.000771877 0.00205734)
(-0.191373 -0.00435755 -0.00239453)
(-0.194028 -0.0099903 0.00591955)
(-0.252557 -0.0288294 -0.0158815)
(-0.217881 -0.0236525 -0.0245287)
(-0.105275 -0.0248233 -0.0394337)
(-0.103103 -0.0102267 -0.0268053)
(-0.0987482 -0.00422143 -0.0372518)
(-0.1133 0.00245643 -0.0479809)
(-0.108373 0.010875 -0.0570785)
(-0.0958464 0.020742 -0.0618947)
(-0.0614699 0.0322202 -0.0572368)
(-0.0290984 0.0381644 -0.0531418)
(0.0142362 0.0530263 -0.0352006)
(0.0625142 0.0453066 -0.0320756)
(0.0957256 0.0375124 -0.0232279)
(0.111679 0.0264612 -0.0116982)
(0.107249 0.0129535 -0.00429305)
(0.0932034 0.00470966 0.00176762)
(0.0736528 -0.00345742 0.00434069)
(0.0529817 -0.00697662 0.00600713)
(0.0317554 -0.00606547 0.00686204)
(0.0169641 -0.00444487 0.00721745)
(0.00241063 -0.00285101 0.00508203)
(-0.0067721 2.17713e-05 -0.00300251)
(0.0091834 -0.0168704 -0.00269798)
(0.0247208 -0.0117322 -0.000996552)
(0.0337199 -0.0084891 -0.000643976)
(0.0388803 -0.00357413 -0.000604253)
(0.0387493 -0.00101186 -0.00133904)
(0.0370511 0.00303729 -0.0028726)
(0.0295462 0.0047869 -0.0026883)
(0.0226296 0.0104897 -0.00701691)
(0.00492091 0.0161744 -0.00439811)
(-0.0194869 0.024845 -0.00807965)
(-0.056406 0.031321 0.00029753)
(-0.104582 0.0425625 -0.00402718)
(-0.156364 0.0635496 -0.00686586)
(-0.215832 0.0763931 -0.0110116)
(-0.273636 0.0853379 -0.0182024)
(-0.356459 0.0929081 -0.0433458)
(-0.460875 0.0952752 -0.0583143)
(-0.512395 0.100985 -0.0757836)
(-0.594519 0.0983055 -0.0993653)
(-0.54728 0.125288 -0.100231)
(-0.408883 0.140221 -0.127061)
(-0.387866 0.185356 -0.13802)
(-0.37062 0.211065 -0.146845)
(-0.357615 0.236503 -0.158096)
(-0.320082 0.258412 -0.164072)
(-0.269075 0.279076 -0.165395)
(-0.199352 0.295201 -0.153765)
(-0.12218 0.300829 -0.1337)
(-0.0524572 0.308049 -0.109792)
(0.0140104 0.289589 -0.0752929)
(0.0785617 0.259507 -0.047262)
(0.114332 0.209066 -0.0387524)
(0.126458 0.159269 -0.0267086)
(0.120708 0.108225 -0.0127944)
(0.101187 0.0685142 -0.00523687)
(0.0809683 0.0399821 -0.000799492)
(0.0554834 0.0254466 0.000249659)
(0.033167 0.0156584 0.00184472)
(0.00826948 0.00721246 0.00240212)
(-0.000591449 -0.00775414 0.00153978)
(0.0151179 -0.0233216 -0.00128806)
(0.0323398 -0.0185427 -0.00219359)
(0.0424324 -0.00615848 -0.00285438)
(0.044615 0.00471974 -0.00484894)
(0.0418218 0.0160135 -0.00640911)
(0.0340876 0.0316384 -0.00768859)
(0.0200614 0.0457036 -0.0094821)
(0.00400636 0.0695751 -0.00201448)
(-0.0262986 0.08989 -0.00472551)
(-0.0646405 0.117331 -0.00815839)
(-0.117812 0.150084 -0.0132939)
(-0.172608 0.18373 -0.0172548)
(-0.251161 0.210818 -0.0320852)
(-0.350989 0.229725 -0.0348385)
(-0.44692 0.243321 -0.042311)
(-0.534811 0.248118 -0.0586863)
(-0.621361 0.269151 -0.076595)
(-0.667267 0.298277 -0.0943122)
(-0.733707 0.331581 -0.116217)
(-0.67275 0.369965 -0.109272)
(-0.508214 0.398487 -0.123914)
(-0.46346 0.455174 -0.126699)
(-0.43556 0.487841 -0.123498)
(-0.413382 0.519888 -0.125642)
(-0.37193 0.542354 -0.123801)
(-0.320466 0.556297 -0.119306)
(-0.256093 0.560314 -0.104604)
(-0.188338 0.550262 -0.0830008)
(-0.124298 0.530903 -0.0593189)
(-0.0677747 0.501285 -0.0399347)
(-0.0257184 0.452805 -0.0277622)
(0.0089044 0.379885 -0.01563)
(0.0316637 0.307369 -0.00808331)
(0.0428449 0.227726 -0.0110007)
(0.0486831 0.162653 -0.01084)
(0.0482076 0.114418 -0.00703085)
(0.0389305 0.0769197 -0.0047618)
(0.0275304 0.0508453 -0.000961206)
(0.00817768 0.0239649 0.00194301)
(0.000239392 -0.0123749 0.00238614)
(0.0172401 -0.0256532 -0.0011503)
(0.0388502 -0.0127384 -0.00254974)
(0.0469036 0.00564185 -0.00610652)
(0.044341 0.0293973 -0.00661538)
(0.0394619 0.0546999 -0.00867579)
(0.0261845 0.0899801 -0.00866534)
(0.00663373 0.122578 -0.00540309)
(-0.0204604 0.167677 -0.0104576)
(-0.0657215 0.208071 -0.0127817)
(-0.111669 0.251921 -0.0170139)
(-0.177137 0.286069 -0.024212)
(-0.264122 0.313523 -0.0266839)
(-0.355516 0.329476 -0.0287003)
(-0.44206 0.350815 -0.0308622)
(-0.520769 0.37586 -0.0367972)
(-0.592836 0.40569 -0.050922)
(-0.666022 0.435149 -0.0600258)
(-0.697512 0.474844 -0.0691681)
(-0.749063 0.517847 -0.0771296)
(-0.67653 0.55175 -0.0513403)
(-0.491547 0.571126 -0.0466588)
(-0.432677 0.613781 -0.0418672)
(-0.405386 0.623099 -0.0295382)
(-0.384832 0.636026 -0.0263297)
(-0.352754 0.637425 -0.0209494)
(-0.313107 0.629697 -0.0174921)
(-0.265697 0.611773 -0.0102889)
(-0.215546 0.586472 0.00148432)
(-0.171073 0.554703 0.00867699)
(-0.138988 0.51529 0.0140748)
(-0.115002 0.471413 0.0125228)
(-0.0921794 0.415635 0.00719299)
(-0.0699682 0.350926 -0.00110057)
(-0.0478284 0.271476 -0.00490448)
(-0.0193346 0.202394 -0.0101134)
(0.000497994 0.146775 -0.0102332)
(0.00937446 0.110225 -0.00763597)
(0.0173852 0.0766197 -0.0031669)
(0.00652468 0.0358204 0.00161125)
(0.000754706 -0.0130975 0.000749129)
(0.0234966 -0.015629 -0.00457675)
(0.0474341 0.0021843 -0.00674942)
(0.0553806 0.0372202 -0.00796678)
(0.0523303 0.0764428 -0.00697798)
(0.0461823 0.122612 -0.014785)
(0.0265991 0.178932 -0.0119467)
(-0.000605515 0.237452 -0.00572143)
(-0.033421 0.291761 -0.00760082)
(-0.0878618 0.335004 -0.00966568)
(-0.151931 0.368251 -0.0124153)
(-0.23194 0.387338 -0.0150501)
(-0.304762 0.410162 -0.0160179)
(-0.378759 0.437012 -0.0212426)
(-0.452827 0.468175 -0.0194669)
(-0.51962 0.500805 -0.0211211)
(-0.578205 0.529112 -0.0240575)
(-0.631563 0.565835 -0.0207703)
(-0.643848 0.608431 -0.0172691)
(-0.682017 0.653071 -0.0259624)
(-0.610196 0.681381 0.000630121)
(-0.418716 0.687414 0.0143113)
(-0.355959 0.70083 0.0250691)
(-0.337667 0.678401 0.0364812)
(-0.328855 0.660486 0.0376892)
(-0.31617 0.635524 0.0438139)
(-0.297002 0.603146 0.0450425)
(-0.267809 0.567396 0.0490796)
(-0.238329 0.526754 0.0424767)
(-0.214042 0.487988 0.0348351)
(-0.193411 0.443997 0.0249699)
(-0.183977 0.411046 0.0175823)
(-0.176804 0.375236 0.00967783)
(-0.172567 0.344413 -0.00218026)
(-0.151293 0.279245 -0.0126438)
(-0.103353 0.208535 -0.0137534)
(-0.0519176 0.16049 -0.0132635)
(-0.0165295 0.12972 -0.0113681)
(0.00307319 0.0950139 -0.00570455)
(0.00363924 0.04493 0.00156725)
(0.00545139 -0.00921127 -0.00024839)
(0.0291824 -0.000686254 -0.00535071)
(0.0618357 0.0250566 -0.00540433)
(0.0754142 0.0768148 -0.00926551)
(0.0690485 0.134468 -0.0141265)
(0.0643996 0.199281 -0.0183412)
(0.0458028 0.274137 -0.0136939)
(0.00702131 0.322665 -0.00329369)
(-0.0488531 0.365299 -0.00520712)
(-0.120768 0.398182 -0.00700184)
(-0.187056 0.427955 -0.00904889)
(-0.249531 0.458123 -0.00925514)
(-0.30909 0.493123 -0.00737)
(-0.366709 0.521052 -0.0044643)
(-0.418478 0.551492 0.00188269)
(-0.469294 0.58009 0.00677993)
(-0.504258 0.610795 0.00828826)
(-0.538406 0.642874 0.00877605)
(-0.54534 0.688183 0.0105482)
(-0.571549 0.721669 0.0087553)
(-0.501795 0.746316 0.0342164)
(-0.326537 0.69847 0.0493942)
(-0.280132 0.681002 0.0595026)
(-0.283046 0.628164 0.0733525)
(-0.289797 0.586133 0.0766473)
(-0.295337 0.544728 0.0770929)
(-0.292566 0.50142 0.0744338)
(-0.283618 0.460839 0.0685669)
(-0.268292 0.413787 0.0661592)
(-0.258012 0.376262 0.0459397)
(-0.248326 0.333446 0.0351929)
(-0.238014 0.302968 0.0211398)
(-0.224875 0.278269 0.00934158)
(-0.233401 0.265393 -0.00217315)
(-0.239369 0.241347 -0.0149456)
(-0.174356 0.192533 -0.0137065)
(-0.0923637 0.161395 -0.0148884)
(-0.0402146 0.134769 -0.0117097)
(-0.00437919 0.103074 -0.00659539)
(0.00262263 0.0481081 0.00207768)
(0.00819877 -0.00385309 0.000818802)
(0.0387948 0.0111115 -0.00999729)
(0.0812031 0.0508874 -0.00954275)
(0.10564 0.105414 -0.011101)
(0.101558 0.167513 -0.0142612)
(0.0981835 0.242921 -0.0173084)
(0.0515176 0.300343 -0.00858397)
(-0.0138092 0.333412 0.00274059)
(-0.0605752 0.376929 -0.00212166)
(-0.117077 0.418906 -0.00287138)
(-0.166193 0.465519 -0.00303225)
(-0.217087 0.507821 -0.00130783)
(-0.263781 0.546292 0.00181444)
(-0.310305 0.579976 0.00723473)
(-0.35088 0.612348 0.0143766)
(-0.385057 0.637823 0.019991)
(-0.410297 0.664295 0.0258165)
(-0.426684 0.678109 0.0293044)
(-0.421656 0.70282 0.0258358)
(-0.443046 0.718262 0.0170046)
(-0.431711 0.73668 0.0312274)
(-0.290377 0.632715 0.0525183)
(-0.230239 0.583011 0.056592)
(-0.249972 0.523552 0.0699153)
(-0.266549 0.480081 0.07099)
(-0.288322 0.442493 0.0710065)
(-0.301357 0.406748 0.0672154)
(-0.308744 0.37294 0.060583)
(-0.306892 0.336421 0.0480252)
(-0.308188 0.302391 0.0329781)
(-0.305595 0.269898 0.0201308)
(-0.297485 0.242126 0.00829976)
(-0.285229 0.223141 -0.00133012)
(-0.283002 0.207401 -0.00795711)
(-0.28699 0.217567 -0.0174491)
(-0.226229 0.193123 -0.0204175)
(-0.127242 0.166436 -0.0216645)
(-0.0558624 0.145779 -0.0166883)
(-0.00970109 0.111637 -0.0105205)
(0.0025095 0.0525713 0.000349277)
(0.00731979 0.00380195 -0.00284391)
(0.0454858 0.0303709 -0.013221)
(0.0996729 0.0796047 -0.0136122)
(0.124797 0.134874 -0.0108039)
(0.129266 0.193328 -0.0117305)
(0.111812 0.264146 -0.0116985)
(0.0503775 0.2926 -0.000500705)
(0.00334523 0.346065 0.00542096)
(-0.0316886 0.392847 0.00164472)
(-0.0814598 0.446194 0.0030216)
(-0.123793 0.489782 0.00416712)
(-0.166305 0.526771 0.0101526)
(-0.20219 0.559574 0.0163227)
(-0.232703 0.586464 0.0236398)
(-0.261248 0.61119 0.0281295)
(-0.289137 0.62668 0.0322846)
(-0.309264 0.63768 0.034843)
(-0.327207 0.639103 0.0342317)
(-0.327037 0.633514 0.0309684)
(-0.343462 0.615495 0.0145852)
(-0.383645 0.617836 0.0152017)
(-0.294213 0.54086 0.0338526)
(-0.219181 0.456671 0.0365773)
(-0.239015 0.418043 0.0479986)
(-0.262864 0.380776 0.0522076)
(-0.294053 0.356698 0.0537729)
(-0.317396 0.330062 0.0547639)
(-0.335584 0.304722 0.0480326)
(-0.344918 0.2764 0.0393114)
(-0.353267 0.246512 0.0176722)
(-0.354982 0.214924 0.00988742)
(-0.345837 0.1905 0.000761023)
(-0.332095 0.177195 -0.00735257)
(-0.316791 0.169379 -0.0110531)
(-0.325171 0.190893 -0.0205243)
(-0.276178 0.196155 -0.0205816)
(-0.161156 0.17183 -0.0223807)
(-0.0742321 0.1549 -0.0176079)
(-0.0148183 0.11887 -0.0102236)
(0.00369912 0.0561303 0.00109349)
(0.00633764 0.0141022 -0.00563598)
(0.0533983 0.060748 -0.0180299)
(0.119199 0.117076 -0.0193939)
(0.150587 0.172109 -0.0131433)
(0.157855 0.233593 -0.0141809)
(0.125146 0.28114 -0.0107096)
(0.0685381 0.320234 -0.0019634)
(0.031711 0.376522 0.00542514)
(0.00334396 0.414551 0.0114464)
(-0.031747 0.455059 0.0113678)
(-0.0713815 0.4933 0.0156073)
(-0.102691 0.519924 0.0211126)
(-0.128639 0.542401 0.0280946)
(-0.153604 0.554814 0.0341458)
(-0.177504 0.558831 0.036205)
(-0.202502 0.555677 0.0368125)
(-0.225179 0.548542 0.0355803)
(-0.251572 0.534508 0.0310907)
(-0.272822 0.520669 0.0249679)
(-0.292817 0.491772 0.0100064)
(-0.344757 0.480321 -0.000176114)
(-0.317003 0.452476 0.00990984)
(-0.239866 0.353604 0.0182972)
(-0.237728 0.337125 0.0243698)
(-0.267272 0.311012 0.0322488)
(-0.301959 0.296821 0.0368336)
(-0.334911 0.278704 0.041964)
(-0.36032 0.256553 0.0385555)
(-0.37989 0.232743 0.0240873)
(-0.397507 0.199616 0.00941941)
(-0.400718 0.175131 -0.000349263)
(-0.388329 0.152145 -0.0055998)
(-0.373442 0.138548 -0.0115838)
(-0.346969 0.140176 -0.0191968)
(-0.337563 0.15297 -0.0231736)
(-0.305256 0.190551 -0.0282189)
(-0.196822 0.173869 -0.0264434)
(-0.0896389 0.163934 -0.024504)
(-0.0198509 0.128539 -0.0135999)
(0.00456 0.061883 -0.00107055)
(0.00779405 0.0308284 -0.0085967)
(0.0624796 0.0998987 -0.0257338)
(0.137317 0.160481 -0.0249836)
(0.175702 0.214057 -0.0155272)
(0.175992 0.265937 -0.0144787)
(0.143385 0.298558 -0.0132907)
(0.102287 0.346963 -0.0025744)
(0.0696329 0.393334 0.00955064)
(0.0388188 0.430255 0.0161493)
(0.0147774 0.456998 0.0264944)
(-0.0123318 0.478836 0.0233522)
(-0.0433151 0.492001 0.0336269)
(-0.0662044 0.500077 0.0385223)
(-0.0891153 0.490604 0.0439861)
(-0.112915 0.475272 0.043419)
(-0.139455 0.452638 0.040259)
(-0.167054 0.429051 0.0350626)
(-0.197379 0.404025 0.0278117)
(-0.227597 0.388005 0.0195316)
(-0.261637 0.370925 0.00453449)
(-0.317052 0.356973 -0.00767306)
(-0.339859 0.356838 -0.0071643)
(-0.270613 0.292604 0.00714706)
(-0.235101 0.282229 0.00994807)
(-0.268624 0.265012 0.0203445)
(-0.303206 0.256916 0.0279518)
(-0.342649 0.237793 0.0368871)
(-0.375226 0.220643 0.031997)
(-0.403378 0.190588 0.0246698)
(-0.419404 0.164114 0.00969744)
(-0.424933 0.136069 0.0111354)
(-0.421097 0.114838 0.0175542)
(-0.401644 0.0953766 0.0146612)
(-0.378031 0.0972429 0.00899687)
(-0.358426 0.110997 -0.0128401)
(-0.327901 0.159392 -0.024123)
(-0.22716 0.171492 -0.0247346)
(-0.106888 0.163771 -0.0215113)
(-0.0256537 0.136357 -0.0125945)
(0.00570073 0.0660622 0.000119613)
(0.0087905 0.0519985 -0.0112168)
(0.0703784 0.141794 -0.0320126)
(0.154727 0.206327 -0.0311485)
(0.196767 0.254242 -0.0178192)
(0.194009 0.290875 -0.0118811)
(0.169435 0.325611 -0.0130669)
(0.140674 0.366259 -0.00258131)
(0.109881 0.402994 0.00522185)
(0.0845201 0.43117 0.0134589)
(0.0565745 0.451772 0.0289142)
(0.0282674 0.456444 0.0373537)
(0.0115695 0.457239 0.0471353)
(-0.0122583 0.444193 0.0469419)
(-0.0420858 0.423174 0.0501329)
(-0.0685389 0.39466 0.0476029)
(-0.0996717 0.36337 0.0405974)
(-0.13248 0.333398 0.0322392)
(-0.166655 0.306874 0.0237578)
(-0.200699 0.292239 0.0150048)
(-0.240762 0.276994 0.0023929)
(-0.293378 0.270016 -0.00707958)
(-0.330992 0.275336 -0.0112017)
(-0.273829 0.261676 0.000588355)
(-0.228905 0.246612 0.000726246)
(-0.257055 0.234611 0.0130731)
(-0.295543 0.222435 0.021931)
(-0.339978 0.206794 0.031017)
(-0.377496 0.184002 0.0296188)
(-0.409402 0.157786 0.0192252)
(-0.432881 0.128124 0.0304115)
(-0.44723 0.0936732 0.0315976)
(-0.449338 0.0653684 0.0187858)
(-0.436368 0.0515002 0.0134398)
(-0.403045 0.0480351 0.00610159)
(-0.365924 0.0634547 -0.000108434)
(-0.335294 0.109212 -0.0218388)
(-0.2509 0.150795 -0.0283703)
(-0.124505 0.159752 -0.0234783)
(-0.028487 0.140064 -0.0150127)
(0.00490781 0.0701508 -0.00149383)
(0.00942474 0.0716504 -0.0118108)
(0.0765027 0.18336 -0.0358267)
(0.167108 0.250253 -0.0342012)
(0.209663 0.286471 -0.0175841)
(0.213714 0.315299 -0.0098259)
(0.198773 0.347162 -0.00670474)
(0.175647 0.378415 -0.00512759)
(0.148737 0.402602 0.00835568)
(0.122149 0.422101 0.0130435)
(0.0980853 0.430408 0.0254005)
(0.0752023 0.432868 0.0364167)
(0.0470625 0.421401 0.0519873)
(0.0219156 0.394577 0.0553943)
(-0.0026204 0.360612 0.0548657)
(-0.0347436 0.329045 0.0479078)
(-0.0694166 0.296413 0.037389)
(-0.106803 0.269495 0.0263839)
(-0.140549 0.248125 0.0176338)
(-0.179147 0.239483 0.00790746)
(-0.223264 0.22805 -0.000353103)
(-0.269656 0.226813 -0.0078474)
(-0.303202 0.230226 -0.011113)
(-0.255329 0.245909 -0.00260734)
(-0.212567 0.226436 -0.00330325)
(-0.238229 0.208296 0.00816485)
(-0.273923 0.191084 0.0177236)
(-0.321496 0.172414 0.0248327)
(-0.362666 0.149219 0.0208317)
(-0.399101 0.121577 0.03772)
(-0.432165 0.0867661 0.0451422)
(-0.454078 0.0536485 0.0404675)
(-0.455774 0.0279954 0.0514677)
(-0.448712 0.00454326 0.0401168)
(-0.432788 0.0008972 0.0340489)
(-0.396309 0.0106316 0.0249966)
(-0.352093 0.0572226 0.00384732)
(-0.263553 0.111595 -0.0248875)
(-0.138401 0.148213 -0.0249107)
(-0.0344977 0.138552 -0.0142568)
(0.00603833 0.073505 -0.00144908)
(0.0100454 0.0914808 -0.0113473)
(0.0799459 0.222528 -0.0386461)
(0.17117 0.290125 -0.0373752)
(0.220046 0.318806 -0.0187916)
(0.235196 0.341093 -0.00593993)
(0.227643 0.364275 0.000304954)
(0.206647 0.385786 0.00474621)
(0.181992 0.399496 0.00578795)
(0.160684 0.408684 0.0163436)
(0.13725 0.410023 0.0264073)
(0.11038 0.400283 0.0356546)
(0.0837151 0.381006 0.0425864)
(0.0507819 0.352504 0.0551361)
(0.020512 0.315806 0.0550874)
(-0.00805984 0.276338 0.0466527)
(-0.0452366 0.250113 0.0320293)
(-0.0839736 0.225278 0.0202077)
(-0.117086 0.21004 0.011929)
(-0.15575 0.202896 0.00276672)
(-0.198026 0.198163 -0.00209118)
(-0.238399 0.197641 -0.00788226)
(-0.255206 0.207148 -0.00770145)
(-0.215804 0.238384 -0.00274244)
(-0.194961 0.21287 -0.00318083)
(-0.2134 0.182905 0.00458431)
(-0.247052 0.158994 0.0127569)
(-0.291597 0.13309 0.0175088)
(-0.334517 0.110525 0.0300256)
(-0.378698 0.0777233 0.0428161)
(-0.416283 0.046573 0.0464556)
(-0.439023 0.013714 0.0660826)
(-0.465126 -0.0239711 0.0469928)
(-0.472702 -0.065337 0.0354719)
(-0.455084 -0.0862221 0.0146296)
(-0.415059 -0.0736472 0.00444307)
(-0.370436 -0.024719 0.0093892)
(-0.284791 0.06041 -0.00241856)
(-0.152492 0.116672 -0.0310857)
(-0.0394366 0.130948 -0.0144126)
(0.00643235 0.0746373 -0.00304086)
(0.00894884 0.0983912 -0.0103828)
(0.0784059 0.246801 -0.0408205)
(0.171853 0.318252 -0.0415823)
(0.22653 0.34414 -0.0219533)
(0.252311 0.357918 -0.00354273)
(0.251878 0.368164 0.0064367)
(0.232934 0.379653 0.0124858)
(0.210079 0.387805 0.0161033)
(0.18992 0.392942 0.0189525)
(0.167154 0.387113 0.0230488)
(0.143365 0.37218 0.0290005)
(0.111875 0.347345 0.0396044)
(0.0781621 0.314553 0.0416281)
(0.0418507 0.280862 0.049179)
(0.011591 0.243289 0.0440053)
(-0.0207642 0.213403 0.0248995)
(-0.062289 0.194898 0.0144331)
(-0.0916092 0.183151 0.00723005)
(-0.127258 0.176177 -0.000742179)
(-0.166149 0.17239 -0.00352829)
(-0.19421 0.173628 -0.00543636)
(-0.188844 0.202224 -0.000492647)
(-0.168489 0.216592 -0.00173519)
(-0.176646 0.18934 -0.000986175)
(-0.19251 0.156259 0.00238184)
(-0.216035 0.120944 0.00898583)
(-0.254682 0.0963514 0.0131983)
(-0.296419 0.0665121 0.0312188)
(-0.340338 0.0394556 0.039135)
(-0.378499 0.0092126 0.0603709)
(-0.426763 -0.0329022 0.0451135)
(-0.468556 -0.0864893 0.0382199)
(-0.486463 -0.130174 0.0246431)
(-0.474594 -0.162454 0.01404)
(-0.434041 -0.165747 -0.00529313)
(-0.372869 -0.123992 -0.00682657)
(-0.290891 -0.0214345 -0.000426581)
(-0.171429 0.0763707 -0.0168363)
(-0.043497 0.117302 -0.0198274)
(0.00723207 0.0752841 -0.00201407)
(0.0076699 0.108252 -0.00908126)
(0.0764282 0.27133 -0.0407681)
(0.17056 0.347406 -0.0432527)
(0.231709 0.370819 -0.0231791)
(0.263941 0.376834 -0.00274851)
(0.269378 0.374546 0.011611)
(0.258517 0.377157 0.0206815)
(0.241278 0.379226 0.0233376)
(0.222183 0.377015 0.0259211)
(0.197676 0.364934 0.0274775)
(0.169828 0.345061 0.0291981)
(0.138157 0.31492 0.0268984)
(0.101089 0.283334 0.0291009)
(0.0628744 0.246918 0.029688)
(0.0272281 0.220393 0.0316193)
(-0.00352652 0.18758 0.0182071)
(-0.0349455 0.171647 0.00850239)
(-0.0647829 0.163976 0.00257996)
(-0.0970616 0.150852 -0.00304983)
(-0.12707 0.152294 -0.00293653)
(-0.128285 0.168248 0.00127475)
(-0.125394 0.188128 0.00229502)
(-0.134196 0.179389 0.00246695)
(-0.152849 0.155508 0.00167958)
(-0.170849 0.128 0.00296268)
(-0.186955 0.0898202 0.00547287)
(-0.216358 0.0616591 0.0172906)
(-0.252864 0.0314954 0.0265143)
(-0.290439 0.00336567 0.0456896)
(-0.343878 -0.036633 0.0394839)
(-0.399715 -0.0897678 0.0377428)
(-0.447974 -0.141914 0.0282286)
(-0.478261 -0.194698 0.0180292)
(-0.482731 -0.235437 0.00318885)
(-0.449116 -0.25453 -0.0108384)
(-0.383609 -0.222991 -0.0201427)
(-0.293236 -0.133385 -0.0185878)
(-0.178131 0.0136681 0.000743606)
(-0.0536232 0.0933909 -0.0269774)
(0.0065182 0.0760233 -0.00334731)
(0.00543532 0.0891207 -0.00777736)
(0.0707995 0.266296 -0.0397139)
(0.165188 0.348308 -0.041792)
(0.231058 0.371298 -0.022221)
(0.270273 0.371292 0.000861198)
(0.284479 0.364478 0.014861)
(0.280416 0.363006 0.0203976)
(0.263037 0.357639 0.0234885)
(0.242366 0.350637 0.0254274)
(0.218389 0.337743 0.0258922)
(0.191802 0.317574 0.0252252)
(0.159184 0.291008 0.0215877)
(0.122132 0.257543 0.0177295)
(0.086003 0.224959 0.0115465)
(0.0496324 0.197573 0.0160342)
(0.0167264 0.173831 0.00830542)
(-0.00791628 0.157506 0.00289816)
(-0.0375749 0.145886 -0.00331032)
(-0.0620899 0.141729 -0.00264268)
(-0.0667422 0.151616 0.000446385)
(-0.0706443 0.163127 0.00329968)
(-0.0848823 0.155128 0.00584863)
(-0.102567 0.141863 0.00577204)
(-0.124295 0.121062 0.00502091)
(-0.147238 0.100898 0.00487642)
(-0.162461 0.0665839 0.00656949)
(-0.182564 0.032756 0.0161416)
(-0.212579 0.00331824 0.0299203)
(-0.254751 -0.0327983 0.0288065)
(-0.308958 -0.0776019 0.0323407)
(-0.364342 -0.125571 0.0292462)
(-0.416908 -0.182125 0.0254223)
(-0.454822 -0.24093 0.01609)
(-0.470973 -0.295864 0.00298835)
(-0.449517 -0.328344 -0.0136798)
(-0.391124 -0.318147 -0.0272446)
(-0.28795 -0.238004 -0.0314637)
(-0.176656 -0.0851708 -0.0200517)
(-0.0569172 0.0496867 -0.0193941)
(0.00859391 0.0645208 -0.00886077)
(0.00455564 0.103276 -0.00585374)
(0.067218 0.28617 -0.0365105)
(0.16039 0.372093 -0.0414027)
(0.232416 0.39334 -0.020445)
(0.281036 0.388385 0.00401453)
(0.305791 0.373739 0.0142586)
(0.306571 0.362304 0.0205474)
(0.291683 0.34996 0.0219164)
(0.274036 0.337911 0.0200341)
(0.24878 0.317776 0.0167768)
(0.220039 0.291686 0.0136309)
(0.184054 0.260773 0.00882471)
(0.142854 0.230461 0.00517328)
(0.105326 0.201441 0.00190494)
(0.0693257 0.181987 0.00166217)
(0.0409939 0.168959 -0.000829711)
(0.016284 0.16157 -0.00403775)
(-0.00189421 0.155084 -0.00288407)
(-0.0100679 0.159129 -0.00106634)
(-0.0205607 0.157041 0.00177444)
(-0.0357349 0.143043 0.00487933)
(-0.0545553 0.126483 0.00784441)
(-0.07362 0.109319 0.00794431)
(-0.0955694 0.0912164 0.0072603)
(-0.122099 0.0732508 0.0084476)
(-0.144004 0.051934 0.00483)
(-0.158017 0.0143747 0.00804886)
(-0.183724 -0.0193392 0.01124)
(-0.221882 -0.0628257 0.016984)
(-0.269058 -0.106653 0.0189093)
(-0.323199 -0.157736 0.020342)
(-0.376445 -0.217048 0.0180972)
(-0.419191 -0.281558 0.0124053)
(-0.444993 -0.348067 0.00108744)
(-0.436665 -0.397557 -0.0148212)
(-0.38845 -0.408382 -0.0316913)
(-0.296857 -0.343103 -0.0471456)
(-0.18252 -0.188569 -0.0349216)
(-0.0578673 0.00657955 -0.00896604)
(0.00625804 0.0673185 -0.0108319)
(-0.00546657 0.0765016 -0.0152392)
(0.0468844 0.269091 -0.0402788)
(0.141731 0.365012 -0.046403)
(0.221008 0.387504 -0.0272701)
(0.279007 0.38337 -0.00717295)
(0.312583 0.361248 0.00526278)
(0.321899 0.34271 0.0114449)
(0.308445 0.324432 0.0122337)
(0.286249 0.315049 0.0115685)
(0.257837 0.306955 0.00842733)
(0.230032 0.297407 0.00636835)
(0.199528 0.281371 0.00346787)
(0.165032 0.263132 0.00170289)
(0.134826 0.242248 0.000345247)
(0.107087 0.222821 0.00307932)
(0.079945 0.210947 -0.00219535)
(0.0584923 0.197978 -0.0084979)
(0.0404764 0.18343 -0.00578678)
(0.0224206 0.169547 -0.00478722)
(0.00196829 0.148949 -0.000617849)
(-0.0150209 0.126206 0.00434801)
(-0.0315784 0.10419 0.00718293)
(-0.0501371 0.0846582 0.00782327)
(-0.0707783 0.066403 0.00819944)
(-0.0934459 0.0484005 0.00422814)
(-0.121851 0.0314421 0.0017318)
(-0.144492 0.00543571 0.00195682)
(-0.167398 -0.0299948 0.000370137)
(-0.202548 -0.0674871 0.00355507)
(-0.244021 -0.110455 0.00828092)
(-0.291779 -0.160443 0.0121098)
(-0.340319 -0.22458 0.0131111)
(-0.382376 -0.298227 0.00957003)
(-0.411311 -0.378222 0.000322296)
(-0.410687 -0.445368 -0.0137274)
(-0.37034 -0.476815 -0.0320655)
(-0.278106 -0.439934 -0.0548805)
(-0.164966 -0.307351 -0.0567841)
(-0.0445691 -0.088799 -0.0214262)
(0.00981739 0.0343791 -0.00810323)
(-0.00661726 0.170801 -0.00833328)
(0.0424657 0.381936 -0.0234811)
(0.13036 0.481829 -0.0340683)
(0.211452 0.50509 -0.0141584)
(0.276545 0.493684 -0.00573644)
(0.318102 0.463587 0.0112697)
(0.337227 0.428296 0.0147429)
(0.338146 0.413432 0.0163338)
(0.335326 0.415667 0.0113368)
(0.315193 0.413212 0.0056545)
(0.284621 0.401789 -0.000280245)
(0.245284 0.377927 -0.00450158)
(0.201115 0.345765 -0.00758059)
(0.159185 0.311627 -0.00725487)
(0.126115 0.275833 -0.00595394)
(0.0996703 0.243561 -0.00238599)
(0.0700838 0.214909 -0.00800221)
(0.0503357 0.187826 -0.00863326)
(0.0370809 0.157055 -0.00635869)
(0.0179289 0.132014 -0.00358683)
(0.000751728 0.111083 0.00124477)
(-0.0154927 0.0865897 0.00565608)
(-0.0309961 0.0662423 0.00683305)
(-0.0506477 0.0453623 0.00950819)
(-0.0732489 0.0268392 0.00216484)
(-0.097748 0.00855726 0.00567619)
(-0.121691 -0.00477684 0.00474123)
(-0.146295 -0.0294726 0.000488162)
(-0.174729 -0.0655222 -0.00497977)
(-0.212536 -0.115148 -0.00859247)
(-0.260635 -0.169079 -0.00845335)
(-0.310926 -0.23201 -0.00680255)
(-0.355049 -0.300758 -0.0048828)
(-0.386832 -0.385444 -0.00924017)
(-0.390813 -0.466374 -0.0219388)
(-0.366781 -0.530483 -0.0507011)
(-0.301388 -0.522109 -0.0757293)
(-0.193699 -0.397013 -0.0722037)
(-0.0566392 -0.153858 -0.0432729)
(0.0102232 0.0357793 -0.00641528)
(-0.0188417 0.254478 -0.022482)
(0.0170698 0.49579 -0.0442583)
(0.106173 0.606128 -0.0530116)
(0.190307 0.647741 -0.0401132)
(0.260759 0.640519 -0.0291598)
(0.306907 0.613813 -0.0142026)
(0.34484 0.571569 -0.0034147)
(0.37154 0.543899 -0.00275459)
(0.365001 0.523127 -0.00722971)
(0.327709 0.493564 -0.00985947)
(0.283348 0.456219 -0.0104695)
(0.235929 0.411658 -0.0108815)
(0.192672 0.362476 -0.00999759)
(0.157185 0.31596 -0.00870121)
(0.127199 0.271922 -0.00672493)
(0.102602 0.232906 -0.00403222)
(0.0841448 0.197873 -0.000143883)
(0.0629211 0.171097 -0.0053003)
(0.0455586 0.143556 -0.00556498)
(0.0338781 0.11716 -0.00395823)
(0.0158483 0.0934673 -0.0016266)
(-0.0015039 0.0738201 0.00305538)
(-0.0170841 0.0486833 0.00613833)
(-0.0355362 0.0300141 0.00694038)
(-0.0533203 0.0116531 0.00582899)
(-0.0720582 -0.00408114 0.00972374)
(-0.0937362 -0.0183377 0.00913066)
(-0.127956 -0.0349092 0.00516927)
(-0.171447 -0.0592938 0.0042484)
(-0.207882 -0.0998898 0.004623)
(-0.240346 -0.150308 0.00196142)
(-0.268336 -0.223094 -0.00408298)
(-0.299958 -0.315248 -0.0145106)
(-0.332002 -0.439494 -0.023975)
(-0.351238 -0.556543 -0.0339077)
(-0.342133 -0.663214 -0.0547953)
(-0.274506 -0.695042 -0.0797526)
(-0.178257 -0.587858 -0.0889315)
(-0.0588887 -0.305124 -0.0654386)
(0.0107315 -0.0137933 -0.0107504)
(-0.00024281 0.220185 0.00184158)
(0.0369028 0.462144 -0.0343918)
(0.10905 0.586549 -0.0462213)
(0.191175 0.641558 -0.0417508)
(0.259708 0.644731 -0.0323142)
(0.308558 0.623805 -0.022009)
(0.34541 0.58776 -0.0144047)
(0.369774 0.547629 -0.00671149)
(0.365661 0.506265 -0.00766449)
(0.3303 0.468446 -0.00688903)
(0.286851 0.429913 -0.00639243)
(0.238757 0.389522 -0.00520629)
(0.194506 0.345776 -0.0046392)
(0.157534 0.303919 -0.00334054)
(0.13003 0.261045 -0.00365877)
(0.109785 0.222941 -0.00167699)
(0.0895307 0.18532 -0.00174586)
(0.0752239 0.153767 0.000602416)
(0.0602965 0.130268 0.000229897)
(0.0425161 0.104256 -0.00329734)
(0.0299446 0.083379 -0.00112789)
(0.010611 0.0605922 0.000657)
(-0.0047599 0.0423247 0.00851756)
(-0.0173438 0.0212708 0.00712053)
(-0.0350071 0.00413498 0.00636839)
(-0.0518281 -0.0118807 0.00950461)
(-0.0701567 -0.0287601 0.010867)
(-0.0950951 -0.0458752 0.00960317)
(-0.132967 -0.0568247 0.00584894)
(-0.175327 -0.0718659 0.00458745)
(-0.22624 -0.100409 0.00463499)
(-0.283302 -0.153797 0.00669969)
(-0.339614 -0.233212 0.00903401)
(-0.363185 -0.350314 0.00639928)
(-0.356164 -0.479518 -0.00256559)
(-0.338108 -0.620627 -0.0161631)
(-0.273768 -0.708944 -0.0339193)
(-0.164158 -0.692612 -0.0571433)
(-0.0312816 -0.435098 -0.0567148)
(0.0237789 -0.071409 -2.94555e-05)
(-0.000141992 0.237886 0.000304027)
(0.0361873 0.454942 -0.0288723)
(0.103427 0.577649 -0.0393279)
(0.179382 0.633927 -0.0369863)
(0.246617 0.63934 -0.0227409)
(0.296837 0.617307 -0.0162904)
(0.338218 0.578819 -0.00702877)
(0.364772 0.5389 -0.00142711)
(0.36163 0.493021 -0.00118573)
(0.328787 0.454124 -0.000566962)
(0.284011 0.413416 -0.000320505)
(0.234829 0.371674 -5.98861e-05)
(0.192937 0.329866 -0.000219236)
(0.159348 0.290164 -0.000638856)
(0.132357 0.250777 -0.000807949)
(0.111291 0.211792 0.000143313)
(0.0969027 0.173644 0.00129558)
(0.0869118 0.140316 0.00258019)
(0.0719777 0.113511 0.00249011)
(0.0599728 0.0908828 0.00494719)
(0.0426038 0.0714358 0.00137431)
(0.0260045 0.0524535 0.00102658)
(0.0113155 0.0339769 0.00481955)
(-0.00573728 0.0174648 0.00599507)
(-0.0169306 -0.00374861 0.00714632)
(-0.0323081 -0.0197017 0.00839383)
(-0.0497978 -0.0389982 0.0099698)
(-0.0696972 -0.0590868 0.0108716)
(-0.0981036 -0.0771793 0.0110702)
(-0.132497 -0.0951723 0.00949736)
(-0.174455 -0.11432 0.00969627)
(-0.214982 -0.145962 0.0094946)
(-0.268936 -0.185138 0.00974541)
(-0.313866 -0.253457 0.00973072)
(-0.344999 -0.353002 0.00642819)
(-0.360229 -0.496933 0.001505)
(-0.329106 -0.608258 -0.0110389)
(-0.229985 -0.642333 -0.0333855)
(-0.0595759 -0.434524 -0.0474968)
(0.0263701 -0.0341712 -0.0217433)
(0.00646394 0.209987 0.000310801)
(0.0437872 0.407403 -0.0238052)
(0.103934 0.537383 -0.0327665)
(0.177107 0.598491 -0.0318818)
(0.242157 0.613905 -0.0193705)
(0.292072 0.595328 -0.0120827)
(0.335485 0.559492 -0.00271515)
(0.359788 0.516344 0.00203513)
(0.357272 0.46686 0.00279398)
(0.327724 0.424662 0.0030072)
(0.282573 0.383255 0.00356254)
(0.235944 0.345065 0.00397791)
(0.196605 0.308507 0.00339918)
(0.16381 0.27241 0.00299549)
(0.13733 0.235729 0.00221006)
(0.117386 0.199575 0.00259853)
(0.100788 0.165238 0.00352051)
(0.0949045 0.130487 0.00591922)
(0.0871875 0.103126 0.00580786)
(0.0731864 0.0784305 0.00513369)
(0.0613178 0.0627109 0.00572105)
(0.0410728 0.043422 0.00496761)
(0.0272203 0.028265 0.0037955)
(0.01209 0.0112862 0.00317428)
(-0.00375597 -0.00472378 0.00691954)