/*--------------------------------*- C++ -*----------------------------------*\
| =========                 |                                                 |
| \\      /  F ield         | OpenFOAM: The Open Source CFD Toolbox           |
|  \\    /   O peration     | Version:  v1806                                 |
|   \\  /    A nd           | Web:      www.OpenFOAM.com                      |
|    \\/     M anipulation  |                                                 |
\*---------------------------------------------------------------------------*/
FoamFile
{
    version     2.0;
    format      ascii;
    class       volVectorField;
    location    "0.0655";
    object      U_0;
}
// * * * * * * * * * * * * * * * * * * * * * * * * * * * * * * * * * * * * * //

dimensions      [0 1 -1 0 0 0 0];


internalField   nonuniform List<vector> 
64000
(
(-0.0085478 -0.00965949 -0.00600619)
(0.0138267 -0.0101203 -0.00344914)
(0.0203438 -0.0036063 0.00111955)
(0.0234395 -0.0036872 0.0014896)
(0.0237872 -0.00270878 0.00208986)
(0.0236895 -0.00289607 0.00291087)
(0.0229647 -0.00345553 0.00316379)
(0.0196102 -0.00397905 0.0032633)
(0.0180351 -0.00502424 0.00464577)
(0.0111439 -0.00438707 0.00401117)
(0.00539189 -0.00569055 0.00632257)
(-0.00833101 -0.00906972 0.00639011)
(-0.0286137 -0.0129395 0.00660356)
(-0.0523472 -0.0179677 0.00411058)
(-0.083739 -0.0181412 0.00517018)
(-0.118657 -0.0153383 0.00283352)
(-0.151336 0.00113046 0.00218833)
(-0.193883 -0.00417431 -0.00209882)
(-0.198825 -0.0100524 0.00613315)
(-0.255559 -0.0290202 -0.0159907)
(-0.22104 -0.0245818 -0.0257999)
(-0.106215 -0.0253504 -0.0396932)
(-0.100843 -0.0110816 -0.0274401)
(-0.0965365 -0.00459364 -0.0372812)
(-0.109187 0.00221586 -0.0480173)
(-0.105107 0.0107409 -0.0569243)
(-0.0918978 0.0205146 -0.0618532)
(-0.0585089 0.0321932 -0.0568875)
(-0.0265027 0.0378953 -0.0528239)
(0.0165554 0.0536048 -0.0339444)
(0.0658243 0.0446319 -0.0319778)
(0.0981817 0.0372086 -0.0228067)
(0.113998 0.0260783 -0.0113766)
(0.109307 0.0124842 -0.00403188)
(0.0950467 0.00439242 0.00199894)
(0.0751404 -0.00387804 0.00453215)
(0.0539219 -0.00717696 0.00638789)
(0.0323508 -0.00619982 0.00721813)
(0.0172224 -0.00453404 0.00752364)
(0.00253621 -0.00295901 0.00543269)
(-0.00640636 -0.000864026 -0.00262332)
(0.00987606 -0.0171398 -0.00226682)
(0.0257245 -0.0123285 -0.00072169)
(0.0341125 -0.00879717 -0.000604859)
(0.0389109 -0.00401833 -0.000370314)
(0.0386782 -0.00117109 -0.00121461)
(0.0367812 0.00286649 -0.00278449)
(0.0292023 0.004729 -0.00259374)
(0.0222933 0.0103826 -0.00701915)
(0.00462764 0.0162364 -0.00441015)
(-0.0199497 0.0246242 -0.00807117)
(-0.0569546 0.0314288 0.000210969)
(-0.105302 0.0427136 -0.00403484)
(-0.156975 0.0642661 -0.00685419)
(-0.216766 0.0768383 -0.0108602)
(-0.274619 0.0857279 -0.0182327)
(-0.359289 0.092985 -0.0431929)
(-0.462975 0.0955055 -0.0581282)
(-0.516832 0.101066 -0.0756085)
(-0.596935 0.0980858 -0.0995983)
(-0.551389 0.124375 -0.102077)
(-0.411576 0.13948 -0.127404)
(-0.387224 0.184148 -0.13898)
(-0.37019 0.21067 -0.147328)
(-0.355152 0.236183 -0.15844)
(-0.31857 0.25835 -0.164314)
(-0.266367 0.27878 -0.165638)
(-0.19762 0.2952 -0.153967)
(-0.119865 0.300617 -0.133807)
(-0.0511301 0.308787 -0.109741)
(0.0159361 0.289542 -0.0749772)
(0.0807936 0.259562 -0.0473879)
(0.115959 0.208459 -0.0387071)
(0.128111 0.159167 -0.0268352)
(0.122129 0.108057 -0.0128334)
(0.102309 0.0682524 -0.00523353)
(0.081789 0.0397879 -0.000780067)
(0.0559728 0.0252679 0.000312815)
(0.0333996 0.015494 0.00194352)
(0.00842023 0.00699755 0.0027358)
(-0.000478105 -0.00881106 0.00162307)
(0.0155297 -0.023776 -0.00108563)
(0.0334538 -0.0191756 -0.0018595)
(0.0429928 -0.00682629 -0.00242707)
(0.0447404 0.00466854 -0.0044415)
(0.0419349 0.0158722 -0.00615513)
(0.033924 0.03173 -0.00747349)
(0.0199553 0.0456914 -0.00937785)
(0.00386664 0.0695035 -0.00202239)
(-0.0263553 0.0898812 -0.00464019)
(-0.0649017 0.117612 -0.00819422)
(-0.11805 0.150675 -0.0132449)
(-0.172729 0.184136 -0.0170755)
(-0.251648 0.210573 -0.0319591)
(-0.352879 0.229168 -0.0345703)
(-0.448561 0.242705 -0.0423668)
(-0.537694 0.247616 -0.058575)
(-0.623414 0.269005 -0.0761469)
(-0.671444 0.297839 -0.0938651)
(-0.7358 0.330751 -0.116038)
(-0.676676 0.369182 -0.110753)
(-0.510967 0.397304 -0.123865)
(-0.462677 0.453637 -0.127313)
(-0.435186 0.487136 -0.123602)
(-0.410994 0.518974 -0.125519)
(-0.370568 0.54178 -0.123514)
(-0.317932 0.555498 -0.119059)
(-0.254354 0.559726 -0.104535)
(-0.185936 0.54966 -0.0830717)
(-0.122461 0.530517 -0.0593772)
(-0.0657497 0.50159 -0.0398593)
(-0.0243524 0.453014 -0.0277112)
(0.0105427 0.380051 -0.0151108)
(0.0336329 0.307473 -0.00802828)
(0.0439657 0.227999 -0.0109477)
(0.0495829 0.162666 -0.0107905)
(0.048777 0.114138 -0.00696086)
(0.0393104 0.0765024 -0.00467479)
(0.0277116 0.0504592 -0.000846618)
(0.008316 0.0234286 0.00213794)
(0.000267663 -0.0137432 0.00238289)
(0.0176534 -0.0265429 -0.0013192)
(0.0396332 -0.0137944 -0.00214895)
(0.0479363 0.00490194 -0.00590038)
(0.0449688 0.0289045 -0.00629297)
(0.0396249 0.0544359 -0.00842863)
(0.0261648 0.0897106 -0.00851807)
(0.00629886 0.122492 -0.00518356)
(-0.0205721 0.167864 -0.0103421)
(-0.0654536 0.208454 -0.0126257)
(-0.111412 0.251776 -0.0168392)
(-0.177516 0.284629 -0.023893)
(-0.26561 0.311647 -0.0264431)
(-0.357088 0.32737 -0.0285732)
(-0.443699 0.349084 -0.0305686)
(-0.52215 0.374802 -0.0369954)
(-0.595682 0.40465 -0.0507478)
(-0.667996 0.434452 -0.0595035)
(-0.701381 0.473522 -0.0685361)
(-0.750588 0.515948 -0.0767433)
(-0.679658 0.55014 -0.0529957)
(-0.493752 0.569077 -0.046909)
(-0.431338 0.611562 -0.0426844)
(-0.404542 0.621989 -0.0296848)
(-0.382206 0.634584 -0.0261786)
(-0.351199 0.636399 -0.020608)
(-0.310496 0.628414 -0.0171727)
(-0.263926 0.610704 -0.0100737)
(-0.213165 0.585475 0.00159398)
(-0.168985 0.553838 0.00879976)
(-0.136509 0.514868 0.0143236)
(-0.112959 0.471143 0.0127527)
(-0.0907541 0.416779 0.0076029)
(-0.0683111 0.351537 -0.000721915)
(-0.0466146 0.272327 -0.00462929)
(-0.0188649 0.20252 -0.00993154)
(0.000817812 0.146589 -0.0101051)
(0.00973096 0.109891 -0.00751392)
(0.0176509 0.0761599 -0.00306922)
(0.006674 0.0350631 0.0017832)
(0.000881047 -0.0146491 0.000766487)
(0.0237999 -0.0172024 -0.00485748)
(0.0486477 0.00107513 -0.00622291)
(0.0565315 0.0360021 -0.00768843)
(0.0529857 0.0763483 -0.00653752)
(0.0466213 0.122787 -0.0145241)
(0.0267527 0.18012 -0.0115092)
(-0.00011101 0.237727 -0.0053946)
(-0.0330027 0.290864 -0.00743326)
(-0.0883111 0.33222 -0.00950048)
(-0.15407 0.364047 -0.0123345)
(-0.233972 0.383004 -0.0149137)
(-0.305808 0.406408 -0.0160363)
(-0.379552 0.434246 -0.0211613)
(-0.454167 0.466144 -0.0190566)
(-0.520637 0.498759 -0.0209957)
(-0.580306 0.527971 -0.0235065)
(-0.632565 0.564479 -0.0199711)
(-0.646913 0.606228 -0.0169969)
(-0.683126 0.650172 -0.0256968)
(-0.612916 0.678604 -0.000947916)
(-0.420599 0.685266 0.0136952)
(-0.354359 0.698321 0.0239961)
(-0.33652 0.677731 0.0363963)
(-0.325826 0.659166 0.037877)
(-0.314201 0.634758 0.044217)
(-0.29419 0.602086 0.0453614)
(-0.265745 0.566628 0.0493492)
(-0.235727 0.526056 0.0428167)
(-0.211772 0.487429 0.0353472)
(-0.19096 0.443676 0.0255841)
(-0.181218 0.410424 0.0182152)
(-0.174326 0.375157 0.0102345)
(-0.170848 0.344267 -0.00154103)
(-0.150658 0.279443 -0.0122781)
(-0.10346 0.208085 -0.0134118)
(-0.0518057 0.160202 -0.0130627)
(-0.0164118 0.129242 -0.0112182)
(0.0031644 0.0944467 -0.00553252)
(0.00377959 0.0439383 0.00173679)
(0.00522056 -0.0111633 6.6262e-05)
(0.0297928 -0.00236364 -0.00461141)
(0.0629348 0.0230475 -0.00507707)
(0.077487 0.0740272 -0.00889614)
(0.071121 0.131121 -0.0136883)
(0.0659294 0.196589 -0.0184086)
(0.0459257 0.270345 -0.0137302)
(0.00454558 0.317196 -0.00251012)
(-0.0520904 0.358967 -0.00512062)
(-0.12388 0.391766 -0.00679185)
(-0.188432 0.422135 -0.00882221)
(-0.249836 0.453889 -0.00903964)
(-0.309347 0.489575 -0.00711865)
(-0.366634 0.517844 -0.00416704)
(-0.419227 0.548762 0.00235695)
(-0.469049 0.577718 0.00722107)
(-0.505799 0.608894 0.00798403)
(-0.539852 0.641259 0.00922163)
(-0.548197 0.685709 0.010574)
(-0.573482 0.718671 0.00862354)
(-0.504396 0.743456 0.0325222)
(-0.328024 0.696346 0.0484708)
(-0.278339 0.678556 0.0580704)
(-0.281308 0.627733 0.0727002)
(-0.286662 0.585012 0.0763125)
(-0.292923 0.544114 0.0771047)
(-0.289532 0.500534 0.0744261)
(-0.281301 0.46023 0.0687966)
(-0.265734 0.413196 0.0663488)
(-0.255793 0.375816 0.0464028)
(-0.246231 0.333213 0.0358437)
(-0.236058 0.302606 0.0220275)
(-0.223238 0.278093 0.0100388)
(-0.231346 0.264449 -0.00117091)
(-0.238384 0.240634 -0.0143546)
(-0.174267 0.192215 -0.0133885)
(-0.0919804 0.161037 -0.0147313)
(-0.0400504 0.134247 -0.0116091)
(-0.00416691 0.102528 -0.00649133)
(0.00275702 0.0469916 0.00221115)
(0.00844742 -0.00689947 0.000602575)
(0.0388446 0.0090929 -0.0100647)
(0.081278 0.0480907 -0.00937798)
(0.105477 0.102469 -0.0105564)
(0.102291 0.162476 -0.0129708)
(0.0981726 0.23859 -0.0161685)
(0.0488849 0.291367 -0.00671539)
(-0.0158711 0.326926 0.00312153)
(-0.061147 0.370791 -0.0016228)
(-0.117248 0.414766 -0.00250643)
(-0.166445 0.46216 -0.00275334)
(-0.21703 0.504713 -0.001064)
(-0.263675 0.542968 0.00193346)
(-0.309977 0.576926 0.00752444)
(-0.350835 0.609201 0.0143355)
(-0.384763 0.635286 0.02009)
(-0.411173 0.661133 0.0257963)
(-0.426937 0.676525 0.0294193)
(-0.424482 0.701267 0.0254194)
(-0.445739 0.71684 0.0169484)
(-0.434508 0.735086 0.02984)
(-0.29236 0.633302 0.051379)
(-0.228742 0.581804 0.0552018)
(-0.248484 0.524028 0.069018)
(-0.263558 0.479668 0.0704332)
(-0.285846 0.442494 0.0706874)
(-0.298319 0.406358 0.0669053)
(-0.306307 0.372629 0.0605426)
(-0.304252 0.336094 0.0482397)
(-0.305729 0.302057 0.0335192)
(-0.303396 0.26972 0.0208289)
(-0.295 0.241957 0.009298)
(-0.283509 0.223286 -0.000751242)
(-0.28177 0.207477 -0.00709712)
(-0.2858 0.216921 -0.0167862)
(-0.225891 0.193193 -0.0201911)
(-0.127128 0.166019 -0.0215052)
(-0.0558265 0.145395 -0.0165641)
(-0.00959011 0.110989 -0.0103555)
(0.00262805 0.051348 0.000514359)
(0.00788293 0.00146153 -0.00197027)
(0.0460188 0.0283858 -0.0129869)
(0.0997907 0.0776537 -0.0135483)
(0.124684 0.132511 -0.0105449)
(0.129886 0.190981 -0.0115745)
(0.109595 0.260094 -0.0111317)
(0.048184 0.288138 0.000311381)
(0.00327941 0.343556 0.00561708)
(-0.0328742 0.390361 0.00196788)
(-0.0820539 0.443738 0.00330194)
(-0.124118 0.487078 0.00460859)
(-0.166268 0.523982 0.0104216)
(-0.201912 0.556485 0.0167047)
(-0.232011 0.583513 0.0236859)
(-0.261065 0.60786 0.0282302)
(-0.288434 0.623627 0.0324361)
(-0.309608 0.634467 0.0348265)
(-0.326913 0.637359 0.0344944)
(-0.328974 0.631689 0.0305268)
(-0.346478 0.616236 0.0150173)
(-0.385947 0.616789 0.014562)
(-0.296739 0.543938 0.033029)
(-0.218976 0.456008 0.0357391)
(-0.237735 0.41921 0.0469414)
(-0.260336 0.380815 0.0514512)
(-0.291531 0.357143 0.0531412)
(-0.314523 0.330078 0.0540746)
(-0.333082 0.304653 0.047718)
(-0.342155 0.276031 0.0392669)
(-0.350668 0.245965 0.0178973)
(-0.352623 0.214335 0.0104982)
(-0.343627 0.189896 0.00140709)
(-0.330233 0.176219 -0.00672565)
(-0.315441 0.169038 -0.0104042)
(-0.323986 0.190136 -0.0198022)
(-0.275747 0.196068 -0.0204718)
(-0.160943 0.171487 -0.0222795)
(-0.0741325 0.154468 -0.0176283)
(-0.0147107 0.118229 -0.0101247)
(0.00389464 0.054778 0.00121162)
(0.00647545 0.0117155 -0.00543765)
(0.0532734 0.058799 -0.0182869)
(0.118811 0.114976 -0.0193772)
(0.149941 0.169638 -0.0130619)
(0.156773 0.230937 -0.0142476)
(0.122919 0.276274 -0.0097553)
(0.0669653 0.317898 -0.00147101)
(0.0313159 0.373632 0.00576571)
(0.00288309 0.411925 0.0118023)
(-0.0320674 0.452559 0.0116987)
(-0.0716361 0.490714 0.0159705)
(-0.102612 0.517313 0.0214553)
(-0.128326 0.539572 0.0283346)
(-0.153136 0.551726 0.0341291)
(-0.17727 0.555582 0.0360915)
(-0.201907 0.552641 0.0367945)
(-0.224905 0.545145 0.0356224)
(-0.251001 0.532454 0.0313881)
(-0.273012 0.518593 0.0251857)
(-0.295095 0.493001 0.010264)
(-0.346758 0.480125 0.000110423)
(-0.319341 0.454956 0.00944333)
(-0.24092 0.355128 0.0173982)
(-0.236158 0.338477 0.0234311)
(-0.265111 0.312055 0.0312416)
(-0.29941 0.297615 0.0360526)
(-0.332257 0.279365 0.0410171)
(-0.357944 0.256555 0.0381075)
(-0.377196 0.232466 0.0239551)
(-0.394877 0.198993 0.00978838)
(-0.398454 0.174452 4.56167e-05)
(-0.386208 0.151443 -0.0051574)
(-0.371439 0.137651 -0.0113054)
(-0.345441 0.139608 -0.0185237)
(-0.335909 0.15196 -0.0224476)
(-0.304396 0.190206 -0.0277541)
(-0.196757 0.173375 -0.0263859)
(-0.0896754 0.163385 -0.0244092)
(-0.019818 0.127856 -0.0134965)
(0.00471234 0.0604086 -0.000916119)
(0.00799194 0.0282871 -0.00839122)
(0.062377 0.0982642 -0.0259544)
(0.136777 0.158785 -0.0253335)
(0.174876 0.212245 -0.0158868)
(0.174177 0.262681 -0.0141828)
(0.141195 0.295507 -0.0125905)
(0.101602 0.344905 -0.0021772)
(0.0692125 0.391106 0.0104606)
(0.0382455 0.427827 0.016688)
(0.0144087 0.454583 0.0268149)
(-0.0125883 0.475968 0.0238467)
(-0.0431912 0.489214 0.0338741)
(-0.0660318 0.496876 0.0387261)
(-0.0886033 0.487606 0.043933)
(-0.112624 0.472229 0.0428892)
(-0.138966 0.450066 0.0397342)
(-0.166623 0.426252 0.034594)
(-0.196301 0.401795 0.0277633)
(-0.226513 0.387306 0.0195892)
(-0.262756 0.370029 0.00470772)
(-0.318578 0.357481 -0.00704274)
(-0.340499 0.358647 -0.00712626)
(-0.271703 0.296862 0.00649379)
(-0.234241 0.283916 0.00892637)
(-0.266781 0.267278 0.0192231)
(-0.301017 0.258274 0.0269279)
(-0.340413 0.238953 0.0355807)
(-0.373243 0.220976 0.0315306)
(-0.400879 0.190456 0.0243564)
(-0.417165 0.163659 0.00959659)
(-0.422582 0.135372 0.0112439)
(-0.419213 0.114244 0.0176867)
(-0.399838 0.0946716 0.0150331)
(-0.37684 0.0965239 0.00904762)
(-0.357013 0.110378 -0.0124234)
(-0.326835 0.158476 -0.0238456)
(-0.226972 0.171254 -0.02448)
(-0.106675 0.16307 -0.0215387)
(-0.025556 0.135724 -0.0125033)
(0.00589787 0.0644652 0.000249113)
(0.00876656 0.0487799 -0.0111274)
(0.0698462 0.139556 -0.0322432)
(0.153935 0.204286 -0.0312518)
(0.194519 0.251198 -0.017496)
(0.191613 0.287188 -0.0121406)
(0.168152 0.322642 -0.0125081)
(0.139683 0.363685 -0.00215735)
(0.109133 0.40007 0.00568973)
(0.083883 0.428343 0.0138647)
(0.0561235 0.448732 0.0290406)
(0.0280108 0.453497 0.0375717)
(0.0114527 0.454259 0.0471685)
(-0.0120704 0.441085 0.0470202)
(-0.0415024 0.420038 0.0500955)
(-0.0680157 0.391804 0.0467541)
(-0.099018 0.361049 0.0393643)
(-0.132074 0.330783 0.0309718)
(-0.164373 0.3049 0.0229958)
(-0.199728 0.291153 0.0135447)
(-0.241451 0.275474 0.00280233)
(-0.29244 0.270432 -0.00648557)
(-0.329284 0.277331 -0.0107991)
(-0.27486 0.268188 7.91238e-05)
(-0.229003 0.250435 -0.000301937)
(-0.255436 0.23784 0.0116922)
(-0.294154 0.22472 0.020742)
(-0.338209 0.208223 0.0294781)
(-0.376332 0.184924 0.0288217)
(-0.407674 0.157983 0.0184813)
(-0.431096 0.127943 0.0304737)
(-0.445364 0.0933598 0.0315291)
(-0.447549 0.0648995 0.0191212)
(-0.434996 0.0512566 0.0136827)
(-0.401854 0.0475493 0.00680816)
(-0.364733 0.0632428 0.000211066)
(-0.333961 0.108002 -0.0212779)
(-0.250511 0.150568 -0.0282978)
(-0.124602 0.158985 -0.0233956)
(-0.0283552 0.139319 -0.0150161)
(0.00495484 0.068352 -0.00131153)
(0.00935632 0.069089 -0.0116534)
(0.0760815 0.182067 -0.0359946)
(0.1655 0.248663 -0.0342789)
(0.207199 0.284013 -0.017576)
(0.211917 0.31334 -0.00986825)
(0.197577 0.345015 -0.00633097)
(0.174879 0.376216 -0.00486572)
(0.148023 0.400263 0.00883826)
(0.121597 0.419468 0.0131816)
(0.0977273 0.427693 0.0257326)
(0.075067 0.429838 0.036216)
(0.0472925 0.418348 0.0522054)
(0.0219715 0.391392 0.0552621)
(-0.00216963 0.357704 0.0549896)
(-0.0338662 0.325927 0.0469924)
(-0.0688694 0.294137 0.0356949)
(-0.106295 0.266861 0.0246953)
(-0.138283 0.246373 0.0162545)
(-0.1776 0.23696 0.00608198)
(-0.222409 0.227402 -0.000752396)
(-0.267104 0.226473 -0.00760575)
(-0.297421 0.233415 -0.0101626)
(-0.254137 0.255715 -0.00257923)
(-0.214863 0.234796 -0.00339111)
(-0.238243 0.21292 0.00689339)
(-0.273649 0.194306 0.0163104)
(-0.320656 0.173937 0.0228597)
(-0.362212 0.150217 0.0196082)
(-0.398246 0.122045 0.0370344)
(-0.43111 0.0868739 0.04475)
(-0.452795 0.0535262 0.0408565)
(-0.454506 0.0277772 0.0518086)
(-0.447381 0.00407739 0.0405016)
(-0.432133 0.000283779 0.0338394)
(-0.396018 0.010281 0.0250654)
(-0.351181 0.0565343 0.00369205)
(-0.262871 0.110709 -0.0247117)
(-0.138393 0.147687 -0.0248028)
(-0.0343308 0.137709 -0.014154)
(0.00610587 0.0718466 -0.00127553)
(0.00981827 0.0874883 -0.0114388)
(0.07866 0.219756 -0.0390414)
(0.168936 0.287259 -0.0376373)
(0.217384 0.316006 -0.0190483)
(0.233089 0.338399 -0.00613495)
(0.226118 0.361223 0.000423563)
(0.205462 0.382847 0.00483565)
(0.180799 0.396223 0.00604179)
(0.159681 0.405501 0.016297)
(0.136413 0.406801 0.0264326)
(0.109845 0.397181 0.0355039)
(0.0834149 0.378191 0.0424658)
(0.0510058 0.349835 0.054735)
(0.0209451 0.313666 0.0549033)
(-0.00717406 0.274011 0.0459857)
(-0.0442816 0.248075 0.030099)
(-0.0832921 0.2227 0.0183921)
(-0.114882 0.208269 0.0101172)
(-0.153538 0.200517 0.00069407)
(-0.196019 0.196909 -0.00322053)
(-0.232881 0.197075 -0.00761943)
(-0.24315 0.2154 -0.00573775)
(-0.211277 0.245415 -0.00253598)
(-0.200386 0.221024 -0.00260856)
(-0.217275 0.18791 0.00346744)
(-0.248887 0.161538 0.0111868)
(-0.292228 0.134267 0.0158361)
(-0.334853 0.11105 0.0280787)
(-0.378532 0.0780888 0.0412169)
(-0.415906 0.0467985 0.0458721)
(-0.438224 0.0137105 0.0657425)
(-0.464089 -0.0242756 0.0470648)
(-0.471921 -0.0660505 0.0357244)
(-0.453983 -0.0871998 0.0154486)
(-0.414324 -0.0746236 0.00432507)
(-0.369843 -0.0254503 0.0100834)
(-0.284218 0.0595859 -0.00260714)
(-0.152279 0.115697 -0.0310886)
(-0.0392871 0.129778 -0.0144049)
(0.00661484 0.0723321 -0.00289892)
(0.00861084 0.0958754 -0.0103728)
(0.0773628 0.245706 -0.041155)
(0.169953 0.317401 -0.0420033)
(0.224275 0.343183 -0.022234)
(0.250336 0.3569 -0.00381971)
(0.250485 0.366397 0.00656006)
(0.232049 0.377812 0.0123518)
(0.209204 0.38583 0.0161009)
(0.18945 0.390951 0.0187214)
(0.166827 0.385053 0.022886)
(0.143483 0.370017 0.0281993)
(0.112343 0.345029 0.0390108)
(0.0785924 0.312433 0.0410269)
(0.0423835 0.278325 0.0479677)
(0.0124155 0.241486 0.0425117)
(-0.0206417 0.210901 0.0226568)
(-0.0617394 0.193083 0.0125503)
(-0.0892214 0.183043 0.00518167)
(-0.124958 0.173817 -0.00300927)
(-0.162908 0.171033 -0.00489318)
(-0.181677 0.179708 -0.00392312)
(-0.175464 0.209149 0.00082434)
(-0.167166 0.21788 9.84359e-05)
(-0.181286 0.193381 0.00025571)
(-0.198437 0.161103 0.00208548)
(-0.219746 0.12289 0.00769387)
(-0.256121 0.0974539 0.0112655)
(-0.297226 0.0670506 0.029276)
(-0.340379 0.039347 0.0377186)
(-0.378285 0.0089314 0.0591754)
(-0.426019 -0.0334607 0.0445622)
(-0.467796 -0.0874216 0.038003)
(-0.485777 -0.131266 0.0248029)
(-0.474243 -0.163731 0.0142874)
(-0.433741 -0.167266 -0.00446158)
(-0.372179 -0.125171 -0.00679414)
(-0.29046 -0.0223807 -3.29592e-05)
(-0.171563 0.0759628 -0.0167785)
(-0.0434301 0.116803 -0.0195726)
(0.0071619 0.0735774 -0.00188718)
(0.00710018 0.103683 -0.00956163)
(0.0747608 0.26844 -0.0414315)
(0.168155 0.344732 -0.0437882)
(0.228928 0.368297 -0.0235895)
(0.261187 0.374318 -0.00319013)
(0.267219 0.371775 0.011449)
(0.257303 0.374355 0.0200487)
(0.240089 0.376399 0.0226707)
(0.22117 0.374047 0.0251226)
(0.196593 0.361847 0.0265123)
(0.168839 0.342203 0.0280516)
(0.137594 0.312698 0.0255165)
(0.100751 0.281616 0.0271607)
(0.0632923 0.245797 0.0269911)
(0.028051 0.219851 0.029938)
(-0.0026312 0.187063 0.0160871)
(-0.0321244 0.171913 0.00661131)
(-0.0630327 0.163354 -0.000496351)
(-0.0957096 0.150962 -0.00477653)
(-0.116253 0.158875 -0.00267963)
(-0.114404 0.17696 0.00200745)
(-0.118085 0.189113 0.0041069)
(-0.132577 0.178958 0.00530261)
(-0.155077 0.157819 0.00393058)
(-0.177021 0.132534 0.00370482)
(-0.192702 0.094109 0.00489527)
(-0.21868 0.0636754 0.0158258)
(-0.254816 0.0326616 0.0250881)
(-0.291454 0.00360405 0.044466)
(-0.344017 -0.0367722 0.0387907)
(-0.399274 -0.0905773 0.0372998)
(-0.447024 -0.143254 0.0280185)
(-0.477187 -0.196753 0.0179183)
(-0.481643 -0.237833 0.00337314)
(-0.44825 -0.257232 -0.0106237)
(-0.382917 -0.225481 -0.0196222)
(-0.292178 -0.136046 -0.0187938)
(-0.177364 0.0115589 0.000571701)
(-0.0534892 0.091487 -0.02708)
(0.00661666 0.0730572 -0.00333329)
(0.0051562 0.0872234 -0.00726224)
(0.0697879 0.26618 -0.0396727)
(0.163466 0.348303 -0.0418817)
(0.229108 0.370868 -0.0222775)
(0.268236 0.370465 0.000637149)
(0.283022 0.363082 0.0145319)
(0.279688 0.361641 0.0197982)
(0.262221 0.356474 0.0225607)
(0.241793 0.350304 0.0240766)
(0.218124 0.337595 0.0242319)
(0.192551 0.317565 0.0231573)
(0.160442 0.290498 0.0193298)
(0.123322 0.25654 0.0155453)
(0.087443 0.223302 0.00915092)
(0.0509299 0.196057 0.0137499)
(0.0176293 0.173182 0.00579103)
(-0.00750282 0.160324 0.000390904)
(-0.0351394 0.150772 -0.00495824)
(-0.0523866 0.152292 -0.00243567)
(-0.0548466 0.162985 0.000318648)
(-0.063652 0.168094 0.00434332)
(-0.0806311 0.1562 0.00821794)
(-0.100133 0.142048 0.00902708)
(-0.124156 0.122622 0.00796873)
(-0.151262 0.104304 0.00650006)
(-0.168838 0.0729288 0.00810718)
(-0.18732 0.0351829 0.0151497)
(-0.215439 0.00483077 0.0287214)
(-0.256218 -0.0325751 0.0274276)
(-0.309783 -0.0781616 0.0312053)
(-0.364698 -0.126238 0.0284669)
(-0.416946 -0.183063 0.024874)
(-0.454574 -0.242091 0.0159214)
(-0.470505 -0.297077 0.00301712)
(-0.4488 -0.32968 -0.0133191)
(-0.390455 -0.319368 -0.0272405)
(-0.287641 -0.238788 -0.0315983)
(-0.176095 -0.0859899 -0.0203241)
(-0.05649 0.0492466 -0.0191953)
(0.00860569 0.0626603 -0.00892954)
(0.00351635 0.101558 -0.00711288)
(0.0648631 0.285695 -0.0379033)
(0.157379 0.371866 -0.0426842)
(0.229006 0.392993 -0.0217864)
(0.27751 0.38812 0.00272899)
(0.303245 0.373415 0.0136647)
(0.305638 0.361308 0.0191836)
(0.291467 0.348655 0.0202471)
(0.273946 0.336018 0.017905)
(0.247816 0.31496 0.0143285)
(0.218425 0.288811 0.0111978)
(0.18219 0.259296 0.00656962)
(0.141044 0.23156 0.00337371)
(0.104967 0.205296 0.000306854)
(0.070967 0.189425 0.00113874)
(0.0461211 0.180438 -0.00230666)
(0.0246447 0.175609 -0.00513595)
(0.00761293 0.171609 -0.0036126)
(-0.00226007 0.174004 -0.00118135)
(-0.0152707 0.165669 0.00247785)
(-0.0321275 0.147588 0.00596165)
(-0.0521435 0.129127 0.0101057)
(-0.0715734 0.11083 0.0108149)
(-0.0945538 0.0925305 0.0103037)
(-0.123491 0.0756577 0.0098899)
(-0.150745 0.056952 0.0039099)
(-0.165227 0.0203619 0.00608576)
(-0.187853 -0.0149444 0.00891503)
(-0.224976 -0.0600651 0.0154191)
(-0.270075 -0.105508 0.0178022)
(-0.322991 -0.157961 0.0192161)
(-0.375704 -0.218811 0.0169905)
(-0.417874 -0.285125 0.0111935)
(-0.443366 -0.352636 6.11665e-05)
(-0.435 -0.402766 -0.0157644)
(-0.386593 -0.413257 -0.0325341)
(-0.295531 -0.34762 -0.0490832)
(-0.1818 -0.191873 -0.035824)
(-0.0576414 0.00416405 -0.00919035)
(0.00613789 0.0645201 -0.0104788)
(-0.00621403 0.077314 -0.0150087)
(0.0453931 0.271865 -0.039901)
(0.139804 0.367806 -0.0463431)
(0.218763 0.389902 -0.0273977)
(0.276549 0.385052 -0.00812148)
(0.309824 0.362747 0.0041168)
(0.319491 0.343283 0.0101546)
(0.306077 0.326006 0.011092)
(0.283761 0.320506 0.0105283)
(0.256323 0.316429 0.00773336)
(0.231831 0.311238 0.00601634)
(0.204382 0.297885 0.00296634)
(0.171137 0.281238 0.00123063)
(0.142238 0.260586 -0.000221432)
(0.115746 0.241163 0.00298631)
(0.0873671 0.227932 -0.00395932)
(0.0639374 0.212502 -0.00933892)
(0.0437317 0.19446 -0.00710625)
(0.0243153 0.176907 -0.00512339)
(0.00358563 0.154464 -0.000685655)
(-0.0140591 0.130177 0.00505589)
(-0.0303392 0.107195 0.0089119)
(-0.0489364 0.0869197 0.00996524)
(-0.0696277 0.0677332 0.0107719)
(-0.0936936 0.0500866 0.00580341)
(-0.124502 0.0337787 0.00163195)
(-0.14976 0.0109778 0.00205024)
(-0.173247 -0.0254842 -0.00148698)
(-0.207168 -0.0644112 0.000990761)
(-0.247819 -0.108114 0.00586281)
(-0.295135 -0.157682 0.0101697)
(-0.343922 -0.221451 0.0119245)
(-0.385011 -0.294821 0.00908073)
(-0.412278 -0.374818 0.000109478)
(-0.409963 -0.443391 -0.0135658)
(-0.368651 -0.475156 -0.0322915)
(-0.276017 -0.440447 -0.055311)
(-0.162538 -0.306719 -0.0581904)
(-0.0429359 -0.0913602 -0.0223111)
(0.0103375 0.0309738 -0.0083799)
(-0.00771631 0.179549 -0.00991195)
(0.0402892 0.393403 -0.0252718)
(0.127592 0.493527 -0.0356409)
(0.207687 0.517675 -0.0160108)
(0.272382 0.506425 -0.00659949)
(0.314359 0.477022 0.00983802)
(0.335944 0.442129 0.013791)
(0.342365 0.427673 0.0150803)
(0.34263 0.431173 0.00945364)
(0.322003 0.42973 0.00334634)
(0.289611 0.418924 -0.00294269)
(0.247518 0.394013 -0.00701774)
(0.201079 0.360089 -0.00960964)
(0.15909 0.323464 -0.0084949)
(0.126448 0.284794 -0.00656395)
(0.101082 0.24915 -0.00243015)
(0.0726108 0.218733 -0.00796787)
(0.0527557 0.19025 -0.00810279)
(0.039413 0.160502 -0.00603116)
(0.0198001 0.13477 -0.00319018)
(0.00186277 0.113981 0.00170112)
(-0.0146942 0.0892584 0.00703653)
(-0.0304915 0.0682626 0.00838148)
(-0.0500611 0.0472497 0.0116987)
(-0.0735044 0.0277347 0.00369972)
(-0.100475 0.0100522 0.00645029)
(-0.126536 -0.00291228 0.00590612)
(-0.152722 -0.0248735 0.00274359)
(-0.179684 -0.057841 -0.00269793)
(-0.213546 -0.106896 -0.00818811)
(-0.259293 -0.165167 -0.0104453)
(-0.309246 -0.233115 -0.0104111)
(-0.353422 -0.306955 -0.0101631)
(-0.386671 -0.392717 -0.0144132)
(-0.390723 -0.473671 -0.0263838)
(-0.366923 -0.536619 -0.0564566)
(-0.300959 -0.526559 -0.0793668)
(-0.195567 -0.4011 -0.076341)
(-0.0597498 -0.151382 -0.0448383)
(0.010217 0.037637 -0.00673654)
(-0.0184552 0.260445 -0.0213394)
(0.0172967 0.50192 -0.0442915)
(0.106059 0.612596 -0.0531802)
(0.190015 0.655076 -0.0409769)
(0.259871 0.64868 -0.0301216)
(0.305548 0.622813 -0.0158888)
(0.343058 0.581401 -0.0056566)
(0.370278 0.553221 -0.00410027)
(0.364501 0.529771 -0.00799432)
(0.327755 0.497641 -0.00995354)
(0.284673 0.45826 -0.010155)
(0.23793 0.412686 -0.0104088)
(0.194445 0.363578 -0.00929598)
(0.159129 0.317679 -0.00810399)
(0.129534 0.273782 -0.00606845)
(0.104855 0.235254 -0.00367368)
(0.0864161 0.200061 0.000588134)
(0.0658142 0.173355 -0.00451405)
(0.0478241 0.145629 -0.0054278)
(0.0349851 0.119659 -0.0033637)
(0.0167903 0.095325 -0.00127413)
(-0.00105357 0.0757338 0.00416858)
(-0.0165348 0.0500693 0.00700836)
(-0.0353771 0.0314442 0.00823822)
(-0.0538193 0.012441 0.00681051)
(-0.0736324 -0.00309731 0.0101858)
(-0.0957425 -0.0162939 0.0101405)
(-0.127859 -0.0306419 0.00596639)
(-0.172331 -0.0520099 0.00403253)
(-0.215432 -0.0907195 0.00520212)
(-0.253189 -0.141235 0.00454404)
(-0.282055 -0.213028 -0.000201686)
(-0.30834 -0.306478 -0.0106477)
(-0.333127 -0.434763 -0.0220647)
(-0.348182 -0.556654 -0.0328555)
(-0.336009 -0.666479 -0.0547366)
(-0.268616 -0.701776 -0.0804018)
(-0.168148 -0.597473 -0.0888169)
(-0.0512235 -0.315925 -0.0690713)
(0.0110207 -0.0230095 -0.00868732)
(-0.000242461 0.226181 0.00169965)
(0.0365759 0.46702 -0.0342416)
(0.108118 0.591142 -0.0456256)
(0.189355 0.64548 -0.0411245)
(0.257162 0.64792 -0.0307947)
(0.305741 0.626404 -0.0211007)
(0.343498 0.590058 -0.0132057)
(0.369929 0.55054 -0.00613486)
(0.366884 0.509729 -0.00685697)
(0.331789 0.472492 -0.0061048)
(0.288333 0.434186 -0.00561921)
(0.239857 0.39333 -0.00457816)
(0.19514 0.348817 -0.0041746)
(0.158242 0.306287 -0.00282719)
(0.131043 0.262734 -0.00331386)
(0.111588 0.224237 -0.00136126)
(0.0920461 0.186378 -0.00139265)
(0.0776014 0.154897 0.000955237)
(0.062949 0.130416 0.00107288)
(0.0442763 0.105119 -0.00303773)
(0.0305612 0.0840832 -0.000628666)
(0.0110382 0.0616321 0.00148491)
(-0.00463334 0.0429388 0.00900572)
(-0.0172383 0.021755 0.00796812)
(-0.035574 0.00440594 0.00701906)
(-0.053165 -0.0114457 0.0101234)
(-0.0715713 -0.0276865 0.0114885)
(-0.0960953 -0.0444447 0.010703)
(-0.132816 -0.0568073 0.00717414)
(-0.174454 -0.0701212 0.00565626)
(-0.224123 -0.0938487 0.00475631)
(-0.282681 -0.140926 0.00558184)
(-0.344833 -0.214817 0.00778946)
(-0.373493 -0.328661 0.00654724)
(-0.364943 -0.455194 -0.00171207)
(-0.344634 -0.595061 -0.0149174)
(-0.278469 -0.684597 -0.031019)
(-0.16795 -0.669052 -0.0556452)
(-0.0318178 -0.417854 -0.054571)
(0.0261952 -0.0534235 -0.00415006)
(-9.40091e-05 0.242915 0.000934315)
(0.0363038 0.459073 -0.027962)
(0.103516 0.58175 -0.0382979)
(0.178903 0.63794 -0.0359905)
(0.245494 0.643348 -0.0216503)
(0.295077 0.621159 -0.0154178)
(0.336537 0.582733 -0.00611768)
(0.36431 0.542347 -0.000935461)
(0.362091 0.49594 -0.000702305)
(0.329659 0.456553 -0.000105252)
(0.285309 0.415504 0.000122895)
(0.235887 0.373096 0.000253914)
(0.19355 0.330766 6.35875e-05)
(0.16017 0.2909 -0.000470918)
(0.133787 0.251262 -0.000729201)
(0.113027 0.212536 0.00027135)
(0.0991061 0.173738 0.0017329)
(0.0889782 0.140737 0.00329525)
(0.0740751 0.113182 0.00342339)
(0.0617348 0.0904833 0.00605452)
(0.0438291 0.0711034 0.00217297)
(0.026476 0.0524261 0.00193568)
(0.0114116 0.0339303 0.00581122)
(-0.00582496 0.0174479 0.00668601)
(-0.0173813 -0.00417584 0.00763407)
(-0.0329504 -0.0193317 0.00879477)
(-0.0506585 -0.0384507 0.010366)
(-0.070536 -0.0577497 0.0113342)
(-0.0985632 -0.0761943 0.0118532)
(-0.133369 -0.0942951 0.010619)
(-0.176027 -0.114415 0.010971)
(-0.216534 -0.146426 0.0109424)
(-0.268254 -0.183925 0.0110889)
(-0.309631 -0.246167 0.010158)
(-0.339292 -0.339307 0.00590744)
(-0.355011 -0.478307 0.00014327)
(-0.325405 -0.585532 -0.0129571)
(-0.22692 -0.61823 -0.0359853)
(-0.0561081 -0.409774 -0.049873)
(0.0285575 -0.0140096 -0.022616)
(0.00643927 0.215388 0.000633317)
(0.0435229 0.412074 -0.0233247)
(0.103401 0.54161 -0.032172)
(0.176125 0.602347 -0.0312398)
(0.24069 0.617305 -0.0186991)
(0.290198 0.598339 -0.0114926)
(0.333754 0.562466 -0.00215327)
(0.359202 0.519296 0.00222391)
(0.357633 0.469504 0.00297489)
(0.328501 0.427295 0.00328236)
(0.283258 0.385472 0.00386924)
(0.236126 0.346405 0.00426227)
(0.196827 0.309291 0.00355656)
(0.164334 0.272888 0.00303459)
(0.138527 0.235664 0.00224938)
(0.118899 0.199398 0.00285856)
(0.103051 0.164544 0.00415366)
(0.0969313 0.130209 0.00657775)
(0.0890954 0.101964 0.00665239)
(0.0750414 0.0768288 0.00585346)
(0.0624179 0.0610478 0.00632346)
(0.0418881 0.042547 0.00559846)
(0.0274604 0.0271763 0.00397187)
(0.0118909 0.0106163 0.00376417)
(-0.00387597 -0.00549156 0.00742057)
(-0.0164749 -0.0240918 0.0077605)