/*--------------------------------*- C++ -*----------------------------------*\
| =========                 |                                                 |
| \\      /  F ield         | OpenFOAM: The Open Source CFD Toolbox           |
|  \\    /   O peration     | Version:  v1806                                 |
|   \\  /    A nd           | Web:      www.OpenFOAM.com                      |
|    \\/     M anipulation  |                                                 |
\*---------------------------------------------------------------------------*/
FoamFile
{
    version     2.0;
    format      ascii;
    class       volVectorField;
    location    "0.0825";
    object      U_0;
}
// * * * * * * * * * * * * * * * * * * * * * * * * * * * * * * * * * * * * * //

dimensions      [0 1 -1 0 0 0 0];


internalField   nonuniform List<vector> 
64000
(
(-0.00975642 -0.0110545 -0.00760642)
(0.014256 -0.0109388 -0.00509206)
(0.0202422 -0.00367568 0.00057032)
(0.0246373 -0.00332827 0.00120842)
(0.0256801 -0.00242243 0.00153966)
(0.0259254 -0.00271277 0.00226258)
(0.0254817 -0.00361118 0.00249171)
(0.0221164 -0.00397724 0.00287139)
(0.0208781 -0.00492975 0.00430529)
(0.0137366 -0.00449669 0.00372235)
(0.00831695 -0.0051992 0.00603975)
(-0.00452352 -0.00859799 0.00633515)
(-0.0236416 -0.0125205 0.00619856)
(-0.0475652 -0.0176787 0.00388798)
(-0.0766322 -0.0181014 0.00492397)
(-0.11274 -0.0167438 0.00251475)
(-0.141763 0.000264153 0.00174482)
(-0.186534 -0.00443631 -0.00268141)
(-0.185983 -0.00964629 0.00532175)
(-0.246573 -0.0276732 -0.0147709)
(-0.21573 -0.0220877 -0.0224113)
(-0.107354 -0.0235928 -0.0386443)
(-0.108026 -0.00882837 -0.0258802)
(-0.104891 -0.00351289 -0.0372157)
(-0.121732 0.00284266 -0.0481041)
(-0.115865 0.0110791 -0.0575849)
(-0.104092 0.0210911 -0.0622752)
(-0.0682076 0.0321364 -0.0581783)
(-0.0347272 0.0387142 -0.053785)
(0.00894061 0.0515856 -0.0379867)
(0.0550335 0.0469255 -0.0320239)
(0.0902028 0.0380368 -0.0241072)
(0.106377 0.027354 -0.0122461)
(0.102728 0.0138173 -0.0047974)
(0.0890489 0.00536553 0.00133177)
(0.0702616 -0.0026727 0.00394273)
(0.0506884 -0.00653792 0.00521301)
(0.0302582 -0.00578331 0.00606703)
(0.0161581 -0.00425903 0.00657144)
(0.00213532 -0.00271964 0.00437709)
(-0.00706502 0.00165481 -0.00391314)
(0.00861894 -0.0164223 -0.00371489)
(0.023736 -0.0108383 -0.00153828)
(0.0337652 -0.00752347 -0.000809713)
(0.0393099 -0.002744 -0.00110156)
(0.0393431 -0.000598601 -0.00160757)
(0.0379776 0.00343596 -0.00308654)
(0.0306825 0.00500834 -0.00286938)
(0.0236819 0.0106842 -0.00707699)
(0.00600363 0.0162439 -0.00430139)
(-0.0180916 0.0250168 -0.00815068)
(-0.0550966 0.0316917 0.000593409)
(-0.102682 0.042625 -0.0040049)
(-0.154888 0.0625342 -0.00682311)
(-0.213631 0.0758146 -0.011232)
(-0.271645 0.084774 -0.0181908)
(-0.351134 0.0929972 -0.0436158)
(-0.456567 0.0951626 -0.0585648)
(-0.504237 0.101208 -0.0760394)
(-0.58974 0.0998348 -0.098471)
(-0.543367 0.126976 -0.0969123)
(-0.407414 0.142011 -0.126185)
(-0.389596 0.187208 -0.136412)
(-0.372903 0.211736 -0.146088)
(-0.362693 0.236698 -0.157653)
(-0.323939 0.258196 -0.163828)
(-0.2748 0.279106 -0.165195)
(-0.203371 0.294712 -0.153596)
(-0.127364 0.300751 -0.133677)
(-0.0554933 0.306006 -0.109904)
(0.00935876 0.289485 -0.0761954)
(0.0731545 0.2592 -0.0469029)
(0.110201 0.210331 -0.0388957)
(0.122453 0.159427 -0.02645)
(0.117265 0.108661 -0.0127811)
(0.0983842 0.069015 -0.00530329)
(0.078842 0.0404604 -0.000934792)
(0.0540864 0.0258121 5.73427e-05)
(0.0323283 0.0160146 0.00160373)
(0.00788505 0.00760252 0.0018238)
(-0.000613199 -0.00566414 0.00151405)
(0.0148481 -0.0224807 -0.0017038)
(0.0315845 -0.0173153 -0.00272494)
(0.0421992 -0.00520271 -0.003749)
(0.0445658 0.00484238 -0.00552029)
(0.0422243 0.0161309 -0.00693395)
(0.0348292 0.0313815 -0.00812958)
(0.0206653 0.0455655 -0.0096774)
(0.00474102 0.0695779 -0.00194367)
(-0.0257137 0.0900735 -0.00490276)
(-0.0637507 0.117111 -0.00814263)
(-0.11684 0.149519 -0.0133111)
(-0.171848 0.183223 -0.0176339)
(-0.250184 0.211403 -0.0322801)
(-0.347323 0.23102 -0.0353906)
(-0.443737 0.244655 -0.0422785)
(-0.529197 0.249531 -0.0588878)
(-0.617121 0.269752 -0.0773376)
(-0.659487 0.299552 -0.0950549)
(-0.7297 0.33375 -0.116142)
(-0.669454 0.371947 -0.106721)
(-0.507128 0.401117 -0.123801)
(-0.465769 0.457965 -0.125758)
(-0.437982 0.489194 -0.123468)
(-0.41871 0.521375 -0.126114)
(-0.375823 0.543159 -0.124543)
(-0.326178 0.557438 -0.119987)
(-0.260425 0.560911 -0.104951)
(-0.193802 0.550896 -0.0829715)
(-0.128463 0.531022 -0.0593809)
(-0.0725926 0.500054 -0.0399979)
(-0.0290071 0.452154 -0.0278005)
(0.00489353 0.379493 -0.0167018)
(0.0271837 0.30692 -0.0083291)
(0.0399947 0.227251 -0.0109483)
(0.0463009 0.16246 -0.0109003)
(0.0465674 0.114722 -0.0072037)
(0.0377396 0.077606 -0.0049666)
(0.0268398 0.0515165 -0.00123227)
(0.00782197 0.0249892 0.00154903)
(0.000467042 -0.00997969 0.00216806)
(0.0171361 -0.0238498 -0.00113464)
(0.0379951 -0.0110045 -0.00344099)
(0.0457167 0.0064311 -0.00658808)
(0.0437785 0.0303089 -0.0073204)
(0.0394846 0.0550726 -0.00909876)
(0.0266009 0.0903265 -0.00889576)
(0.00767243 0.122981 -0.00576079)
(-0.019546 0.167674 -0.0105841)
(-0.0653018 0.207778 -0.0129832)
(-0.111309 0.25196 -0.017285)
(-0.176272 0.288279 -0.0247774)
(-0.261218 0.316777 -0.0271896)
(-0.352267 0.333227 -0.0289745)
(-0.438531 0.354274 -0.0314789)
(-0.5178 0.378142 -0.0365201)
(-0.587343 0.408216 -0.0513139)
(-0.66207 0.437132 -0.0609836)
(-0.69037 0.478085 -0.0703042)
(-0.746219 0.522364 -0.0775859)
(-0.675014 0.555875 -0.0485232)
(-0.491885 0.575838 -0.045954)
(-0.436226 0.618336 -0.0406324)
(-0.408815 0.625731 -0.0295047)
(-0.390758 0.638921 -0.0269141)
(-0.357111 0.63953 -0.0218496)
(-0.31914 0.632087 -0.0183868)
(-0.27017 0.613572 -0.0109091)
(-0.22113 0.588025 0.00103004)
(-0.175788 0.555658 0.00825926)
(-0.144327 0.515292 0.0133415)
(-0.119433 0.471062 0.0119739)
(-0.0958921 0.413014 0.00629004)
(-0.0737792 0.349712 -0.00183156)
(-0.0507567 0.269928 -0.00550359)
(-0.0211302 0.201873 -0.0104626)
(-0.000593417 0.146855 -0.0106001)
(0.00840092 0.110589 -0.00792068)
(0.0166108 0.077316 -0.00342069)
(0.00621219 0.0371418 0.00123515)
(0.000996577 -0.0102615 0.0007694)
(0.0233455 -0.0131747 -0.00427766)
(0.0457779 0.00395981 -0.00749715)
(0.054269 0.0387662 -0.0084655)
(0.0517552 0.0764084 -0.00791327)
(0.045811 0.122347 -0.0153075)
(0.0270861 0.177399 -0.0128621)
(-0.000663438 0.236819 -0.00626073)
(-0.0335958 0.2926 -0.00791189)
(-0.087149 0.338699 -0.0100053)
(-0.148433 0.374797 -0.0127231)
(-0.227636 0.394415 -0.0153907)
(-0.301995 0.416909 -0.0162256)
(-0.376756 0.442208 -0.0213798)
(-0.449666 0.472397 -0.0203469)
(-0.517216 0.505027 -0.0213311)
(-0.573795 0.532786 -0.0250687)
(-0.629347 0.56879 -0.0223202)
(-0.638116 0.613664 -0.0175313)
(-0.679651 0.659691 -0.0261188)
(-0.609634 0.68777 0.00329566)
(-0.420141 0.692903 0.0158588)
(-0.360117 0.706281 0.0269103)
(-0.341939 0.680753 0.0365151)
(-0.335856 0.663655 0.0371197)
(-0.321513 0.63766 0.0429404)
(-0.303689 0.605648 0.0442124)
(-0.273144 0.569126 0.048307)
(-0.244718 0.528198 0.0415922)
(-0.21953 0.488828 0.0335703)
(-0.199241 0.444132 0.0235272)
(-0.189571 0.411165 0.0162081)
(-0.181602 0.374186 0.00851908)
(-0.176044 0.343416 -0.00350279)
(-0.153425 0.278411 -0.0134269)
(-0.104159 0.208749 -0.0143863)
(-0.0526783 0.160801 -0.0137022)
(-0.0171326 0.130312 -0.0116565)
(0.00271454 0.0959595 -0.00607722)
(0.00335271 0.0467088 0.00121237)
(0.0056884 -0.00518884 -0.000188054)
(0.028432 0.00180911 -0.00642677)
(0.0601577 0.0283371 -0.00613989)
(0.0723575 0.0806232 -0.00987154)
(0.0665476 0.138604 -0.0147867)
(0.0627371 0.202503 -0.0185222)
(0.0457333 0.278083 -0.0138197)
(0.0105296 0.330268 -0.00468976)
(-0.0434556 0.374702 -0.00545393)
(-0.114454 0.408289 -0.00748071)
(-0.18321 0.437898 -0.00957983)
(-0.24784 0.465834 -0.00976376)
(-0.307406 0.499654 -0.00798458)
(-0.365819 0.527395 -0.00502818)
(-0.41624 0.557235 0.000888806)
(-0.468427 0.585532 0.00621669)
(-0.501367 0.615593 0.0085582)
(-0.536071 0.647029 0.00852878)
(-0.539483 0.694183 0.010685)
(-0.567747 0.728538 0.00923233)
(-0.501204 0.753297 0.0370524)
(-0.328652 0.704255 0.0517344)
(-0.284792 0.686593 0.0619745)
(-0.288355 0.630249 0.0743777)
(-0.297194 0.589319 0.0768831)
(-0.301608 0.546856 0.0767029)
(-0.299888 0.503985 0.0740404)
(-0.289555 0.462486 0.067849)
(-0.274753 0.41542 0.065598)
(-0.263595 0.37729 0.0447399)
(-0.253808 0.334019 0.0335554)
(-0.243006 0.303447 0.0190289)
(-0.229218 0.278003 0.00770084)
(-0.23726 0.26599 -0.00410211)
(-0.241228 0.241795 -0.0161687)
(-0.175227 0.192861 -0.0143837)
(-0.0932492 0.161788 -0.0152968)
(-0.0407397 0.13564 -0.0119638)
(-0.00484787 0.103995 -0.00688668)
(0.0023825 0.0501745 0.00174115)
(0.00710115 0.000226125 -0.000310974)
(0.0381816 0.0145191 -0.0101194)
(0.0809214 0.0551125 -0.0101113)
(0.105369 0.110203 -0.0121077)
(0.100432 0.175246 -0.0165913)
(0.097679 0.249263 -0.0192154)
(0.0564046 0.313905 -0.0118559)
(-0.00836656 0.343752 0.0018153)
(-0.0582071 0.38733 -0.00316901)
(-0.11551 0.426372 -0.00375852)
(-0.164562 0.471626 -0.00380076)
(-0.215785 0.513715 -0.00194776)
(-0.262582 0.552935 0.00138108)
(-0.309691 0.586328 0.00659671)
(-0.349764 0.619088 0.0144007)
(-0.384602 0.643895 0.0198329)
(-0.407993 0.671172 0.0258558)
(-0.425826 0.683281 0.0292274)
(-0.416357 0.708745 0.0268866)
(-0.437195 0.722015 0.0175556)
(-0.430343 0.741717 0.0334321)
(-0.292067 0.635886 0.0549169)
(-0.234422 0.586518 0.0591351)
(-0.254828 0.524625 0.0713388)
(-0.2739 0.482202 0.071757)
(-0.294921 0.443906 0.0712238)
(-0.309021 0.408687 0.067381)
(-0.315218 0.374427 0.0602912)
(-0.313687 0.337731 0.0472571)
(-0.314404 0.303585 0.0316074)
(-0.311325 0.270705 0.0184053)
(-0.303271 0.242857 0.0059646)
(-0.289534 0.223117 -0.00277598)
(-0.285833 0.207618 -0.00989151)
(-0.289244 0.218371 -0.0188462)
(-0.227274 0.193288 -0.0209913)
(-0.127852 0.16726 -0.0220395)
(-0.056173 0.146653 -0.0169867)
(-0.0100492 0.112918 -0.0108491)
(0.00232843 0.054993 -1.78622e-05)
(0.00721919 0.00692536 -0.00357069)
(0.0453957 0.0334427 -0.0137003)
(0.0994874 0.0826268 -0.0138145)
(0.125107 0.138565 -0.0113671)
(0.128461 0.197533 -0.0122984)
(0.115585 0.270465 -0.0129437)
(0.0545081 0.30129 -0.00238216)
(0.00450414 0.350614 0.00481709)
(-0.0285316 0.397136 0.000790132)
(-0.0788506 0.450706 0.00227624)
(-0.121483 0.495048 0.00304303)
(-0.164644 0.532517 0.00942026)
(-0.201009 0.566052 0.015321)
(-0.232588 0.593027 0.0233215)
(-0.260184 0.618769 0.0277715)
(-0.289083 0.633999 0.0319513)
(-0.307745 0.645572 0.0347377)
(-0.326081 0.6446 0.0339768)
(-0.324131 0.639749 0.0311928)
(-0.338243 0.616624 0.0151624)
(-0.380219 0.621523 0.0164217)
(-0.295004 0.541812 0.0355412)
(-0.222877 0.459247 0.0382753)
(-0.243351 0.418155 0.0495709)
(-0.269793 0.382399 0.0531895)
(-0.3008 0.357457 0.0545257)
(-0.325037 0.331626 0.0554935)
(-0.342462 0.305917 0.0482212)
(-0.352176 0.278152 0.0388884)
(-0.359788 0.248213 0.0168231)
(-0.361075 0.216747 0.00828611)
(-0.351441 0.192213 -0.0010043)
(-0.336853 0.179416 -0.00871222)
(-0.319953 0.170444 -0.0126352)
(-0.327448 0.192175 -0.0220915)
(-0.277245 0.196618 -0.0209885)
(-0.161903 0.172672 -0.0226926)
(-0.0746583 0.155919 -0.0176951)
(-0.0151725 0.120235 -0.0104806)
(0.00338124 0.0588217 0.000785066)
(0.00601822 0.0192124 -0.00617458)
(0.0537203 0.0643866 -0.0178805)
(0.11973 0.120853 -0.019414)
(0.151653 0.176551 -0.0134812)
(0.159703 0.237953 -0.0142115)
(0.129198 0.289567 -0.0126326)
(0.0725972 0.324608 -0.0031619)
(0.0335186 0.382227 0.00450114)
(0.00557017 0.419936 0.0106146)
(-0.0293461 0.460596 0.0104254)
(-0.0691944 0.498586 0.0146547)
(-0.101048 0.525737 0.0201481)
(-0.127405 0.548674 0.0274416)
(-0.1527 0.561899 0.0338342)
(-0.1763 0.566588 0.0360987)
(-0.202077 0.563302 0.0366046)
(-0.224447 0.557117 0.0353013)
(-0.251325 0.541136 0.0305701)
(-0.272237 0.527145 0.024541)
(-0.288554 0.493689 0.0101676)
(-0.340552 0.483346 -0.000373322)
(-0.318244 0.454132 0.0104611)
(-0.243571 0.355243 0.0198096)
(-0.242302 0.33727 0.0258394)
(-0.273864 0.311953 0.033665)
(-0.308885 0.297378 0.037887)
(-0.342457 0.279554 0.0431341)
(-0.367307 0.257953 0.0390416)
(-0.387193 0.234565 0.0238764)
(-0.404336 0.201761 0.00837959)
(-0.406604 0.177185 -0.00147812)
(-0.393696 0.154199 -0.00692925)
(-0.378415 0.140901 -0.0124696)
(-0.350855 0.141878 -0.0208881)
(-0.340825 0.155115 -0.0247802)
(-0.306963 0.191518 -0.0292654)
(-0.197477 0.175275 -0.026604)
(-0.0899068 0.16532 -0.0247683)
(-0.0201676 0.130254 -0.0137899)
(0.00429089 0.0650154 -0.00140276)
(0.00766457 0.035353 -0.00894493)
(0.0627579 0.10274 -0.0255302)
(0.138225 0.163356 -0.0245807)
(0.176933 0.217193 -0.0148694)
(0.179273 0.271187 -0.0154682)
(0.147736 0.30418 -0.0141939)
(0.104677 0.350942 -0.00410528)
(0.0719722 0.397737 0.00776709)
(0.0412731 0.435578 0.0147663)
(0.0168569 0.462212 0.0254973)
(-0.0101311 0.485197 0.0223613)
(-0.0413766 0.498299 0.0328582)
(-0.0645153 0.507107 0.0379678)
(-0.0880435 0.497947 0.0436667)
(-0.111456 0.483049 0.0438863)
(-0.138482 0.459953 0.0407477)
(-0.166187 0.436957 0.0354015)
(-0.19736 0.411343 0.0276788)
(-0.228845 0.394533 0.0189733)
(-0.259748 0.375658 0.00463096)
(-0.312989 0.360043 -0.00834627)
(-0.34231 0.359519 -0.0072191)
(-0.275444 0.292106 0.00879186)
(-0.240217 0.282307 0.011255)
(-0.274955 0.264596 0.0219683)
(-0.310203 0.256926 0.0291611)
(-0.349799 0.238169 0.0384713)
(-0.381984 0.22191 0.0324129)
(-0.410539 0.19241 0.0245908)
(-0.425772 0.166138 0.00928861)
(-0.431248 0.138329 0.0105053)
(-0.42618 0.116647 0.016973)
(-0.406388 0.0973451 0.0136089)
(-0.381269 0.0991398 0.00864696)
(-0.361433 0.112695 -0.0138706)
(-0.329935 0.161196 -0.024968)
(-0.227884 0.172525 -0.0253403)
(-0.107645 0.165353 -0.0215841)
(-0.0260323 0.138004 -0.0128599)
(0.00530471 0.0693341 -0.000207391)
(0.00879136 0.0580466 -0.0115178)
(0.0714294 0.145937 -0.0318085)
(0.156044 0.210179 -0.0310615)
(0.200362 0.259276 -0.0185344)
(0.198471 0.29757 -0.01174)
(0.172691 0.331005 -0.0142706)
(0.143996 0.37157 -0.00365191)
(0.112953 0.408811 0.00408618)
(0.0874728 0.437372 0.0123765)
(0.0593674 0.45853 0.0281856)
(0.0307861 0.463762 0.0366648)
(0.0135858 0.464586 0.0468545)
(-0.0101879 0.452155 0.0469337)
(-0.0403769 0.43081 0.0499268)
(-0.0671178 0.402409 0.0483818)
(-0.0987591 0.370327 0.0421496)
(-0.131358 0.340829 0.0337891)
(-0.167124 0.313858 0.024596)
(-0.202179 0.297762 0.0157808)
(-0.240616 0.283779 0.00273389)
(-0.291729 0.274136 -0.00758452)
(-0.336342 0.277854 -0.0117648)
(-0.280338 0.259127 0.00161128)
(-0.234088 0.245545 0.00248562)
(-0.263365 0.233291 0.0148623)
(-0.301662 0.221686 0.0234076)
(-0.346573 0.206827 0.0326418)
(-0.383228 0.184614 0.0304969)
(-0.415611 0.159174 0.0199538)
(-0.438785 0.129743 0.0298364)
(-0.45285 0.0953425 0.0312796)
(-0.454348 0.0672002 0.0177346)
(-0.44026 0.0526942 0.0127071)
(-0.406393 0.0496607 0.00436327)
(-0.368754 0.0645267 -0.00102995)
(-0.337836 0.111884 -0.0230801)
(-0.25202 0.15198 -0.0286674)
(-0.124868 0.161818 -0.0237196)
(-0.0290293 0.142144 -0.0150701)
(0.0046526 0.0740968 -0.00186228)
(0.00969704 0.0768186 -0.0122227)
(0.077405 0.186058 -0.035766)
(0.169488 0.253155 -0.0342597)
(0.213718 0.290989 -0.0178834)
(0.217455 0.319272 -0.0101265)
(0.201965 0.351471 -0.00747122)
(0.178666 0.383099 -0.00610205)
(0.151995 0.407571 0.00713291)
(0.125242 0.427783 0.0124592)
(0.100941 0.43648 0.0243298)
(0.0778219 0.43976 0.0362115)
(0.0491044 0.428885 0.0513594)
(0.0237834 0.402939 0.0554409)
(-0.00113753 0.368758 0.054804)
(-0.0334512 0.337127 0.048703)
(-0.0683494 0.303813 0.0397283)
(-0.105445 0.277365 0.0287811)
(-0.141769 0.254957 0.0194003)
(-0.180469 0.246133 0.0102104)
(-0.22374 0.23467 0.000423485)
(-0.27089 0.231214 -0.0075198)
(-0.312942 0.232219 -0.0118406)
(-0.264644 0.236175 -0.00126878)
(-0.216886 0.219894 -0.00222424)
(-0.243697 0.204573 0.0099271)
(-0.279385 0.18895 0.0192256)
(-0.327211 0.172211 0.027104)
(-0.36746 0.14964 0.0217932)
(-0.404199 0.122614 0.0380716)
(-0.436926 0.0880406 0.0451134)
(-0.458688 0.0548161 0.0391308)
(-0.460123 0.029131 0.050085)
(-0.452812 0.00626675 0.0390608)
(-0.435074 0.00268305 0.0343813)
(-0.397487 0.0120669 0.0247022)
(-0.35375 0.0587892 0.0036186)
(-0.264984 0.113694 -0.0253647)
(-0.138946 0.149664 -0.025252)
(-0.0351048 0.140603 -0.0145412)
(0.00578077 0.0771032 -0.00183947)
(0.0103774 0.0983295 -0.0114046)
(0.0820811 0.227097 -0.0382277)
(0.174901 0.294883 -0.0372416)
(0.224795 0.32382 -0.018781)
(0.239493 0.346139 -0.00594568)
(0.231585 0.369694 -0.000127356)
(0.210568 0.391654 0.00425331)
(0.186049 0.406125 0.00515621)
(0.164686 0.415607 0.0156898)
(0.141194 0.417481 0.0260241)
(0.114142 0.408058 0.0354566)
(0.0871825 0.388965 0.0424542)
(0.0536821 0.360701 0.0553478)
(0.0224012 0.323827 0.0553006)
(-0.00674867 0.284179 0.0475005)
(-0.0441431 0.257452 0.0348255)
(-0.0829807 0.233308 0.0228397)
(-0.118323 0.217324 0.0143832)
(-0.157633 0.21105 0.00542727)
(-0.201117 0.203452 -0.000362723)
(-0.242785 0.204144 -0.00690872)
(-0.275208 0.202251 -0.00964539)
(-0.231612 0.226432 -0.00226578)
(-0.194028 0.202243 -0.00409287)
(-0.214628 0.178276 0.00619733)
(-0.249366 0.156678 0.0145585)
(-0.295256 0.133208 0.0194107)
(-0.338067 0.111303 0.0325332)
(-0.38267 0.0789353 0.0446897)
(-0.420413 0.047472 0.0466419)
(-0.443413 0.0152961 0.066266)
(-0.468872 -0.0220137 0.0468901)
(-0.475663 -0.0623541 0.0347191)
(-0.458383 -0.0828467 0.0128879)
(-0.417428 -0.0703178 0.00417206)
(-0.37196 -0.0222229 0.00804125)
(-0.28608 0.0627388 -0.00246492)
(-0.153478 0.119448 -0.0312072)
(-0.0400636 0.13394 -0.0144925)
(0.0059244 0.0796146 -0.00338849)
(0.00972897 0.104075 -0.0105485)
(0.0805272 0.249725 -0.0405102)
(0.175243 0.320759 -0.0411771)
(0.230835 0.347022 -0.0218767)
(0.256312 0.361006 -0.00352915)
(0.255782 0.372542 0.00612028)
(0.236917 0.384339 0.0123829)
(0.214179 0.392934 0.0158246)
(0.193729 0.398215 0.0189947)
(0.170927 0.39266 0.023057)
(0.146749 0.377921 0.0294549)
(0.114661 0.353808 0.0400892)
(0.0806599 0.321105 0.0419318)
(0.0435205 0.288412 0.0500486)
(0.0126128 0.250965 0.0456092)
(-0.0191042 0.221864 0.0281425)
(-0.0606067 0.203114 0.0173455)
(-0.0924524 0.189685 0.0100414)
(-0.130883 0.183691 0.00235851)
(-0.169357 0.179814 -0.000457199)
(-0.206829 0.176848 -0.00558484)
(-0.216997 0.187796 -0.00335363)
(-0.184026 0.214033 -0.00186155)
(-0.173178 0.183768 -0.00204041)
(-0.189027 0.151536 0.0029306)
(-0.216384 0.120169 0.0103925)
(-0.256755 0.0970093 0.0155306)
(-0.299198 0.0681265 0.0333155)
(-0.344079 0.0412031 0.0407197)
(-0.381981 0.0113629 0.0618612)
(-0.430331 -0.0302446 0.0458617)
(-0.471882 -0.083292 0.0383033)
(-0.489241 -0.12699 0.0240494)
(-0.476489 -0.159086 0.0131944)
(-0.435674 -0.161462 -0.00713709)
(-0.374872 -0.120853 -0.00705559)
(-0.292062 -0.0189558 -0.00107506)
(-0.171761 0.0777441 -0.0170836)
(-0.0442369 0.119102 -0.0202777)
(0.00711952 0.0793425 -0.00224661)
(0.00859583 0.115063 -0.00856045)
(0.0793384 0.275101 -0.0399086)
(0.17489 0.350874 -0.0425811)
(0.236933 0.374482 -0.0228094)
(0.269379 0.380714 -0.00239216)
(0.274531 0.379446 0.0116542)
(0.262791 0.382154 0.0213044)
(0.245583 0.384707 0.0240369)
(0.226448 0.383112 0.026816)
(0.202227 0.371947 0.028808)
(0.174895 0.352785 0.0306687)
(0.143003 0.323028 0.0289385)
(0.105732 0.291594 0.0308602)
(0.0665543 0.254817 0.0328833)
(0.0297076 0.227673 0.0343473)
(-0.00177947 0.194178 0.0219075)
(-0.0354406 0.178061 0.0114565)
(-0.0667157 0.168449 0.00647298)
(-0.0986385 0.158758 0.000516509)
(-0.135425 0.153562 -0.00108541)
(-0.154882 0.156722 -0.000989016)
(-0.151077 0.18093 0.00257178)
(-0.14139 0.183569 0.000390008)
(-0.153376 0.155636 -0.00037312)
(-0.166749 0.124252 0.00228952)
(-0.183513 0.0882064 0.00632816)
(-0.217023 0.0613728 0.0192842)
(-0.254475 0.0323512 0.028492)
(-0.293166 0.00554832 0.0473594)
(-0.346991 -0.033443 0.0406865)
(-0.403673 -0.0856461 0.0384413)
(-0.452143 -0.136923 0.0285376)
(-0.482322 -0.188564 0.0180301)
(-0.485781 -0.228985 0.0025946)
(-0.451879 -0.247687 -0.0125243)
(-0.386088 -0.216656 -0.0210779)
(-0.295819 -0.127131 -0.0185576)
(-0.180066 0.0183489 0.000993072)
(-0.0540099 0.0974028 -0.0268256)
(0.0061566 0.0816863 -0.00355279)
(0.00624282 0.0944847 -0.00850418)
(0.0731606 0.268242 -0.0397922)
(0.168918 0.349983 -0.0417021)
(0.23553 0.373942 -0.022254)
(0.275107 0.37473 0.00111185)
(0.289018 0.369203 0.0151705)
(0.284534 0.367731 0.0211602)
(0.26773 0.362475 0.0247988)
(0.247348 0.354377 0.0272594)
(0.22383 0.341255 0.0282002)
(0.1967 0.320503 0.0279562)
(0.163181 0.294669 0.0246221)
(0.12511 0.262083 0.0203819)
(0.0872299 0.231022 0.0143837)
(0.0496041 0.203938 0.0190041)
(0.0175799 0.181173 0.0122621)
(-0.0081529 0.161381 0.00637244)
(-0.0372056 0.149021 0.00114558)
(-0.0695557 0.138896 -0.00124875)
(-0.0896718 0.139872 0.000653778)
(-0.0917263 0.15269 0.00373804)
(-0.0974556 0.15884 0.00451106)
(-0.110475 0.147545 0.00318245)
(-0.128244 0.123866 0.00234208)
(-0.145229 0.101323 0.00298458)
(-0.159029 0.0634166 0.0053978)
(-0.181727 0.0333505 0.0162788)
(-0.212314 0.00480685 0.0312042)
(-0.255883 -0.0295964 0.030769)
(-0.3105 -0.074708 0.0338047)
(-0.366305 -0.122617 0.030232)
(-0.419075 -0.179013 0.0259721)
(-0.457377 -0.237583 0.0160413)
(-0.473657 -0.292335 0.00261441)
(-0.452269 -0.324789 -0.0146348)
(-0.393608 -0.314148 -0.0276349)
(-0.289886 -0.234602 -0.0312806)
(-0.179186 -0.0817734 -0.0194545)
(-0.0589529 0.0521894 -0.0194725)
(0.00803062 0.0699683 -0.00837391)
(0.00635805 0.105295 -0.00422165)
(0.0713838 0.285422 -0.0347098)
(0.165975 0.371025 -0.0396364)
(0.238956 0.39279 -0.0188305)
(0.288057 0.38815 0.00574983)
(0.311835 0.374131 0.0150074)
(0.310744 0.36403 0.0224852)
(0.294999 0.352529 0.0241855)
(0.277077 0.341735 0.023094)
(0.252886 0.323557 0.02049)
(0.225771 0.299104 0.0176022)
(0.191099 0.269063 0.0129396)
(0.150526 0.238136 0.00883577)
(0.111314 0.207537 0.00543872)
(0.0734069 0.184058 0.00414916)
(0.040387 0.166136 0.00202187)
(0.011515 0.154176 -0.000634016)
(-0.0107089 0.142166 -0.00122267)
(-0.0265145 0.140738 -0.000997085)
(-0.03654 0.143544 0.00156134)
(-0.0469986 0.142281 0.00405535)
(-0.0640131 0.129198 0.0061998)
(-0.0814723 0.114433 0.00554493)
(-0.101274 0.0952893 0.00464887)
(-0.123924 0.0755879 0.00704209)
(-0.140243 0.0481856 0.00552281)
(-0.15386 0.0124357 0.0120538)
(-0.182716 -0.0206741 0.0143798)
(-0.223126 -0.0621704 0.0194745)
(-0.272407 -0.104294 0.0210162)
(-0.327193 -0.152824 0.0225186)
(-0.380788 -0.209633 0.0203136)
(-0.423826 -0.271704 0.0147325)
(-0.449259 -0.337114 0.00294537)
(-0.440574 -0.386184 -0.013411)
(-0.392319 -0.398129 -0.0304707)
(-0.299794 -0.333954 -0.0444333)
(-0.184712 -0.183053 -0.0332636)
(-0.0583259 0.00992453 -0.00875409)
(0.00660994 0.0709774 -0.0118283)
(-0.00388014 0.0772839 -0.0153419)
(0.0503231 0.26622 -0.0405529)
(0.146465 0.362058 -0.046381)
(0.226849 0.385812 -0.0267226)
(0.285541 0.38282 -0.00550795)
(0.320079 0.361903 0.00749385)
(0.329473 0.344623 0.0137595)
(0.316481 0.326011 0.0144452)
(0.295345 0.312772 0.0134901)
(0.267546 0.300969 0.010095)
(0.23814 0.286525 0.00743012)
(0.204591 0.266392 0.00421263)
(0.166631 0.244251 0.00191605)
(0.131133 0.222068 0.00026509)
(0.098623 0.202026 0.00190242)
(0.0715656 0.191373 -0.000494954)
(0.0483092 0.182679 -0.00581981)
(0.0299364 0.170109 -0.00297379)
(0.0142704 0.161484 -0.00269736)
(-0.00346381 0.147876 0.00141193)
(-0.0198515 0.126933 0.00457448)
(-0.0382343 0.107795 0.00677481)
(-0.0568004 0.0890575 0.00614388)
(-0.0776797 0.0715604 0.00628098)
(-0.0993681 0.0529944 0.00270341)
(-0.12287 0.0340743 0.0024443)
(-0.141401 0.00304104 0.00176471)
(-0.164845 -0.0326167 0.00373543)
(-0.200038 -0.0692566 0.00718742)
(-0.241259 -0.113353 0.0115675)
(-0.288527 -0.164621 0.0142073)
(-0.337241 -0.229589 0.0142425)
(-0.381402 -0.303186 0.0100218)
(-0.412974 -0.382262 0.000628296)
(-0.414926 -0.446518 -0.0138212)
(-0.376091 -0.476998 -0.0314795)
(-0.285565 -0.435894 -0.0543181)
(-0.17282 -0.305649 -0.0527529)
(-0.0497291 -0.08075 -0.0187036)
(0.0079068 0.0433571 -0.0056402)
(-0.00457578 0.157829 -0.00623755)
(0.0464456 0.36424 -0.0211449)
(0.136045 0.463657 -0.031919)
(0.219139 0.485827 -0.0122215)
(0.285745 0.474323 -0.00484129)
(0.3271 0.443176 0.0121941)
(0.343386 0.407898 0.0157854)
(0.338183 0.392951 0.017937)
(0.331637 0.395144 0.0139456)
(0.311774 0.393006 0.00916114)
(0.282264 0.381435 0.00349357)
(0.244821 0.358135 -0.000416292)
(0.203836 0.326799 -0.00344561)
(0.16334 0.295311 -0.00397831)
(0.130861 0.264123 -0.00342643)
(0.10443 0.237654 -0.000121078)
(0.0713475 0.213039 -0.00672342)
(0.0485885 0.191963 -0.00811265)
(0.0327332 0.16311 -0.00593702)
(0.0107671 0.139865 -0.00338968)
(-0.00582294 0.116854 0.00267353)
(-0.0214239 0.0911547 0.00525479)
(-0.0375516 0.0722604 0.00609165)
(-0.0564372 0.0517449 0.00769239)
(-0.0778296 0.0329861 0.000622436)
(-0.10131 0.0142005 0.00312536)
(-0.123134 -0.00395932 0.00206918)
(-0.145059 -0.0347709 -0.00302956)
(-0.176908 -0.0741881 -0.00636782)
(-0.218873 -0.119813 -0.00595512)
(-0.26716 -0.165907 -0.00227394)
(-0.316072 -0.221722 0.00222416)
(-0.357978 -0.287245 0.0058694)
(-0.386358 -0.371293 0.000922611)
(-0.390367 -0.453931 -0.0138548)
(-0.365539 -0.521042 -0.039967)
(-0.302434 -0.517124 -0.0690325)
(-0.191113 -0.391777 -0.0635745)
(-0.0511375 -0.164241 -0.038761)
(0.00990473 0.0295906 -0.00524381)
(-0.0183655 0.242186 -0.0233742)
(0.0182412 0.483078 -0.0436703)
(0.107805 0.59309 -0.0521213)
(0.192841 0.633165 -0.0380524)
(0.26448 0.62483 -0.0271376)
(0.312521 0.596136 -0.0109312)
(0.352532 0.552833 -0.000571982)
(0.380629 0.526315 -0.000195357)
(0.375096 0.51057 -0.00564919)
(0.337794 0.486005 -0.0092993)
(0.291965 0.453555 -0.0106309)
(0.242367 0.413151 -0.0114234)
(0.197733 0.367148 -0.0108465)
(0.160785 0.321999 -0.0094695)
(0.129156 0.279316 -0.00737306)
(0.104045 0.239858 -0.00397279)
(0.0839974 0.204341 -0.000158663)
(0.0602798 0.17804 -0.00508871)
(0.0410668 0.151388 -0.0051397)
(0.028153 0.123912 -0.00347661)
(0.00765085 0.101843 -0.00091378)
(-0.00808207 0.0797209 0.00387944)
(-0.0221908 0.0554251 0.00508161)
(-0.0425722 0.0356844 0.00502616)
(-0.0602489 0.0162828 0.00403511)
(-0.0786216 -0.00125148 0.00800796)
(-0.10189 -0.0166848 0.00670971)
(-0.135165 -0.0377166 0.00419138)
(-0.168525 -0.0669614 0.00320335)
(-0.193502 -0.109107 0.000328505)
(-0.222237 -0.160134 -0.00484308)
(-0.25546 -0.233282 -0.0120581)
(-0.296545 -0.319891 -0.0193861)
(-0.336934 -0.434888 -0.0258793)
(-0.362874 -0.543232 -0.0335024)
(-0.358272 -0.644774 -0.0518031)
(-0.288591 -0.672604 -0.0750682)
(-0.202016 -0.563624 -0.0870754)
(-0.0749557 -0.280284 -0.0535544)
(0.0121599 0.000280101 -0.00692006)
(0.000181298 0.21 0.0016898)
(0.0380711 0.453071 -0.0352299)
(0.111626 0.578184 -0.047583)
(0.195775 0.634345 -0.0432811)
(0.266022 0.638724 -0.034954)
(0.316085 0.618898 -0.0237573)
(0.353539 0.582781 -0.016605)
(0.377601 0.541937 -0.0077962)
(0.373521 0.500098 -0.00913279)
(0.33813 0.462284 -0.00826883)
(0.29457 0.424261 -0.00775323)
(0.246248 0.385178 -0.00620318)
(0.202064 0.343786 -0.00501236)
(0.164524 0.304298 -0.00353256)
(0.135733 0.264251 -0.00329479)
(0.11358 0.228142 -0.00114986)
(0.0906718 0.191643 -0.000515464)
(0.074742 0.160603 0.00178588)
(0.0556385 0.138512 0.000706869)
(0.0357207 0.112848 -0.00259079)
(0.0223719 0.0910169 -8.23881e-05)
(0.00286567 0.0687479 0.00111754)
(-0.0117512 0.0475125 0.00764516)
(-0.0254723 0.0258429 0.00620293)
(-0.0426954 0.00925946 0.00565131)
(-0.0586127 -0.00870766 0.00869866)
(-0.0775309 -0.0254919 0.00941643)
(-0.103561 -0.0419658 0.00693678)
(-0.141868 -0.0534789 0.00361877)
(-0.183805 -0.0774402 0.00352539)
(-0.233155 -0.116284 0.00551578)
(-0.281442 -0.181123 0.00841289)
(-0.324976 -0.267295 0.00900511)
(-0.342459 -0.392648 0.00329839)
(-0.34144 -0.530236 -0.00737757)
(-0.330103 -0.673233 -0.0211026)
(-0.272678 -0.755777 -0.042128)
(-0.164038 -0.733032 -0.060967)
(-0.0398369 -0.457284 -0.0628984)
(0.0122367 -0.0912682 0.00546301)
(0.000215288 0.226514 -0.000725482)
(0.0368272 0.444921 -0.0306676)
(0.104502 0.568029 -0.0413638)
(0.181856 0.624486 -0.0391416)
(0.250639 0.630242 -0.0247847)
(0.302818 0.608525 -0.0183084)
(0.345931 0.570156 -0.0089576)
(0.373772 0.53059 -0.00266866)
(0.371847 0.485805 -0.00242805)
(0.339452 0.44857 -0.0016)
(0.294028 0.409749 -0.00113521)
(0.244303 0.370025 -0.000278813)
(0.202124 0.33045 6.54465e-05)
(0.167673 0.292141 0.000280647)
(0.138805 0.254889 0.000565139)
(0.115632 0.216656 0.00164287)
(0.0982064 0.180273 0.00271659)
(0.0860216 0.146244 0.00403941)
(0.0690648 0.119816 0.00382775)
(0.0534764 0.0983752 0.00543353)
(0.0337721 0.0790807 0.00185995)
(0.0167761 0.0584254 0.0012463)
(0.00244073 0.0388404 0.00644459)
(-0.0130264 0.0209435 0.00669306)
(-0.0254592 3.05712e-05 0.0065704)
(-0.0409889 -0.0167914 0.00827004)
(-0.0574858 -0.036325 0.00940676)
(-0.0770651 -0.0568592 0.00987483)
(-0.104984 -0.0736081 0.00894729)
(-0.137762 -0.0916103 0.00692351)
(-0.178581 -0.109624 0.00694209)
(-0.220933 -0.144198 0.00690831)
(-0.280406 -0.191915 0.0083519)
(-0.333155 -0.276853 0.0108763)
(-0.363057 -0.391983 0.0096615)
(-0.36951 -0.545717 0.00568649)
(-0.330314 -0.663082 -0.00763007)
(-0.229371 -0.694822 -0.0301783)
(-0.0596005 -0.484916 -0.0446482)
(0.0262225 -0.0684903 -0.0230326)
(0.00682446 0.199741 -0.000902197)
(0.0449453 0.397827 -0.0250222)
(0.105876 0.52906 -0.0342407)
(0.180212 0.59065 -0.0334329)
(0.24651 0.606985 -0.0210781)
(0.297846 0.589149 -0.0134912)
(0.342801 0.55323 -0.0041932)
(0.368483 0.51002 0.00145896)
(0.367506 0.460861 0.00218013)
(0.338799 0.41895 0.00246394)
(0.293717 0.378331 0.00320924)
(0.247088 0.341411 0.00419984)
(0.207168 0.306233 0.00434344)
(0.173817 0.271327 0.00448774)
(0.145527 0.236738 0.00398118)
(0.123466 0.201954 0.00428643)
(0.10285 0.16946 0.00491572)
(0.0939601 0.134559 0.00746403)
(0.0839463 0.107397 0.00759931)
(0.0675565 0.083902 0.00686359)
(0.052026 0.0691709 0.00687101)
(0.0303571 0.0499552 0.0062321)
(0.0175434 0.0326751 0.00462503)
(0.00273447 0.0152218 0.00435765)
(-0.0121322 -0.00240979 0.00755711)