/*--------------------------------*- C++ -*----------------------------------*\
| =========                 |                                                 |
| \\      /  F ield         | OpenFOAM: The Open Source CFD Toolbox           |
|  \\    /   O peration     | Version:  v1806                                 |
|   \\  /    A nd           | Web:      www.OpenFOAM.com                      |
|    \\/     M anipulation  |                                                 |
\*---------------------------------------------------------------------------*/
FoamFile
{
    version     2.0;
    format      ascii;
    class       surfaceScalarField;
    location    "0.0305";
    object      phi;
}
// * * * * * * * * * * * * * * * * * * * * * * * * * * * * * * * * * * * * * //

dimensions      [0 3 -1 0 0 0 0];
oriented        oriented;


internalField   nonuniform List<scalar> 
187200
(
7.72653e-06
6.69911e-07
-8.39762e-06
3.73169e-05
-1.26209e-05
-1.69693e-05
5.78957e-05
-7.9794e-06
-1.25993e-05
7.63403e-05
-7.52607e-06
-1.09184e-05
9.53334e-05
-6.8812e-06
-1.21119e-05
0.000112034
-3.94333e-06
-1.27569e-05
0.000127557
-9.17188e-07
-1.46066e-05
0.000141681
1.89446e-06
-1.6018e-05
0.000155059
4.11762e-06
-1.74953e-05
0.000162212
8.9501e-06
-1.61028e-05
0.000170168
9.63661e-06
-1.7593e-05
0.000168705
1.79804e-05
-1.6518e-05
0.000154047
2.52952e-05
-1.06374e-05
0.000117901
4.17646e-05
-5.61817e-06
7.15133e-05
4.20392e-05
4.34776e-06
2.30918e-05
3.07687e-05
1.76525e-05
-3.61401e-05
3.25418e-05
2.669e-05
-0.000104387
5.58874e-05
1.23594e-05
-0.000196306
9.78381e-05
-5.91946e-06
-0.000331627
0.00013943
-4.1095e-06
-0.000509711
0.000192444
-1.43587e-05
-0.000684301
0.000234247
-5.96574e-05
-0.000767052
0.000262432
-0.000179681
-0.000803668
0.000311114
-0.000274498
-0.000772616
0.000336932
-0.000367983
-0.000702001
0.000371318
-0.000441933
-0.000590623
0.000391685
-0.000503063
-0.000454642
0.000404346
-0.000540326
-0.000292883
0.00039373
-0.000555489
-0.000131576
0.00037372
-0.000535026
-9.28711e-06
0.00033678
-0.000459069
6.91202e-05
0.000295115
-0.000373523
9.5615e-05
0.000230567
-0.000257062
8.39843e-05
0.000172906
-0.000161275
5.35642e-05
0.000121869
-9.14495e-05
2.95116e-05
8.12561e-05
-5.72036e-05
1.21723e-05
5.54644e-05
-3.8125e-05
2.53759e-06
4.22844e-05
-3.26495e-05
-2.76128e-06
3.16928e-05
-2.63937e-05
2.02003e-05
-2.29611e-05
1.11057e-05
3.19635e-06
-1.3632e-05
4.75559e-05
-2.51764e-05
-2.38942e-05
8.54687e-05
-2.10838e-05
-2.48081e-05
0.000115517
-1.17003e-05
-2.58737e-05
0.000139383
-3.64032e-06
-2.71071e-05
0.000152441
1.43251e-05
-3.1326e-05
0.000160095
2.89028e-05
-3.74744e-05
0.000160516
4.49805e-05
-4.35073e-05
0.000150556
6.77614e-05
-5.36837e-05
0.000128665
9.09922e-05
-6.0151e-05
8.5805e-05
0.000128495
-7.59993e-05
2.57125e-05
0.0001701
-9.20276e-05
-5.5502e-05
0.000204937
-9.84278e-05
-0.0001538
0.000247647
-0.000107584
-0.000291392
0.000307031
-0.0001274
-0.000482973
0.000387152
-0.000164801
-0.000682497
0.000463398
-0.000231333
-0.000886408
0.0005508
-0.000291001
-0.00106211
0.000638678
-0.000365142
-0.00121986
0.000739673
-0.000442487
-0.00133278
0.000834302
-0.000528945
-0.00142287
0.000935705
-0.000611365
-0.00144425
0.00101558
-0.000731765
-0.00141589
0.00109294
-0.00081019
-0.00131924
0.00113171
-0.000891424
-0.00116779
0.00116467
-0.00094481
-0.000971334
0.00116695
-0.000971721
-0.000743285
0.00114321
-0.000966914
-0.000514738
0.00108615
-0.000920969
-0.000289477
0.000999414
-0.000850956
-0.000101
0.000873754
-0.000725451
5.96372e-05
0.000735904
-0.000601425
0.000133675
0.00059117
-0.00043464
0.000157811
0.00046023
-0.00031146
0.000139991
0.000343361
-0.000203671
0.000108096
0.00025383
-0.000140679
7.51209e-05
0.000188062
-9.96225e-05
4.80008e-05
0.000147059
-7.7654e-05
2.00562e-05
0.000116398
-5.67607e-05
7.73857e-05
-3.71289e-05
1.94295e-05
-3.98347e-06
-1.22495e-05
5.7586e-05
-3.22214e-05
-3.11114e-05
9.7676e-05
-2.21571e-05
-3.90166e-05
0.000125538
1.23819e-06
-4.08003e-05
0.000143941
2.63191e-05
-4.83621e-05
0.000147408
6.64016e-05
-5.55436e-05
0.000138069
0.000105631
-6.73893e-05
0.00011816
0.000149876
-8.4987e-05
8.88091e-05
0.000207891
-0.000110779
3.5467e-05
0.000276834
-0.0001325
-4.60524e-05
0.000357099
-0.000147085
-0.000148768
0.00043923
-0.000166415
-0.000315402
0.000551732
-0.000180161
-0.000506063
0.000655275
-0.000216967
-0.000715451
0.000768109
-0.000251691
-0.000905643
0.000876252
-0.000298909
-0.00108061
0.000984256
-0.000345889
-0.00124232
0.00110978
-0.000397277
-0.00138281
0.00123207
-0.000452898
-0.00150338
0.00136707
-0.000506832
-0.00159089
0.00148482
-0.000563014
-0.001645
0.00158383
-0.000594006
-0.0016367
0.001666
-0.000658723
-0.00158455
0.00172308
-0.000682298
-0.0014789
0.00174002
-0.000713956
-0.00133186
0.00173779
-0.000720152
-0.00115329
0.00169582
-0.000707443
-0.000952925
0.00161831
-0.000675458
-0.000744518
0.00150678
-0.000629036
-0.000530668
0.00135732
-0.000571753
-0.000354016
0.00119415
-0.000497047
-0.000199023
0.00100713
-0.000426217
-8.20954e-05
0.000816196
-0.000341954
-5.02489e-07
0.000648908
-0.000270271
3.25156e-05
0.000508698
-0.000198355
4.58183e-05
0.000393421
-0.000152894
4.71537e-05
0.000307303
-0.000120576
3.71084e-05
0.000256437
-9.93329e-05
1.73681e-05
0.000205796
-6.96571e-05
0.000132988
-3.82336e-05
1.9564e-05
-4.06631e-06
-1.9481e-05
5.84125e-05
-2.42885e-05
-4.67816e-05
9.60622e-05
1.22116e-06
-6.10277e-05
0.000122355
3.97821e-05
-6.48363e-05
0.000127804
9.51274e-05
-7.42576e-05
0.000115345
0.000167352
-8.84906e-05
9.59196e-05
0.000234257
-0.000109202
6.48813e-05
0.000321206
-0.000140292
1.24326e-05
0.00043154
-0.000171201
-7.17467e-05
0.0005498
-0.000188788
-0.000194453
0.000681223
-0.000201418
-0.000356697
0.000811547
-0.000210073
-0.000524432
0.000942452
-0.000222984
-0.000686953
0.00105902
-0.000241223
-0.000846099
0.00119149
-0.000264236
-0.00100021
0.00131684
-0.00028648
-0.00114693
0.00143725
-0.000306276
-0.0012747
0.00155854
-0.000320984
-0.00138186
0.00167052
-0.000331285
-0.0014723
0.00178533
-0.000327828
-0.00153847
0.00187291
-0.000321917
-0.00158866
0.00193121
-0.00029719
-0.00157882
0.00196724
-0.000311077
-0.00154136
0.00197528
-0.000289663
-0.0014601
0.00194327
-0.0002845
-0.00135206
0.00189557
-0.000265824
-0.00122421
0.00181284
-0.000244879
-0.0010822
0.00170057
-0.000224272
-0.000929636
0.00155853
-0.000204309
-0.000769187
0.00139482
-0.000197957
-0.000597781
0.00121996
-0.000197219
-0.000432157
0.00103994
-0.000198431
-0.000294398
0.000871723
-0.000193287
-0.00017015
0.0007136
-0.00018894
-8.27084e-05
0.000586975
-0.000165719
-2.51914e-05
0.000485281
-0.000149377
1.00243e-05
0.000404263
-0.000132175
2.23359e-05
0.00035268
-0.000108555
1.72623e-05
0.000287274
-7.64041e-05
0.000186142
-3.58913e-05
1.8601e-05
1.30517e-05
-3.5719e-05
6.27843e-05
1.05692e-05
-7.90411e-05
0.000102507
5.53756e-05
-9.38772e-05
0.000127764
0.000117741
-0.000103215
0.000128857
0.000203159
-0.000109125
0.000103009
0.000316914
-0.000123715
7.00135e-05
0.000421045
-0.000153793
2.25508e-05
0.00055643
-0.000187762
-3.78786e-05
0.000696123
-0.000204153
-0.000125514
0.000845547
-0.000208111
-0.00023011
0.000993887
-0.000208068
-0.000355969
0.00113725
-0.000199842
-0.000497935
0.00128027
-0.000195851
-0.000649609
0.00140471
-0.000194022
-0.000784984
0.00151647
-0.0001896
-0.000901432
0.00161027
-0.000176979
-0.00100572
0.00169667
-0.000155125
-0.00109635
0.00177779
-0.000128621
-0.00118504
0.00183806
-7.88587e-05
-0.00126569
0.00189654
-3.05565e-05
-0.0013412
0.00193017
1.82595e-05
-0.00141154
0.00192827
7.32807e-05
-0.0014156
0.00189519
7.61119e-05
-0.00141029
0.0018721
9.78762e-05
-0.00137185
0.00181715
8.76805e-05
-0.00132067
0.00175826
8.61262e-05
-0.0012548
0.00167039
7.65796e-05
-0.00118303
0.00156529
6.35089e-05
-0.00109177
0.00143704
3.02377e-05
-0.000976707
0.00129332
-1.35653e-05
-0.000837613
0.0011415
-6.063e-05
-0.00068066
0.00099032
-0.000107336
-0.000519558
0.000853487
-0.000142866
-0.000376585
0.000729507
-0.00015888
-0.000248207
0.000632073
-0.000173476
-0.000140255
0.000542266
-0.000164937
-6.13744e-05
0.000470132
-0.000144749
-8.3497e-06
0.0004212
-0.000121545
8.53425e-06
0.000350639
-8.02491e-05
0.000227439
-3.27638e-05
1.89656e-05
5.67682e-05
-6.26822e-05
6.02861e-05
8.58735e-05
-0.000116625
0.000115254
0.000142967
-0.000142559
0.00013427
0.000235516
-0.000136792
0.00012496
0.000349231
-0.000136761
9.88806e-05
0.000492015
-0.000149022
6.89194e-05
0.000631354
-0.000180348
3.32328e-05
0.00079776
-0.000205643
-1.86408e-05
0.000953165
-0.000205169
-8.95065e-05
0.0011085
-0.000192086
-0.000176361
0.00125486
-0.000174123
-0.000273723
0.00138633
-0.000151717
-0.000365259
0.00149798
-0.000126174
-0.000457382
0.00159666
-9.98288e-05
-0.000549176
0.00167554
-6.72746e-05
-0.000661505
0.00173535
-1.27484e-05
-0.000770223
0.00176202
4.33594e-05
-0.000857916
0.00177265
9.28347e-05
-0.000942869
0.00177442
0.000148592
-0.00102119
0.00176665
0.000208207
-0.0010915
0.00175336
0.000247118
-0.00118001
0.00173866
0.000278108
-0.00122168
0.00166035
0.000276509
-0.0012601
0.00162054
0.000289982
-0.0012741
0.00155178
0.000279362
-0.00127925
0.00149395
0.000269463
-0.00127253
0.00142154
0.000242134
-0.00126072
0.00134242
0.000211058
-0.00122759
0.00124781
0.0001561
-0.00115255
0.00114835
6.9935e-05
-0.00104657
0.00103634
-8.19665e-07
-0.000904252
0.00092464
-7.66374e-05
-0.000734048
0.000816397
-0.000133114
-0.000557175
0.000723587
-0.000170952
-0.000379995
0.00064238
-0.000187487
-0.000229247
0.000581819
-0.000190301
-0.000113553
0.000521556
-0.000167119
-3.32089e-05
0.000475982
-0.000135127
3.86365e-06
0.000401633
-8.80667e-05
0.000263198
-3.1896e-05
2.58851e-05
0.000126086
-9.52031e-05
9.17534e-05
0.000186225
-0.000166219
0.000155083
0.000266902
-0.000187264
0.000172548
0.00038555
-0.000167499
0.000152565
0.000527307
-0.000158094
0.00013682
0.000681866
-0.000174106
0.000120042
0.000846645
-0.000198513
9.93266e-05
0.00101823
-0.000199752
5.69457e-05
0.0011705
-0.000174951
-1.9458e-06
0.00131333
-0.000145941
-7.03134e-05
0.00143675
-0.000113517
-0.000144605
0.00153894
-7.83234e-05
-0.000221643
0.00161853
-4.35097e-05
-0.000299554
0.00167151
3.06587e-06
-0.000372998
0.00169509
5.38878e-05
-0.000439589
0.00169523
0.000106705
-0.000512707
0.00167215
0.000162995
-0.000605083
0.00164166
0.000223366
-0.0007057
0.00159549
0.000279543
-0.000801439
0.00153893
0.000323456
-0.000886469
0.00148541
0.000352983
-0.000992081
0.00146051
0.000383764
-0.0010675
0.00136503
0.000370729
-0.00113794
0.00132284
0.000368147
-0.00119701
0.0012706
0.000340251
-0.00125062
0.00123452
0.000313033
-0.00129326
0.00119323
0.00027095
-0.00132677
0.00114722
0.000228718
-0.00133856
0.00109257
0.000167022
-0.00129734
0.00103235
7.47781e-05
-0.00121695
0.000955757
1.92979e-07
-0.00109207
0.000873618
-7.38619e-05
-0.000920607
0.000789294
-0.000144357
-0.00072434
0.000715633
-0.000188311
-0.000512257
0.000652754
-0.000222456
-0.000322618
0.00061625
-0.000224071
-0.00016991
0.000568205
-0.000199358
-5.92158e-05
0.000523831
-0.000158543
-2.87191e-06
0.000446508
-0.000101219
0.000295442
-3.51157e-05
2.97533e-05
0.000223915
-0.000127581
0.000124351
0.000309211
-0.000217584
0.000200015
0.000418951
-0.000227714
0.00022627
0.000554961
-0.000195665
0.000216933
0.00071229
-0.000175646
0.000207237
0.000873336
-0.000181774
0.000199174
0.00104039
-0.000185678
0.000189
0.00119549
-0.000167085
0.000156746
0.00133504
-0.000132288
0.000110635
0.00145123
-9.17847e-05
5.65102e-05
0.00154501
-5.41347e-05
-6.1124e-06
0.00161036
-8.7927e-06
-7.50235e-05
0.0016425
4.49348e-05
-0.000141825
0.00164603
9.22811e-05
-0.00021427
0.00162091
0.000146632
-0.000288811
0.00157045
0.000199326
-0.000368539
0.00150132
0.000250558
-0.000456079
0.00143129
0.000297904
-0.000548397
0.00135477
0.000333038
-0.000649251
0.00128332
0.000356463
-0.000741984
0.00121324
0.000364901
-0.000847651
0.00119162
0.000374556
-0.000954411
0.00111533
0.000356457
-0.00105699
0.00108367
0.000341753
-0.00114947
0.00104654
0.000316534
-0.00123689
0.0010355
0.000286444
-0.00130956
0.00102036
0.000245539
-0.00137216
0.000995338
0.000214477
-0.00141275
0.000968321
0.000164837
-0.00140705
0.000925512
0.00010114
-0.00135455
0.000871978
3.12779e-05
-0.0012477
0.00080628
-3.95084e-05
-0.00108001
0.000742048
-0.00012044
-0.000876884
0.000690464
-0.000177962
-0.000650626
0.00064301
-0.000216514
-0.000413968
0.000631546
-0.000251955
-0.000222102
0.000600558
-0.000224219
-8.30355e-05
0.000565141
-0.000180377
-9.23194e-06
0.000488171
-0.000115466
0.000325576
-3.93663e-05
5.30407e-05
0.000322727
-0.000151853
0.000170629
0.000449153
-0.000257529
0.000265929
0.000588471
-0.00026482
0.000302712
0.000734568
-0.000216391
0.000302573
0.000892876
-0.000180448
0.000294821
0.0010464
-0.000165315
0.000287145
0.00119887
-0.000150809
0.000284783
0.00132854
-0.00013069
0.000271742
0.00144095
-9.28721e-05
0.000233101
0.00153359
-4.37274e-05
0.000183316
0.00158708
7.70903e-06
0.000121163
0.00160742
6.50922e-05
5.21236e-05
0.00159948
0.000112068
-1.85016e-05
0.00155834
0.000158317
-9.455e-05
0.00149214
0.000204815
-0.00017539
0.00140541
0.000245879
-0.000265745
0.00130938
0.000282287
-0.000367048
0.00122326
0.000309341
-0.000462406
0.00112808
0.000322051
-0.000566909
0.00106352
0.000324309
-0.000672067
0.00100288
0.000315525
-0.000771453
0.000980829
0.000310179
-0.000882148
0.000931449
0.000294581
-0.00100237
0.00092124
0.000282651
-0.00111957
0.00089415
0.000269591
-0.00122577
0.000894135
0.00024757
-0.00132189
0.000892529
0.000223944
-0.00140409
0.000881163
0.00019638
-0.00147023
0.000861915
0.000172545
-0.00149839
0.000824303
0.000129364
-0.00147036
0.000778172
6.57834e-05
-0.00137569
0.00072489
-1.32879e-05
-0.0012119
0.000669061
-9.07987e-05
-0.000992461
0.000628712
-0.00015769
-0.000748625
0.000607093
-0.000207919
-0.00049685
0.000617708
-0.000237936
-0.000276197
0.000623619
-0.000243714
-0.000107928
0.000594912
-0.000198041
-1.65679e-05
0.000526382
-0.000129571
0.000354529
-4.55208e-05
6.72426e-05
0.000422837
-0.000167352
0.000207244
0.000600128
-0.000290976
0.00032727
0.000759767
-0.000291323
0.000383613
0.0009033
-0.000225075
0.000398911
0.00104876
-0.000171181
0.00039295
0.00118564
-0.000133278
0.000382662
0.00131917
-0.00011001
0.000373975
0.00142618
-8.89564e-05
0.000357523
0.0015054
-4.79943e-05
0.000337419
0.00155237
1.32636e-06
0.000296221
0.00157611
5.21726e-05
0.00022486
0.00156761
0.000111169
0.000150571
0.00151777
0.000155991
7.38527e-05
0.00143887
0.000196191
-1.15055e-05
0.00134661
0.00023089
-0.000101159
0.0012379
0.000257162
-0.000207742
0.00113796
0.00027801
-0.00031411
0.00104279
0.000286832
-0.000427113
0.000958488
0.000282596
-0.000534021
0.00090354
0.000266886
-0.000638152
0.000856074
0.000250934
-0.000731414
0.000832022
0.000242069
-0.000839524
0.000806597
0.000232962
-0.000955154
0.000802186
0.000234684
-0.00108684
0.000793548
0.000232288
-0.00119847
0.000779213
0.000226549
-0.00130664
0.000785444
0.000215256
-0.00140594
0.000774634
0.000205828
-0.00149435
0.000749565
0.000200762
-0.00154495
0.000713186
0.000161715
-0.00154484
0.000675598
0.000102467
-0.00147207
0.000635986
1.61313e-05
-0.00132812
0.000599409
-7.42963e-05
-0.0011105
0.000564612
-0.000153522
-0.000856129
0.000546492
-0.000193769
-0.000577797
0.00055994
-0.000220565
-0.000321286
0.000614663
-0.000247555
-0.000131205
0.000610642
-0.000205811
-2.32067e-05
0.000556539
-0.000138157
0.000380905
-4.95828e-05
8.39185e-05
0.000510831
-0.000171913
0.000249404
0.000747796
-0.000313153
0.000394538
0.000921128
-0.000306496
0.000471188
0.00105295
-0.000226303
0.000499038
0.001178
-0.000157092
0.000495484
0.00129155
-0.000102355
0.000484089
0.00139989
-6.9327e-05
0.000465352
0.00147855
-3.36329e-05
0.000434972
0.00153305
2.72568e-06
0.000396512
0.00155539
3.54421e-05
0.000355565
0.00153695
8.01084e-05
0.000298298
0.00148847
0.000136406
0.000223104
0.00141636
0.000176607
0.000133489
0.00131844
0.000210039
4.16161e-05
0.00120626
0.000232224
-5.59366e-05
0.00109113
0.000244319
-0.0001734
0.00100093
0.000254494
-0.000284244
0.000904564
0.000249073
-0.000406163
0.000844285
0.000236122
-0.000505134
0.000788065
0.000214446
-0.000601876
0.000755214
0.000197603
-0.000696292
0.000733314
0.000193123
-0.000800198
0.000718343
0.000192161
-0.000902673
0.000701803
0.000202858
-0.00102741
0.00070386
0.000214428
-0.00115017
0.000678387
0.000223583
-0.00126506
0.000673247
0.000227082
-0.00138749
0.000659103
0.000237965
-0.00149305
0.00063483
0.000220301
-0.00156862
0.000605882
0.000182867
-0.00159927
0.000577994
0.000128254
-0.00155727
0.000549388
4.46036e-05
-0.00142976
0.000512557
-4.06569e-05
-0.00120581
0.000485382
-0.000144726
-0.000927542
0.000471947
-0.000203723
-0.000641066
0.00049795
-0.000224486
-0.000372123
0.000561258
-0.000215538
-0.000156487
0.000614952
-0.000219946
-3.05648e-05
0.000574263
-0.000143645
0.000406337
-5.59961e-05
9.24996e-05
0.000587634
-0.000169303
0.000283666
0.000877768
-0.000321139
0.000456701
0.00106021
-0.000312116
0.000552646
0.00117978
-0.000222774
0.000592646
0.00128164
-0.00014364
0.000593914
0.00136619
-7.59105e-05
0.000581265
0.00144506
-3.25239e-05
0.000552372
0.00149753
9.91101e-06
0.000509437
0.00152605
4.99362e-05
0.000455945
0.00151809
9.07902e-05
0.000396132
0.00148118
0.000115578
0.00032666
0.00141012
0.000147818
0.00025565
0.00130871
0.000178662
0.000168912
0.00119845
0.000206732
7.70422e-05
0.00108329
0.000214833
-3.16266e-05
0.000976593
0.000223211
-0.000139819
0.000887319
0.0002218
-0.000262353
0.000809371
0.000217727
-0.000370026
0.000755144
0.000196814
-0.000468343
0.000710458
0.000175924
-0.000560506
0.000682892
0.000164484
-0.000649402
0.000656804
0.000165406
-0.000738584
0.000636366
0.000171158
-0.000837771
0.000613645
0.000187344
-0.000942501
0.000595609
0.000212981
-0.00107229
0.000579403
0.000228768
-0.00119289
0.000543946
0.000249905
-0.00132697
0.00053902
0.000254162
-0.00145008
0.000521072
0.000236866
-0.00155303
0.000502507
0.00020633
-0.00160984
0.000486456
0.000148349
-0.00159515
0.000470158
6.45399e-05
-0.0015012
0.000432072
-1.34642e-05
-0.00132103
0.000405799
-0.000100592
-0.00103425
0.000393774
-0.000208606
-0.000709612
0.000418172
-0.00024486
-0.000406437
0.000484252
-0.000226168
-0.00017666
0.000583713
-0.000198538
-3.732e-05
0.000582143
-0.00014722
0.000427093
-5.80774e-05
0.00010038
0.000646506
-0.000159252
0.000314887
0.000984124
-0.000320862
0.000513556
0.00117449
-0.000312952
0.000627263
0.00127935
-0.000213271
0.000675079
0.00135878
-0.000124956
0.000678927
0.00141762
-5.52798e-05
0.000664596
0.00146497
-5.57149e-06
0.000628725
0.0014875
4.58994e-05
0.000577175
0.0014894
8.8201e-05
0.000511154
0.001462
0.000122114
0.000435354
0.00140551
0.000151478
0.000353194
0.00131956
0.000172722
0.000271332
0.00121014
0.000180431
0.000182923
0.00109387
0.000192993
9.36428e-05
0.000978118
0.000194454
-1.38529e-05
0.000885216
0.000198873
-0.000124954
0.000799701
0.000198719
-0.000236946
0.000732494
0.000188869
-0.000337115
0.000687908
0.000167405
-0.000429428
0.00064839
0.000154382
-0.000510635
0.000617117
0.000146982
-0.000589142
0.000584766
0.000150544
-0.000662158
0.000553308
0.000156074
-0.000756744
0.000530935
0.000177296
-0.000845775
0.000489378
0.000195262
-0.000963251
0.000475485
0.000221393
-0.00109551
0.000433896
0.00024231
-0.00122542
0.000413374
0.000255558
-0.00136144
0.000411292
0.000245801
-0.00148365
0.000408347
0.000216364
-0.00157967
0.000401724
0.00018075
-0.00160613
0.000371685
0.000124933
-0.00155534
0.000328341
5.29446e-05
-0.00140291
0.00028776
-3.43915e-05
-0.00114608
0.000277528
-0.000140582
-0.000801424
0.000312457
-0.000238942
-0.000461685
0.000402411
-0.000257898
-0.000198839
0.000510585
-0.000189719
-4.45753e-05
0.000578288
-0.000150409
0.000446365
-6.38488e-05
0.000106728
0.000683075
-0.000143296
0.000340341
0.00106401
-0.000313496
0.000559478
0.00126436
-0.000309005
0.000689516
0.00135772
-0.000208409
0.000746419
0.00141231
-0.000110435
0.000751398
0.00144576
-3.31114e-05
0.000734164
0.00146363
1.85665e-05
0.000689355
0.00145954
7.27718e-05
0.000631472
0.00143805
0.000109235
0.000559805
0.00139037
0.000143299
0.0004743
0.00132077
0.00017024
0.000379477
0.00122618
0.000188202
0.000283924
0.0011159
0.000189795
0.000193414
0.00100132
0.000183052
0.000100731
0.000893862
0.000176939
3.41683e-06
0.000803107
0.000179424
-0.000101958
0.000726152
0.000178924
-0.000208845
0.000677326
0.000162055
-0.000298607
0.000629218
0.000148453
-0.000379856
0.000587313
0.000142326
-0.000449725
0.000547185
0.000139801
-0.000516676
0.000511505
0.000140212
-0.000573447
0.000464498
0.000145581
-0.000650369
0.000445187
0.00016267
-0.0007391
0.00039365
0.000184458
-0.000833634
0.000364921
0.000205098
-0.000965036
0.000336305
0.000228994
-0.00109509
0.000302791
0.000240631
-0.00123133
0.000304856
0.00024268
-0.00138151
0.000320063
0.000238466
-0.00149614
0.000300676
0.000215676
-0.00157253
0.000257532
0.00019054
-0.00157313
0.000197634
0.000131314
-0.00147163
0.000142063
4.41927e-05
-0.0012406
0.000113585
-6.70853e-05
-0.000904055
0.000153761
-0.00017785
-0.000520769
0.000277549
-0.000258424
-0.0002265
0.00043796
-0.000221643
-5.02073e-05
0.000547944
-0.000145947
0.000463412
-6.72545e-05
0.000107161
0.000700592
-0.000124678
0.000353983
0.0011142
-0.000297019
0.000593155
0.00132637
-0.000301186
0.000740883
0.00141248
-0.000202489
0.000803921
0.00144705
-9.77731e-05
0.000805449
0.00145658
-1.23506e-05
0.000781632
0.00144455
4.28968e-05
0.000735745
0.0014191
8.63325e-05
0.000675151
0.00137802
0.000120619
0.000597022
0.00131209
0.000156402
0.000507146
0.00123323
0.000177414
0.00040555
0.00113467
0.000193102
0.00029644
0.00102991
0.000195092
0.000196373
0.000919931
0.000181461
9.90301e-05
0.000820523
0.000170683
6.26123e-06
0.000726473
0.000169403
-9.13721e-05
0.000663855
0.000159931
-0.000174656
0.000613335
0.000147276
-0.000248315
0.000565586
0.000137291
-0.000318465
0.000519264
0.000138199
-0.000381357
0.000474583
0.000135494
-0.000436876
0.000435582
0.000131443
-0.000490586
0.000381216
0.000136992
-0.000544635
0.00035556
0.000143675
-0.00062452
0.000311793
0.000161742
-0.000711887
0.000269253
0.000183035
-0.000820182
0.000236302
0.000208298
-0.000947339
0.000201623
0.000228324
-0.00108181
0.00019947
0.000239857
-0.001233
0.000217045
0.000254211
-0.00137443
0.000184433
0.00025767
-0.0014871
0.000136283
0.000233916
-0.00153787
6.47152e-05
0.000183692
-0.00149076
-9.92682e-06
0.000104875
-0.00131426
-6.3472e-05
5.64538e-07
-0.00100839
-4.40432e-05
-0.000108068
-0.000600439
8.13779e-05
-0.000211781
-0.000246578
0.000332191
-0.000248092
-5.86718e-05
0.000499951
-0.000139913
0.000471997
-6.72562e-05
0.000115633
0.000665825
-8.08661e-05
0.000372369
0.00112071
-0.000263245
0.000622058
0.00135134
-0.000274657
0.000783227
0.00143275
-0.000181444
0.000853829
0.00145171
-7.52616e-05
0.000853395
0.00143774
1.927e-05
0.000826209
0.00140533
6.64072e-05
0.000778307
0.00136066
0.000106342
0.000711972
0.00131061
0.000133745
0.000625715
0.00124309
0.000155261
0.000522101
0.00115887
0.000177974
0.000413946
0.00105047
0.000192362
0.000318507
0.000935809
0.000189544
0.000233189
0.000826463
0.000178786
0.000141446
0.000739768
0.000172498
3.35178e-05
0.000667495
0.000166906
-6.02188e-05
0.00060839
0.000149202
-0.0001354
0.000555264
0.000133251
-0.000199001
0.000502137
0.00012705
-0.000257612
0.000451259
0.000126617
-0.000313875
0.000403206
0.00012764
-0.000361646
0.000360098
0.000123255
-0.000416468
0.000310081
0.000125956
-0.000456002
0.000272122
0.000122973
-0.000515177
0.000237472
0.000133496
-0.000592835
0.000186129
0.000160781
-0.000687062
0.000139825
0.000190705
-0.000807249
0.000103996
0.000217813
-0.000929365
7.34695e-05
0.000248116
-0.00106415
8.11395e-05
0.000270687
-0.00121781
5.85413e-05
0.000279561
-0.00135804
1.27908e-05
0.000263722
-0.00145553
-6.3495e-05
0.000225693
-0.0014637
-0.000159996
0.000158241
-0.00134721
-0.000243094
6.31377e-05
-0.0010862
-0.000258064
-4.69925e-05
-0.000705359
-0.000151225
-0.00014824
-0.000295004
0.000131555
-0.00020972
-6.47357e-05
0.000427532
-0.000157851
0.000471785
-6.45228e-05
0.000106333
0.00060908
-4.95883e-05
0.000363815
0.00110759
-0.000244355
0.000629506
0.00135102
-0.000265374
0.00081126
0.00143089
-0.000179896
0.000887106
0.00143568
-5.98221e-05
0.000887067
0.00140616
3.16189e-05
0.000850421
0.00135365
8.83267e-05
0.000785316
0.00130403
0.000121727
0.000708715
0.00123828
0.000148931
0.000635016
0.00114784
0.000168952
0.000558757
0.0010524
0.000182735
0.000472175
0.000950851
0.000186197
0.000373244
0.000858201
0.000176538
0.000269462
0.000765906
0.000164339
0.000167587
0.000682611
0.000159034
6.44797e-05
0.00061013
0.000160472
-2.08569e-05
0.000550668
0.000143059
-8.69956e-05
0.000492448
0.000128956
-0.000143938
0.000441701
0.000117378
-0.000198089
0.000389571
0.000115839
-0.000248484
0.000338713
0.000114889
-0.000293945
0.000294543
0.000111016
-0.000344458
0.000247684
0.000112909
-0.000382684
0.000203735
0.000106612
-0.000427749
0.000170535
0.000112002
-0.000497309
0.000114914
0.000140774
-0.000578513
5.54289e-05
0.000165599
-0.000673774
8.66498e-06
0.000190592
-0.000792134
-3.55661e-05
0.000227395
-0.000918834
-5.9682e-05
0.000267522
-0.00106969
-7.78084e-05
0.00028721
-0.00121136
-0.000140419
0.00029488
-0.00132866
-0.000214701
0.000268506
-0.00138595
-0.000314713
0.000212002
-0.00133128
-0.000427481
0.000129719
-0.00112799
-0.000493644
3.22901e-05
-0.000770218
-0.000424212
-8.47838e-05
-0.000361202
-0.000120497
-0.000156964
-6.55156e-05
0.000299148
-0.000167303
0.000457987
-5.17173e-05
0.000126608
0.000473054
9.41798e-06
0.000375998
0.00104324
-0.000185049
0.0006465
0.00130778
-0.00022726
0.000834122
0.00139352
-0.000150253
0.000914226
0.00138956
-3.39808e-05
0.000913687
0.00134917
5.75289e-05
0.000879995
0.0012772
0.000110142
0.000835632
0.0012048
0.000143601
0.000784867
0.00112809
0.000160955
0.000710337
0.00104939
0.000172978
0.000610896
0.000971807
0.000180031
0.000496215
0.000884125
0.000181406
0.000385716
0.000797078
0.000171622
0.000288587
0.00070717
0.000155865
0.000200912
0.000630701
0.000139585
0.000115649
0.000556578
0.000138816
3.24869e-05
0.000493878
0.000139953
-3.69637e-05
0.000435876
0.000126022
-9.18733e-05
0.00038373
0.000112881
-0.000142371
0.000332893
0.000107177
-0.000189813
0.000282623
0.000103532
-0.000233131
0.000239175
9.86846e-05
-0.000278966
0.000194943
9.85761e-05
-0.000320356
0.000150248
9.48764e-05
-0.000358424
0.000111969
9.66324e-05
-0.000414347
5.08002e-05
0.000120037
-0.000487684
-3.92334e-06
0.00013269
-0.000567595
-6.16126e-05
0.000150188
-0.000664868
-0.000119182
0.00018089
-0.000776572
-0.000169962
0.000221983
-0.000903058
-0.000223323
0.000272
-0.00105119
-0.000287877
0.000295586
-0.00121794
-0.000342671
0.000294724
-0.00130804
-0.000494559
0.000269945
-0.00129997
-0.000654575
0.000219029
-0.00115645
-0.000768943
0.000131775
-0.000835642
-0.000765174
2.01523e-05
-0.000419952
-0.000443126
-9.30605e-05
-7.44911e-05
8.27281e-05
-0.000129042
0.000415113
-3.16187e-05
0.000122641
0.0003463
4.11288e-06
0.000341776
0.000989048
-0.000164938
0.000622238
0.00125116
-0.000223836
0.000825491
0.00133942
-0.000149152
0.000924415
0.00132289
-3.22529e-05
0.000951841
0.00126306
5.86924e-05
0.00092307
0.00118287
0.000123102
0.000869829
0.00111534
0.0001427
0.000789278
0.00104817
0.000160476
0.000699187
0.000970764
0.000168716
0.000607772
0.000889331
0.000173892
0.000513326
0.000807006
0.000171565
0.000417137
0.000726318
0.000166949
0.000324549
0.000649776
0.000149982
0.00024358
0.000580042
0.000131629
0.000168103
0.00051306
0.000118995
9.17579e-05
0.000450662
0.000119561
1.73634e-05
0.000387333
0.000122938
-4.02224e-05
0.000330572
0.000110744
-9.0829e-05
0.000284624
9.88749e-05
-0.000139367
0.000235532
9.56286e-05
-0.000179642
0.000191336
8.81137e-05
-0.000222197
0.000149946
8.75517e-05
-0.000261742
0.000106224
8.3569e-05
-0.000298824
6.08974e-05
8.81527e-05
-0.000354298
4.59462e-06
0.000101679
-0.000413589
-5.17345e-05
0.000107102
-0.000482798
-0.000111168
0.000118764
-0.000570951
-0.000171313
0.000140283
-0.000676845
-0.000238339
0.000174272
-0.000791614
-0.000323137
0.000214583
-0.00090949
-0.000435624
0.000265623
-0.00101464
-0.000537898
0.000300382
-0.00113415
-0.000678031
0.000302977
-0.00121349
-0.000836401
0.000261171
-0.00115281
-0.00101531
0.000185687
-0.00093244
-0.00107151
8.59629e-05
-0.000501148
-0.000852691
-2.1728e-05
-0.00011166
-0.000240826
-6.59347e-05
0.000291255
1.2197e-05
9.47159e-05
0.000238535
1.30485e-05
0.000339834
0.000888571
-0.000144642
0.000615483
0.00117436
-0.000198854
0.000828418
0.00127239
-0.000145906
0.00093164
0.00125667
-3.70027e-05
0.00095439
0.00118959
5.07141e-05
0.000909347
0.00110866
0.000119254
0.000856309
0.00102667
0.0001417
0.000794376
0.000954911
0.000155191
0.000720915
0.000882859
0.000161366
0.000636981
0.00080976
0.000163505
0.000546332
0.000737307
0.000160347
0.000455171
0.000664503
0.000152976
0.00036651
0.000597495
0.000140942
0.000283155
0.000531661
0.000131736
0.000210954
0.000471914
0.000113348
0.000144533
0.000411042
0.000106042
7.70209e-05
0.000351765
0.000103081
9.09061e-06
0.000292924
0.000105578
-4.03333e-05
0.000238934
9.51144e-05
-9.08075e-05
0.000196258
8.97471e-05
-0.000132233
0.000151027
8.17334e-05
-0.000174878
0.000112808
7.9783e-05
-0.000211436
6.48039e-05
7.79776e-05
-0.000250117
1.55441e-05
8.40336e-05
-0.000300644
-3.47974e-05
8.99191e-05
-0.000351883
-9.14718e-05
9.09765e-05
-0.000414123
-0.000150132
0.000101204
-0.000485128
-0.000214432
0.000114123
-0.000567691
-0.000290898
0.000135122
-0.000677125
-0.000383393
0.00016969
-0.000825695
-0.000494429
0.000207375
-0.000969203
-0.000650811
0.00025642
-0.00107938
-0.000858114
0.000290255
-0.00112642
-0.00107358
0.000284219
-0.00109611
-0.0012902
0.000244581
-0.000914842
-0.00139836
0.000145583
-0.0005687
-0.00124855
4.97193e-05
-0.000143057
-0.000638961
-2.75076e-05
9.37991e-05
5.43994e-05
6.48254e-05
0.000182074
-8.36443e-06
0.00030628
0.000785177
-0.000138061
0.00057551
0.00109242
-0.000187293
0.000802248
0.00120026
-0.000154607
0.000922329
0.00118689
-5.03049e-05
0.00096041
0.00111429
3.72216e-05
0.000934526
0.00102805
0.000106494
0.000886545
0.000944162
0.000130493
0.000823987