/*--------------------------------*- C++ -*----------------------------------*\
| =========                 |                                                 |
| \\      /  F ield         | OpenFOAM: The Open Source CFD Toolbox           |
|  \\    /   O peration     | Version:  v1806                                 |
|   \\  /    A nd           | Web:      www.OpenFOAM.com                      |
|    \\/     M anipulation  |                                                 |
\*---------------------------------------------------------------------------*/
FoamFile
{
    version     2.0;
    format      ascii;
    class       volVectorField;
    location    "0.0305";
    object      U;
}
// * * * * * * * * * * * * * * * * * * * * * * * * * * * * * * * * * * * * * //

dimensions      [0 1 -1 0 0 0 0];


internalField   nonuniform List<vector> 
64000
(
(-0.0050613 -0.00677548 -0.00208787)
(0.0132026 -0.00787226 -0.00083129)
(0.026883 -0.00492797 0.00212307)
(0.0337167 -0.00456439 0.0024837)
(0.0277246 -0.00337284 0.00311942)
(0.0215714 -0.00230471 0.00456954)
(0.020581 -0.00300702 0.00435273)
(0.016282 -0.00325777 0.00426333)
(0.0137359 -0.00430233 0.0053705)
(0.00795675 -0.00413646 0.00482265)
(-0.000573165 -0.00752179 0.0058306)
(-0.018028 -0.0103289 0.00700353)
(-0.040607 -0.0142847 0.00645967)
(-0.0685416 -0.0164113 0.00456831)
(-0.103677 -0.0144785 0.00522717)
(-0.139453 -0.00604083 0.00398865)
(-0.180613 0.00505391 0.00358142)
(-0.216342 -0.000174351 0.00451345)
(-0.250684 -0.00997232 0.00476986)
(-0.271801 -0.0220542 -0.00897067)
(-0.281835 -0.0355602 -0.038931)
(-0.158735 -0.0239879 -0.0363274)
(-0.0826148 -0.021296 -0.0353941)
(-0.097696 -0.00643384 -0.0366681)
(-0.0819356 -0.00148008 -0.0500242)
(-0.0876464 0.009183 -0.0574644)
(-0.0673037 0.0181944 -0.0637728)
(-0.0432699 0.0304736 -0.058285)
(-0.00971475 0.039629 -0.0487953)
(0.0340986 0.0540883 -0.0299982)
(0.0803548 0.0418118 -0.0308131)
(0.113282 0.0347658 -0.0211178)
(0.127156 0.0237864 -0.00904559)
(0.122896 0.00999842 -0.00228883)
(0.105793 0.00196536 0.00338774)
(0.082624 -0.00551993 0.0054613)
(0.0587056 -0.00834731 0.00788358)
(0.0363484 -0.00675474 0.00879853)
(0.0183071 -0.00513229 0.00887814)
(0.00370987 -0.00377762 0.00734666)
(-0.00347994 -0.00711162 -0.000306351)
(0.01322 -0.0179692 -0.000447746)
(0.0359417 -0.0152705 0.000687306)
(0.0489635 -0.011507 0.000339135)
(0.0474399 -0.00615586 0.000738914)
(0.0406061 -0.00188818 -0.000128351)
(0.0375938 0.00200121 -0.001988)
(0.0296357 0.00460944 -0.00175554)
(0.0212755 0.00851074 -0.00686825)
(0.00323868 0.0171721 -0.00381491)
(-0.0227178 0.0250091 -0.00740393)
(-0.0606276 0.03591 0.000282975)
(-0.108031 0.0497131 -0.00336715)
(-0.161182 0.0710238 -0.00576513)
(-0.22171 0.0795341 -0.00885425)
(-0.288154 0.086709 -0.0197147)
(-0.384903 0.0917446 -0.041258)
(-0.481146 0.0966668 -0.0556395)
(-0.557837 0.0998744 -0.0735488)
(-0.612148 0.104736 -0.0955575)
(-0.617333 0.110194 -0.117416)
(-0.476588 0.140434 -0.127162)
(-0.386184 0.167435 -0.147935)
(-0.383135 0.206628 -0.15211)
(-0.344856 0.228494 -0.1628)
(-0.314652 0.253251 -0.168593)
(-0.254454 0.271046 -0.170643)
(-0.188371 0.287021 -0.161088)
(-0.10872 0.296068 -0.138912)
(-0.0433749 0.301729 -0.113774)
(0.0225641 0.285257 -0.0745712)
(0.0915332 0.254781 -0.0488718)
(0.124117 0.201736 -0.0385707)
(0.136953 0.155195 -0.0276254)
(0.129359 0.106837 -0.0136734)
(0.106991 0.0672041 -0.00587946)
(0.0843603 0.0396609 -0.00120919)
(0.0586327 0.0247628 0.000224658)
(0.0338132 0.0149425 0.00204759)
(0.00977774 0.00556113 0.00407497)
(-0.000113341 -0.0164924 0.00189054)
(0.0177075 -0.0270775 -0.000597864)
(0.0429165 -0.0221142 -0.000941315)
(0.0575214 -0.0109169 0.000144088)
(0.0537491 -7.22177e-05 -0.00243948)
(0.0441554 0.016634 -0.00339132)
(0.0354397 0.0293979 -0.00505909)
(0.0195187 0.0453446 -0.00771549)
(0.00503222 0.0711701 -0.000666201)
(-0.0221417 0.0968453 -0.00449084)
(-0.062018 0.125882 -0.0082957)
(-0.115487 0.156273 -0.0123771)
(-0.176822 0.182794 -0.0171543)
(-0.2652 0.203115 -0.0300393)
(-0.371449 0.221594 -0.0326439)
(-0.466529 0.23397 -0.0438058)
(-0.560961 0.243367 -0.0571333)
(-0.641534 0.268631 -0.0716961)
(-0.709396 0.295757 -0.0887278)
(-0.750863 0.330027 -0.108258)
(-0.740345 0.361906 -0.121833)
(-0.577053 0.39407 -0.120588)
(-0.462553 0.438013 -0.132602)
(-0.447268 0.480346 -0.124993)
(-0.402341 0.507989 -0.12557)
(-0.367899 0.530686 -0.12296)
(-0.308636 0.541242 -0.118944)
(-0.245558 0.541909 -0.107868)
(-0.175177 0.531708 -0.0877721)
(-0.109827 0.509034 -0.0645013)
(-0.0542711 0.487809 -0.0416829)
(-0.0158701 0.441568 -0.0271147)
(0.0197664 0.376445 -0.0113719)
(0.0479489 0.303936 -0.00659873)
(0.052749 0.22994 -0.00986977)
(0.0536234 0.165306 -0.00942854)
(0.0505835 0.113966 -0.00671686)
(0.0409327 0.0758722 -0.00405999)
(0.027778 0.0489092 -0.000354634)
(0.00928074 0.020195 0.00332676)
(0.000223373 -0.0234984 0.00147842)
(0.0202457 -0.0319866 -0.00288148)
(0.0490051 -0.0200971 -0.00196134)
(0.061265 -2.70834e-05 -0.00364284)
(0.0586999 0.0235401 -0.00540614)
(0.0444697 0.0593369 -0.00676553)
(0.0265751 0.0962332 -0.00607009)
(0.011708 0.132767 -0.00341536)
(-0.013086 0.174048 -0.00855459)
(-0.0593267 0.204527 -0.0111992)
(-0.115305 0.23292 -0.0153103)
(-0.191041 0.25707 -0.0218692)
(-0.281219 0.286706 -0.0254275)
(-0.368176 0.302772 -0.0268368)
(-0.453225 0.333504 -0.0300758)
(-0.536053 0.364959 -0.039963)
(-0.617044 0.397525 -0.0490097)
(-0.684397 0.432242 -0.0556496)
(-0.735255 0.465937 -0.0626025)
(-0.762282 0.507195 -0.0698154)
(-0.739271 0.537875 -0.0665346)
(-0.557621 0.561666 -0.0480406)
(-0.429178 0.592315 -0.0500448)
(-0.413602 0.61349 -0.0327171)
(-0.374452 0.621891 -0.0262847)
(-0.349247 0.623665 -0.0197539)
(-0.304342 0.61263 -0.0162886)
(-0.258341 0.591567 -0.0112309)
(-0.20611 0.5646 -0.000828358)
(-0.157878 0.528834 0.00665533)
(-0.11993 0.48905 0.0121294)
(-0.0922715 0.445514 0.0133603)
(-0.0754489 0.402262 0.00918373)
(-0.0542663 0.344833 0.00287041)
(-0.0340559 0.279234 -0.00190435)
(-0.0168923 0.206869 -0.00732617)
(-0.000264653 0.144146 -0.00884607)
(0.0108448 0.107037 -0.0065468)
(0.0169217 0.0725263 -0.00247061)
(0.00774985 0.0291576 0.0027265)
(0.0016181 -0.0266974 0.000791921)
(0.0259057 -0.027295 -0.00412643)
(0.0583653 -0.00758806 -0.00134438)
(0.072132 0.0221768 -0.00375375)
(0.0720699 0.060219 -0.00388703)
(0.0612101 0.111396 -0.014778)
(0.0343035 0.167593 -0.0103604)
(-0.000315964 0.212916 -0.00407974)
(-0.0458152 0.247814 -0.00651719)
(-0.109644 0.27902 -0.00926069)
(-0.175091 0.309787 -0.0127078)
(-0.238361 0.337485 -0.0150742)
(-0.309274 0.374054 -0.0199864)
(-0.38754 0.411726 -0.018822)
(-0.461158 0.45087 -0.0182891)
(-0.53033 0.487706 -0.0200143)
(-0.593113 0.52248 -0.0182905)
(-0.642267 0.559001 -0.0140437)
(-0.675006 0.594365 -0.0100945)
(-0.690749 0.634068 -0.0157619)
(-0.666792 0.661097 -0.00995151)
(-0.482028 0.674021 0.0148032)
(-0.353042 0.679592 0.0166998)
(-0.343575 0.671879 0.0358553)
(-0.317311 0.650406 0.0387427)
(-0.310907 0.62642 0.0449787)
(-0.288598 0.592591 0.0468037)
(-0.261639 0.554124 0.0479959)
(-0.231186 0.512943 0.0431305)
(-0.205085 0.470465 0.0359518)
(-0.181196 0.425828 0.0267059)
(-0.162756 0.383065 0.019019)
(-0.146821 0.34664 0.01337)
(-0.134917 0.310194 0.00398931)
(-0.130441 0.267426 -0.00693697)
(-0.108506 0.202642 -0.0105194)
(-0.0572637 0.151826 -0.0101731)
(-0.0159893 0.122555 -0.0093702)
(0.00292592 0.088561 -0.00379326)
(0.00507478 0.0349018 0.0029723)
(0.00465962 -0.0293341 0.000863254)
(0.0333086 -0.02156 -0.00434972)
(0.0683245 0.00816611 -0.00496794)
(0.0834483 0.0491139 -0.00590571)
(0.087405 0.0959256 -0.00638443)
(0.0747259 0.157817 -0.0141113)
(0.0328381 0.198226 -0.00223564)
(-0.0208205 0.247866 0.000726758)
(-0.0730247 0.287434 -0.0030821)
(-0.129619 0.332592 -0.00629039)
(-0.186262 0.377882 -0.00848311)
(-0.244417 0.421029 -0.00866607)
(-0.303992 0.458189 -0.00687675)
(-0.360928 0.494023 -0.00137288)
(-0.41544 0.530219 0.00176696)
(-0.468977 0.56618 0.00424408)
(-0.51683 0.602796 0.00629763)
(-0.551845 0.644832 0.0111158)
(-0.574246 0.681097 0.0130824)
(-0.585291 0.7144 0.0107354)
(-0.562301 0.735692 0.0194446)
(-0.389692 0.7177 0.0446253)
(-0.275921 0.667442 0.0471116)
(-0.285096 0.63192 0.0656793)
(-0.277715 0.583576 0.0715688)
(-0.287711 0.54233 0.0738828)
(-0.284539 0.497851 0.070784)
(-0.277844 0.453877 0.0670407)
(-0.263264 0.407143 0.0633606)
(-0.251004 0.366697 0.0483506)
(-0.242274 0.326808 0.0368088)
(-0.228302 0.292328 0.0232703)
(-0.216561 0.264174 0.0108811)
(-0.200754 0.237152 0.00512882)
(-0.196877 0.21422 -0.00714815)
(-0.168565 0.18584 -0.0121186)
(-0.0935895 0.154106 -0.0123858)
(-0.035913 0.128372 -0.0107368)
(-0.00353475 0.0958794 -0.0057882)
(0.00425204 0.0367173 0.00291427)
(0.00586866 -0.0254525 -0.000846157)
(0.0417546 -0.00576636 -0.00651913)
(0.0850484 0.030242 -0.00979757)
(0.100905 0.0790383 -0.0071363)
(0.107432 0.133943 -0.00954868)
(0.0763541 0.190438 -0.00837554)
(0.0255945 0.226201 0.00413218)
(-0.016176 0.278849 0.00127565)
(-0.0648011 0.334518 -0.000608594)
(-0.113265 0.387633 -0.00261502)
(-0.162653 0.437892 -0.00278453)
(-0.208995 0.481676 -0.00095224)
(-0.256844 0.519347 0.00142827)
(-0.302879 0.55592 0.0093765)
(-0.342336 0.587275 0.0112431)
(-0.378179 0.616682 0.0182495)
(-0.404241 0.644945 0.0251513)
(-0.42699 0.677245 0.0259229)
(-0.448886 0.704078 0.0270894)
(-0.460927 0.722419 0.0233508)
(-0.470713 0.731341 0.0270332)
(-0.359475 0.697886 0.0490677)
(-0.25461 0.599875 0.0479253)
(-0.254813 0.541914 0.059599)
(-0.261176 0.489035 0.0632535)
(-0.282511 0.44798 0.0638996)
(-0.296008 0.408363 0.0606225)
(-0.305083 0.370767 0.056247)
(-0.303256 0.332083 0.0473381)
(-0.300446 0.29758 0.0363188)
(-0.296775 0.264666 0.0225336)
(-0.285974 0.238186 0.0126423)
(-0.274106 0.217842 0.00187459)
(-0.258091 0.207093 -0.00305741)
(-0.244725 0.195561 -0.0101019)
(-0.21123 0.189574 -0.0189171)
(-0.130571 0.163646 -0.0188415)
(-0.054433 0.139897 -0.0153146)
(-0.00941939 0.105137 -0.0079843)
(0.00483424 0.040536 0.0019135)
(0.00781099 -0.0191279 0.000268463)
(0.0465862 0.0184527 -0.0141048)
(0.0963094 0.0626471 -0.0146067)
(0.119904 0.115583 -0.0103053)
(0.121223 0.172488 -0.0130201)
(0.0819442 0.215038 -0.00444846)
(0.0333944 0.268223 0.0019922)
(0.00447503 0.320644 0.00454619)
(-0.0341597 0.373306 0.00249549)
(-0.0765673 0.427257 0.00332403)
(-0.117083 0.47151 0.00526774)
(-0.15769 0.507334 0.0103375)
(-0.191729 0.538585 0.0172029)
(-0.222118 0.566481 0.0208438)
(-0.252077 0.587508 0.0253357)
(-0.279649 0.602863 0.0291154)
(-0.300339 0.613638 0.0328813)
(-0.318627 0.622835 0.0311196)
(-0.344707 0.62918 0.0264915)
(-0.368326 0.625906 0.0215035)
(-0.396809 0.617574 0.0200745)
(-0.34518 0.606068 0.0337658)
(-0.271754 0.515419 0.0334223)
(-0.258925 0.449789 0.037132)
(-0.265894 0.39986 0.0403947)
(-0.29357 0.366113 0.0424823)
(-0.316039 0.336015 0.0427892)
(-0.33476 0.304574 0.0410073)
(-0.340716 0.272783 0.0349387)
(-0.344519 0.24068 0.0171428)
(-0.34649 0.209242 0.0125969)
(-0.335538 0.183773 0.00230898)
(-0.3199 0.169153 -0.00319585)
(-0.299719 0.16507 -0.00793195)
(-0.284226 0.172204 -0.0138818)
(-0.250342 0.185766 -0.0201809)
(-0.162751 0.17111 -0.0219995)
(-0.0724422 0.1485 -0.0175732)
(-0.0138139 0.113814 -0.0096)
(0.00561233 0.0433018 0.00180554)
(0.00986614 -0.00534965 -0.002998)
(0.0565594 0.0484617 -0.0212065)
(0.115095 0.102485 -0.0215049)
(0.141284 0.15563 -0.0135954)
(0.133655 0.202722 -0.0133275)
(0.0982859 0.246468 -0.00659816)
(0.0627407 0.305007 0.000964209)
(0.0330068 0.359858 0.00632553)
(0.00598949 0.402389 0.011898)
(-0.0263282 0.442697 0.0121551)
(-0.0658734 0.477938 0.0156501)
(-0.0946576 0.505445 0.0221393)
(-0.119753 0.525862 0.0276423)
(-0.146118 0.535721 0.030291)
(-0.17093 0.537653 0.0317963)
(-0.195151 0.532182 0.0319497)
(-0.213691 0.522476 0.0312178)
(-0.235886 0.51653 0.0247942)
(-0.273022 0.504148 0.0184014)
(-0.307837 0.498752 0.0137752)
(-0.338944 0.495573 0.0124941)
(-0.330952 0.506111 0.0188103)
(-0.302347 0.453331 0.0199003)
(-0.286818 0.392427 0.0185483)
(-0.286183 0.336547 0.0183479)
(-0.3094 0.309426 0.0225675)
(-0.338256 0.285272 0.0260166)
(-0.364156 0.257883 0.0294151)
(-0.377228 0.229584 0.0215278)
(-0.387762 0.193979 0.0105541)
(-0.391195 0.167645 0.000865486)
(-0.378617 0.145953 -0.00399239)
(-0.359717 0.131237 -0.011194)
(-0.331924 0.133511 -0.0160441)
(-0.300041 0.140854 -0.0176304)
(-0.271447 0.17138 -0.0235063)
(-0.194358 0.173028 -0.0248692)
(-0.0909054 0.158094 -0.0227256)
(-0.018734 0.123452 -0.0119522)
(0.00588717 0.0487064 0.000561833)
(0.00769472 0.0141197 -0.00902168)
(0.0599421 0.0898712 -0.0296759)
(0.128846 0.147929 -0.0286904)
(0.153924 0.193352 -0.0169652)
(0.149394 0.234656 -0.017409)
(0.126995 0.280268 -0.00786089)
(0.1007 0.334893 -0.00267746)
(0.0731312 0.381491 0.0120582)
(0.0418538 0.419876 0.0191227)
(0.0181356 0.446129 0.0258708)
(-0.00658582 0.466816 0.0267803)
(-0.0338028 0.479768 0.0333831)
(-0.0578421 0.48403 0.0381166)
(-0.0818308 0.477204 0.03804)
(-0.108184 0.461806 0.0352169)
(-0.135922 0.438489 0.0302301)
(-0.155266 0.413094 0.0248835)
(-0.183078 0.395921 0.0129895)
(-0.221483 0.37399 0.00837811)
(-0.253048 0.383628 0.00619743)
(-0.285369 0.406302 0.00845686)
(-0.305066 0.430139 0.0117516)
(-0.322892 0.414276 0.0113162)
(-0.32997 0.368039 0.00919253)
(-0.316365 0.304258 0.00613238)
(-0.322157 0.269773 0.0102556)
(-0.351794 0.246804 0.0168005)
(-0.381202 0.222688 0.0208465)
(-0.402807 0.192389 0.0186163)
(-0.414349 0.16062 0.00779149)
(-0.416274 0.131133 0.0122434)
(-0.411519 0.109229 0.016941)
(-0.391521 0.0914329 0.0163117)
(-0.366231 0.0904664 0.00879495)
(-0.329826 0.105346 -0.0111821)
(-0.289949 0.135645 -0.0219806)
(-0.214654 0.16899 -0.0238235)
(-0.107254 0.158364 -0.0215651)
(-0.0239839 0.131329 -0.0124933)
(0.00681032 0.0519278 0.000971829)
(0.00908105 0.0305478 -0.0112896)
(0.0666695 0.130622 -0.0352338)
(0.138705 0.191338 -0.0329806)
(0.168739 0.230672 -0.0201999)
(0.171654 0.271074 -0.0158962)
(0.159868 0.311258 -0.0104023)
(0.139565 0.355967 -0.00116717)
(0.112671 0.391165 0.00737124)
(0.0881207 0.420284 0.0149517)
(0.0624178 0.440793 0.0308672)
(0.0353672 0.44827 0.0377768)
(0.0167337 0.447371 0.0459209)
(-0.00428955 0.433793 0.0471764)
(-0.0325847 0.411417 0.0432774)
(-0.0638907 0.387333 0.0350301)
(-0.0968398 0.35388 0.0252615)
(-0.117603 0.328747 0.0159006)
(-0.150988 0.298427 -1.24437e-05)
(-0.1796 0.28984 0.00156242)
(-0.189649 0.31422 0.00417865)
(-0.224598 0.348616 0.00714184)
(-0.270635 0.375817 0.0101534)
(-0.322809 0.37887 0.00841466)
(-0.360663 0.352552 0.00540468)
(-0.351128 0.303158 0.00278147)
(-0.333967 0.239413 0.00289434)
(-0.353181 0.216034 0.00740714)
(-0.387847 0.18817 0.0121942)
(-0.413417 0.162103 0.00845744)
(-0.432474 0.127971 0.0274235)
(-0.442267 0.0925826 0.0302965)
(-0.441043 0.0619666 0.0211561)
(-0.427811 0.0494992 0.0131967)
(-0.393437 0.0452115 0.0095421)
(-0.347502 0.0615704 0.00160408)
(-0.297788 0.0909005 -0.0162229)
(-0.229536 0.142697 -0.0269154)
(-0.126209 0.156477 -0.0222211)
(-0.0272414 0.134991 -0.0145776)
(0.00506344 0.0563876 0.000314886)
(0.00780881 0.0518898 -0.0131053)
(0.067301 0.17288 -0.0398191)
(0.144949 0.235754 -0.0378243)
(0.183192 0.271829 -0.0223151)
(0.196004 0.305264 -0.013056)
(0.190977 0.337722 -0.00634811)
(0.175293 0.369525 -0.00474452)
(0.151019 0.393216 0.00925526)
(0.126853 0.411527 0.0143243)
(0.104856 0.421602 0.0258705)
(0.0824194 0.423955 0.0346591)
(0.0559133 0.414279 0.0516892)
(0.0285448 0.390023 0.0530676)
(0.00582112 0.356655 0.0486424)
(-0.0295255 0.3244 0.0315125)
(-0.0653817 0.29347 0.0190279)
(-0.0960128 0.271093 0.00345237)
(-0.124616 0.240925 -0.00605383)
(-0.126582 0.257681 -0.00105776)
(-0.130684 0.274832 0.00228917)
(-0.170699 0.293803 0.00788534)
(-0.227843 0.316168 0.0122416)
(-0.300321 0.332665 0.0096749)
(-0.356958 0.321238 0.00608064)
(-0.377109 0.292559 0.00253603)
(-0.35262 0.226026 0.00310147)
(-0.343355 0.174573 0.00489504)
(-0.375328 0.151383 0.00615001)
(-0.406907 0.122371 0.024851)
(-0.438011 0.0884326 0.0354652)
(-0.454923 0.0539943 0.0410245)
(-0.453596 0.0272489 0.053738)
(-0.442123 0.00269835 0.0451177)
(-0.425692 -0.00383072 0.0332146)
(-0.386499 0.0081682 0.0238914)
(-0.321708 0.0478473 0.00253132)
(-0.235583 0.0948972 -0.0231306)
(-0.134151 0.143942 -0.0234821)
(-0.0336753 0.132532 -0.0143621)
(0.00687774 0.0591677 -0.000521002)
(0.00649457 0.0655807 -0.0144493)
(0.0670637 0.208815 -0.0447223)
(0.149652 0.277464 -0.0434066)
(0.196723 0.309672 -0.0246505)
(0.218219 0.333703 -0.0103218)
(0.219268 0.354054 -0.00115936)
(0.205277 0.376586 0.00302625)
(0.182814 0.389574 0.00554268)
(0.164809 0.400889 0.012033)
(0.144599 0.40326 0.0248835)
(0.119073 0.396235 0.0319694)
(0.0924844 0.379608 0.0394914)
(0.060505 0.353533 0.0471895)
(0.0286684 0.320493 0.0444818)
(-0.00377835 0.279641 0.0275885)
(-0.0383401 0.254658 0.0101182)
(-0.0744015 0.232054 -0.00628242)
(-0.0846489 0.229377 -0.00652464)
(-0.0795649 0.242346 -0.00424606)
(-0.0947856 0.24019 0.00350262)
(-0.126774 0.239537 0.013806)
(-0.173608 0.247963 0.0195832)
(-0.254462 0.270259 0.0134565)
(-0.33039 0.276311 0.00909985)
(-0.369112 0.260059 0.00391042)
(-0.368488 0.225457 0.00388301)
(-0.338919 0.149707 0.00442112)
(-0.34946 0.115639 0.00922396)
(-0.388401 0.0825023 0.0228702)
(-0.422298 0.0467935 0.0337411)
(-0.442921 0.0158485 0.0570318)
(-0.462675 -0.024352 0.0435024)
(-0.47032 -0.0660287 0.0335758)
(-0.448106 -0.0880216 0.0183628)
(-0.404547 -0.0764735 0.00387504)
(-0.349131 -0.0271067 0.0122764)
(-0.258267 0.0486928 -0.00247272)
(-0.142081 0.110594 -0.0309659)
(-0.038435 0.126843 -0.0140048)
(0.00697801 0.0590606 -0.00222375)
(0.0050956 0.0794287 -0.014511)
(0.0666008 0.241386 -0.0478509)
(0.153027 0.314647 -0.0486522)
(0.2061 0.342796 -0.0287348)
(0.234443 0.35732 -0.00947099)
(0.242959 0.366047 0.00391483)
(0.233655 0.375761 0.00912773)
(0.214158 0.384569 0.0130314)
(0.197724 0.38976 0.014931)
(0.177057 0.385389 0.0181477)
(0.154311 0.372784 0.017996)
(0.123716 0.351316 0.029015)
(0.0884557 0.321076 0.0270877)
(0.0508428 0.29055 0.0303482)
(0.0158078 0.255475 0.0182583)
(-0.014563 0.233398 0.000149175)
(-0.0373633 0.224129 -0.00930918)
(-0.0423933 0.231368 -0.00770219)
(-0.0502118 0.226781 -0.00252666)
(-0.0683773 0.214499 0.00764042)
(-0.0943042 0.202696 0.0192101)
(-0.122677 0.195238 0.0270466)
(-0.189905 0.199482 0.0216372)
(-0.277012 0.224406 0.0117944)
(-0.329738 0.216678 0.00750332)
(-0.35689 0.205113 0.00626553)
(-0.340311 0.151826 0.00992561)
(-0.324306 0.0832697 0.0153951)
(-0.357451 0.0490729 0.0283937)
(-0.391105 0.010566 0.0459442)
(-0.428464 -0.0354427 0.0364002)
(-0.467048 -0.0916623 0.0319343)
(-0.480923 -0.137645 0.0219082)
(-0.46973 -0.17001 0.0106517)
(-0.426713 -0.173999 -0.00213346)
(-0.354842 -0.131756 -0.00781347)
(-0.267241 -0.0335932 0.000647149)
(-0.158394 0.0664583 -0.0158599)
(-0.0415164 0.115383 -0.0182736)
(0.00600116 0.0605557 -0.00256784)
(0.00220735 0.0772994 -0.0143133)
(0.0620255 0.257808 -0.048002)
(0.151883 0.336171 -0.0495464)
(0.212322 0.361811 -0.0291696)
(0.247484 0.368134 -0.0086201)
(0.259443 0.368147 0.00567386)
(0.257482 0.369587 0.0113682)
(0.243843 0.373933 0.0143897)
(0.228373 0.375607 0.0158219)
(0.208042 0.368491 0.016238)
(0.182044 0.353784 0.0144793)
(0.149802 0.325421 0.0124774)
(0.113724 0.295022 0.00825575)
(0.0742245 0.268161 0.0131009)
(0.0411419 0.255773 0.00394261)
(0.0203235 0.249303 -0.00610265)
(0.00228325 0.251856 -0.00710932)
(-0.0100411 0.252362 -0.00175223)
(-0.0253337 0.234182 0.00418383)
(-0.0440661 0.214041 0.0133784)
(-0.0653252 0.191715 0.0194038)
(-0.089608 0.172254 0.0247037)
(-0.130662 0.152283 0.028273)
(-0.211373 0.169949 0.0147707)
(-0.27855 0.170203 0.0106315)
(-0.314606 0.162496 0.0117312)
(-0.333587 0.140763 0.00995973)
(-0.31634 0.0762856 0.0168688)
(-0.318322 0.0148189 0.0230353)
(-0.362837 -0.0284809 0.0259293)
(-0.40805 -0.089611 0.0268863)
(-0.447664 -0.143556 0.0219239)
(-0.472955 -0.19916 0.013616)
(-0.473237 -0.242012 0.00139822)
(-0.438565 -0.260497 -0.0120667)
(-0.370284 -0.228827 -0.0185738)
(-0.271795 -0.142816 -0.0210951)
(-0.157336 1.47423e-05 7.81326e-06)
(-0.0463432 0.0842601 -0.0265061)
(0.00440796 0.0579226 -0.00534228)
(0.00262223 0.0950673 -0.00863354)
(0.0607904 0.282911 -0.0454945)
(0.14996 0.364341 -0.0482511)
(0.214873 0.386084 -0.0285124)
(0.256686 0.383816 -0.00560144)
(0.277972 0.377212 0.00591768)
(0.283275 0.371921 0.011139)
(0.274088 0.368956 0.0120391)
(0.259194 0.363171 0.00998912)
(0.237337 0.349357 0.00782634)
(0.207455 0.333664 0.00493199)
(0.17102 0.31912 0.00459915)
(0.1403 0.309946 0.00308025)
(0.116357 0.305196 0.00698877)
(0.0927544 0.305483 -0.00542679)
(0.0672381 0.296956 -0.00774317)
(0.0436406 0.288639 -0.00643097)
(0.0152137 0.275222 -0.00373367)
(-0.0111955 0.251778 0.00527979)
(-0.0286538 0.222914 0.0121284)
(-0.0484026 0.193627 0.0161618)
(-0.0692495 0.166215 0.0191781)
(-0.0937855 0.137402 0.0252233)
(-0.155163 0.128322 0.0186491)
(-0.226461 0.132363 0.0109782)
(-0.266969 0.121213 0.00406949)
(-0.297087 0.107742 -0.00119127)
(-0.309858 0.0758278 0.00366412)
(-0.308933 0.00776076 0.00539378)
(-0.332188 -0.0582098 0.0111564)
(-0.375068 -0.11909 0.015278)
(-0.416262 -0.185126 0.013112)
(-0.448944 -0.25055 0.00747558)
(-0.46105 -0.306653 -0.00329298)
(-0.436592 -0.340943 -0.0173912)
(-0.376168 -0.327782 -0.0324237)
(-0.276717 -0.246345 -0.0388743)
(-0.164411 -0.0915433 -0.0242189)
(-0.0485548 0.0453299 -0.0180787)
(0.00899394 0.0546988 -0.0102239)
(-0.0075866 0.0885379 -0.0208182)
(0.0436015 0.288016 -0.051357)
(0.13808 0.3782 -0.0545314)
(0.210071 0.401028 -0.0353882)
(0.262653 0.396234 -0.0104202)
(0.291697 0.382914 -0.00144707)
(0.302683 0.367914 0.00556364)
(0.295743 0.358335 0.0051541)
(0.278916 0.364092 0.00360835)
(0.26107 0.376149 0.00314964)
(0.246544 0.387913 0.00294312)
(0.228942 0.391105 0.00225673)
(0.204157 0.386237 0.00104626)
(0.16914 0.370442 0.00385805)
(0.124576 0.349092 -0.00706887)
(0.0875139 0.324853 -0.0100061)
(0.0595512 0.295388 -0.00901161)
(0.0318901 0.268211 -0.00464863)
(0.00385987 0.244669 0.00141174)
(-0.0169233 0.213209 0.00972713)
(-0.0331029 0.183632 0.0127932)
(-0.0539251 0.15578 0.0148822)
(-0.0734795 0.127342 0.0198675)
(-0.117579 0.104349 0.020139)
(-0.181631 0.0989537 0.0119414)
(-0.227737 0.0868211 0.00454142)
(-0.256918 0.0727232 -0.000154736)
(-0.281306 0.0556182 0.00181107)
(-0.30216 0.0139906 -0.000203853)
(-0.321544 -0.0519851 -0.00338445)
(-0.352551 -0.125434 0.00021348)
(-0.389891 -0.19177 0.00470403)
(-0.417691 -0.26855 0.00260156)
(-0.432907 -0.346595 -0.00604566)
(-0.419365 -0.402099 -0.0198693)
(-0.367017 -0.410835 -0.037526)
(-0.273225 -0.348847 -0.056969)
(-0.161546 -0.203115 -0.0451074)
(-0.0444654 -0.00693184 -0.0104378)
(0.00938359 0.0449083 -0.0111331)
(-0.00567927 0.181112 -0.0149766)
(0.0435098 0.384977 -0.0393411)
(0.132966 0.479687 -0.0455758)
(0.207394 0.501744 -0.0284859)
(0.26559 0.492707 -0.00953357)
(0.300653 0.47144 0.000335054)
(0.319505 0.448273 0.00705882)
(0.336226 0.454721 0.00917549)
(0.350224 0.476273 0.00466583)
(0.343857 0.489014 -0.000281175)
(0.314444 0.487522 -0.00554184)
(0.26781 0.465409 -0.00646488)
(0.219423 0.430473 -0.00521275)
(0.174937 0.384582 -0.00155479)
(0.136615 0.344727 0.000609822)
(0.0972842 0.312069 -0.0051696)
(0.0675371 0.283462 -0.0068278)
(0.0453724 0.248112 -0.0041143)
(0.0165214 0.221111 -0.0003478)
(-0.00503809 0.193341 0.00787823)
(-0.0198562 0.161612 0.0115873)
(-0.038614 0.135095 0.0132281)
(-0.0570553 0.109161 0.0163017)
(-0.0930848 0.084966 0.0173772)
(-0.149716 0.071613 0.00903224)
(-0.192595 0.0572335 0.000536604)
(-0.217943 0.0472047 0.00269989)
(-0.244719 0.0321426 0.00383011)
(-0.275894 0.00727971 0.00300739)
(-0.310388 -0.0338848 -9.00695e-05)
(-0.330519 -0.0992268 -0.00656513)
(-0.358786 -0.195942 -0.016419)
(-0.399968 -0.286356 -0.01609)
(-0.417049 -0.361719 -0.01794)
(-0.399024 -0.431002 -0.0295457)
(-0.355416 -0.467714 -0.0541385)
(-0.279374 -0.439892 -0.0744593)
(-0.163311 -0.288666 -0.0652491)
(-0.0371347 -0.0863443 -0.0335587)
(0.0102964 0.0377073 -0.00940824)
(-0.0205578 0.297873 -0.0295002)
(0.0180314 0.526506 -0.0469822)
(0.11192 0.631203 -0.0535373)
(0.191045 0.664572 -0.0372834)
(0.258883 0.657567 -0.022572)
(0.30171 0.634619 -0.0110986)
(0.351302 0.602603 -0.000792905)
(0.393519 0.593789 -0.00204308)
(0.387493 0.580831 -0.0051742)
(0.35333 0.550859 -0.00691704)
(0.311733 0.508696 -0.00676043)
(0.266811 0.462134 -0.00588264)
(0.219993 0.415709 -0.00428313)
(0.177019 0.369411 -0.000427827)
(0.140284 0.328204 0.0013867)
(0.109992 0.288912 0.00509295)
(0.0771266 0.260643 -0.001552)
(0.0507453 0.229728 -0.00291099)
(0.0308544 0.196668 0.000483534)
(0.00536473 0.171553 0.00462795)
(-0.0100964 0.14055 0.0113415)
(-0.0256024 0.113942 0.0122495)
(-0.0427685 0.0886334 0.0146629)
(-0.0729793 0.0656666 0.0155233)
(-0.124289 0.0475942 0.00713053)
(-0.161655 0.0354261 0.00531632)
(-0.183187 0.0253238 0.00548463)
(-0.210069 0.00891275 0.00686545)
(-0.239385 -0.00629984 0.00868618)
(-0.277558 -0.0288497 0.00574893)
(-0.336697 -0.0699244 0.00255266)
(-0.371458 -0.148322 0.00279671)
(-0.362168 -0.258322 -0.0131792)
(-0.365863 -0.396719 -0.0329104)
(-0.370296 -0.506642 -0.0532578)
(-0.34735 -0.582859 -0.077142)
(-0.262673 -0.575517 -0.0929905)
(-0.17344 -0.438003 -0.0992524)
(-0.0539505 -0.172054 -0.0564)
(0.0225385 0.0218673 -0.0162808)
(-0.00270066 0.285453 -0.00348015)
(0.0373798 0.531762 -0.0387852)
(0.116889 0.650719 -0.0486389)
(0.195758 0.699788 -0.0405648)
(0.262311 0.699397 -0.0289038)
(0.304545 0.676425 -0.0192351)
(0.34824 0.64386 -0.00909522)
(0.386473 0.601807 -0.00407055)
(0.38335 0.563321 -0.00302334)
(0.35264 0.52471 -0.00146758)
(0.312045 0.485121 -0.00104436)
(0.26589 0.441503 -0.000224008)
(0.219755 0.394546 0.00107965)
(0.179097 0.349168 0.00189539)
(0.144105 0.305686 0.00387437)
(0.11381 0.267832 0.00521854)
(0.0902001 0.23222 0.00895784)
(0.0621672 0.20511 0.00213427)
(0.0380791 0.176291 0.000931465)
(0.0171892 0.148582 0.00427319)
(-0.000763614 0.123656 0.00976328)
(-0.0152053 0.0947871 0.0113687)
(-0.0305162 0.0712643 0.0130773)
(-0.0585476 0.0479947 0.0144076)
(-0.101967 0.0281394 0.00534543)
(-0.13224 0.0190445 0.0079693)
(-0.154552 0.00465573 0.00876374)
(-0.175396 -0.0073041 0.0126566)
(-0.196463 -0.0192365 0.0128318)
(-0.234247 -0.0372472 0.0105159)
(-0.283735 -0.0618794 0.00847995)
(-0.347304 -0.0948945 0.00318259)
(-0.41684 -0.168477 0.000893413)
(-0.42278 -0.299352 -0.0025616)
(-0.377598 -0.439435 -0.0181312)
(-0.328092 -0.565214 -0.0353815)
(-0.246093 -0.627311 -0.0677202)
(-0.129531 -0.56159 -0.076329)
(-0.017112 -0.288724 -0.0748133)
(0.0196533 0.00244133 -0.00735583)
(0.00207008 0.288861 0.000616136)
(0.0403806 0.510662 -0.0313289)
(0.113256 0.631043 -0.0395711)
(0.190683 0.681306 -0.0342281)
(0.256559 0.681589 -0.0192859)
(0.30399 0.656323 -0.0119999)
(0.349299 0.623772 -0.00164588)
(0.387267 0.58072 0.00104193)
(0.386191 0.540018 0.00159673)
(0.353992 0.501582 0.00271207)
(0.311781 0.460623 0.00345257)
(0.263952 0.417203 0.00431929)
(0.217821 0.3699 0.00584517)
(0.178065 0.323857 0.00737444)
(0.146626 0.27955 0.00840112)
(0.121267 0.241092 0.00919038)
(0.0964405 0.206137 0.00973652)
(0.0748184 0.17421 0.0100114)
(0.0522562 0.150045 0.00964306)
(0.0282432 0.125297 0.00404645)
(0.00931853 0.104378 0.00879889)
(-0.00655703 0.0784865 0.0105134)
(-0.018922 0.0560533 0.0121199)
(-0.0449666 0.0300524 0.010308)
(-0.0800489 0.0155968 0.00838684)
(-0.108131 0.00369071 0.00934598)
(-0.126099 -0.00748623 0.0121286)
(-0.1408 -0.0176006 0.013381)
(-0.161791 -0.031553 0.0150091)
(-0.19144 -0.0504965 0.0151799)
(-0.23649 -0.0725182 0.013497)
(-0.287094 -0.105624 0.012559)
(-0.340216 -0.144495 0.00673162)
(-0.382534 -0.197917 -0.00119853)
(-0.390138 -0.29612 -0.010598)
(-0.374689 -0.422577 -0.020002)
(-0.303328 -0.523215 -0.0338492)
(-0.184824 -0.517277 -0.0574543)
(-0.0246457 -0.302532 -0.0571776)
(0.0450582 0.0502 -0.0274665)
(0.00584823 0.275293 0.00493738)
(0.0445139 0.483664 -0.024157)
(0.111972 0.60687 -0.0324254)
(0.186106 0.662429 -0.0298337)
(0.250747 0.669428 -0.013561)
(0.300064 0.645319 -0.00813154)
(0.343739 0.610094 0.0006776)
(0.377456 0.564005 0.00363787)
(0.379692 0.514383 0.00389622)
(0.350698 0.472483 0.00517082)
(0.308491 0.429845 0.00622173)
(0.259983 0.385709 0.00783781)
(0.214086 0.33974 0.0108521)
(0.177087 0.29626 0.0141594)
(0.148497 0.256256 0.0167305)
(0.12544 0.21971 0.0175801)
(0.105806 0.18569 0.0176218)
(0.0857683 0.1564 0.0164206)
(0.0659285 0.128067 0.0151932)
(0.0453328 0.107374 0.0146467)
(0.0236058 0.0853847 0.00839758)
(0.00573327 0.0638907 0.0102855)
(-0.0106337 0.0401296 0.0115557)
(-0.0303829 0.0181066 0.00996812)
(-0.058091 0.00212883 0.00857305)
(-0.081851 -0.00711951 0.010961)
(-0.0969303 -0.0161036 0.0110412)
(-0.112161 -0.0284346 0.0125689)
(-0.129206 -0.0438061 0.0142343)
(-0.155862 -0.0633412 0.0156807)
(-0.191783 -0.0877907 0.0172844)
(-0.234888 -0.118333 0.017316)
(-0.282669 -0.161292 0.0181202)
(-0.311548 -0.219759 0.0176953)
(-0.329373 -0.300191 0.0121084)
(-0.343427 -0.415624 0.00315442)
(-0.31899 -0.507876 -0.0138049)
(-0.22816 -0.529305 -0.0374754)
(-0.0688187 -0.324802 -0.0491346)
(0.0225246 0.0539775 -0.0128609)
(0.0100383 0.250613 0.00197633)
(0.0489914 0.435523 -0.019433)
(0.110334 0.564491 -0.0270232)
(0.183162 0.623515 -0.025702)
(0.246406 0.637395 -0.0136103)
(0.295358 0.616342 -0.00572651)
(0.339308 0.580258 0.00183546)
(0.368314 0.535357 0.00520907)
(0.371342 0.483449 0.00586322)
(0.3464 0.438165 0.00689474)
(0.303961 0.393591 0.00860978)
(0.255977 0.350154 0.0117043)
(0.213501 0.307951 0.0161754)
(0.181266 0.269047 0.019461)
(0.156666 0.233037 0.0183259)
(0.135898 0.1982 0.0170689)
(0.116133 0.164684 0.0159671)
(0.0973464 0.126403 0.0145216)
(0.0800903 0.0935028 0.0132516)
(0.0591076 0.0786981 0.0110324)
(0.0365171 0.0650066 0.013002)
(0.0168326 0.0487016 0.00894196)
(0.00290051 0.0286686 0.0131451)
(-0.0152974 0.00894814 0.00937571)
(-0.0364482 -0.00629418 0.0104762)
(-0.054925 -0.014218 0.0101676)
(-0.0715571 -0.0254743 0.0110838)
(-0.0854975 -0.0371465 0.0118457)