/*--------------------------------*- C++ -*----------------------------------*\
| =========                 |                                                 |
| \\      /  F ield         | OpenFOAM: The Open Source CFD Toolbox           |
|  \\    /   O peration     | Version:  v1806                                 |
|   \\  /    A nd           | Web:      www.OpenFOAM.com                      |
|    \\/     M anipulation  |                                                 |
\*---------------------------------------------------------------------------*/
FoamFile
{
    version     2.0;
    format      ascii;
    class       volVectorField;
    location    "0.0305";
    object      U_0;
}
// * * * * * * * * * * * * * * * * * * * * * * * * * * * * * * * * * * * * * //

dimensions      [0 1 -1 0 0 0 0];


internalField   nonuniform List<vector> 
64000
(
(-0.00496021 -0.0067392 -0.00201526)
(0.0131557 -0.00786576 -0.000816537)
(0.0268799 -0.00494286 0.00212557)
(0.033902 -0.00457838 0.00250547)
(0.0278725 -0.0033861 0.00313596)
(0.0215243 -0.00227038 0.0045865)
(0.020518 -0.00295549 0.00437782)
(0.0162526 -0.00321704 0.00427607)
(0.0136684 -0.00430045 0.00537537)
(0.00794544 -0.00419804 0.00483174)
(-0.000669757 -0.00766342 0.005808)
(-0.0182116 -0.0104038 0.00700063)
(-0.0408328 -0.014259 0.00641339)
(-0.0688525 -0.0162452 0.00455693)
(-0.103975 -0.0142451 0.00519984)
(-0.139835 -0.00572578 0.00397407)
(-0.181049 0.00521662 0.00359456)
(-0.216773 -9.09815e-06 0.0046074)
(-0.25162 -0.00987896 0.00474613)
(-0.271915 -0.0216818 -0.00871579)
(-0.28335 -0.0357601 -0.0392068)
(-0.160687 -0.0237622 -0.0361938)
(-0.0823549 -0.0214455 -0.0355821)
(-0.0977793 -0.00639717 -0.0366812)
(-0.0816232 -0.00147141 -0.0500686)
(-0.0872157 0.0091883 -0.0575307)
(-0.0669512 0.0182045 -0.0638629)
(-0.0429503 0.0304553 -0.0584201)
(-0.0094484 0.0397047 -0.0487833)
(0.0344224 0.0541383 -0.0299737)
(0.0805717 0.0418133 -0.0308272)
(0.113538 0.0347822 -0.0211013)
(0.127406 0.0237583 -0.00903181)
(0.123134 0.0100187 -0.00225888)
(0.105965 0.00196601 0.00338942)
(0.0827303 -0.00547286 0.00545644)
(0.0588029 -0.00832623 0.00785139)
(0.0364801 -0.00673948 0.00876839)
(0.0183814 -0.00511721 0.00885804)
(0.00375379 -0.00377903 0.00734697)
(-0.00340581 -0.00724418 -0.000253535)
(0.0132734 -0.0180325 -0.000430219)
(0.0360264 -0.0153199 0.000676822)
(0.0492004 -0.0115657 0.000371984)
(0.0476796 -0.00618895 0.000745559)
(0.0406756 -0.00192255 -0.000131589)
(0.0375896 0.00189547 -0.00198443)
(0.0296185 0.00452219 -0.00176175)
(0.0211678 0.00835849 -0.00684995)
(0.00316095 0.0172262 -0.00379965)
(-0.0227459 0.0251227 -0.00736906)
(-0.0605438 0.0361287 0.000303801)
(-0.107895 0.0499509 -0.00331094)
(-0.161155 0.0710732 -0.00571566)
(-0.22172 0.0794962 -0.00879009)
(-0.288457 0.0866138 -0.019795)
(-0.38529 0.0916561 -0.0412447)
(-0.481452 0.0966189 -0.0556105)
(-0.558349 0.0997952 -0.0734864)
(-0.612263 0.104973 -0.0954136)
(-0.618756 0.109707 -0.117655)
(-0.478518 0.140543 -0.127151)
(-0.386199 0.166932 -0.148092)
(-0.383152 0.20638 -0.152261)
(-0.344695 0.228174 -0.162904)
(-0.314282 0.252904 -0.168738)
(-0.254179 0.270668 -0.170816)
(-0.18802 0.286563 -0.16136)
(-0.108429 0.295728 -0.139145)
(-0.0431667 0.301286 -0.113981)
(0.0226729 0.285016 -0.0746189)
(0.0916643 0.254513 -0.0489285)
(0.124268 0.201576 -0.0386018)
(0.137116 0.15501 -0.0276462)
(0.129469 0.106769 -0.0137082)
(0.10704 0.0672336 -0.00591311)
(0.0843637 0.0397179 -0.00123636)
(0.058718 0.024801 0.000206576)
(0.0338661 0.0149916 0.00202562)
(0.00981714 0.00556977 0.00406041)
(-0.000104338 -0.0166813 0.00190131)
(0.0177305 -0.027212 -0.000614293)
(0.0429918 -0.0222072 -0.000960534)
(0.0577646 -0.0110196 0.000166816)
(0.053964 -0.000179517 -0.0024375)
(0.0440904 0.0167299 -0.00333721)
(0.035381 0.0294228 -0.00496888)
(0.0195121 0.0454967 -0.00767159)
(0.00518026 0.0713989 -0.000628595)
(-0.0217975 0.0971715 -0.00448348)
(-0.0618623 0.125981 -0.00831649)
(-0.115449 0.156129 -0.0123743)
(-0.177108 0.18242 -0.0172174)
(-0.265654 0.202685 -0.029978)
(-0.371746 0.221247 -0.0326814)
(-0.466818 0.233633 -0.0438946)
(-0.561201 0.243223 -0.0571496)
(-0.641817 0.26858 -0.0716345)
(-0.709851 0.29577 -0.0885995)
(-0.751076 0.330108 -0.108043)
(-0.741747 0.361766 -0.121958)
(-0.57907 0.394164 -0.120552)
(-0.462775 0.437646 -0.132674)
(-0.447373 0.480085 -0.125089)
(-0.402373 0.507677 -0.125587)
(-0.367712 0.530271 -0.123005)
(-0.308578 0.540768 -0.119006)
(-0.245352 0.541272 -0.108032)
(-0.175033 0.531042 -0.0879991)
(-0.109527 0.50821 -0.0647068)
(-0.054014 0.487108 -0.0418761)
(-0.0156478 0.440981 -0.0270709)
(0.0199895 0.376216 -0.0113459)
(0.0481693 0.303865 -0.00655698)
(0.053039 0.22998 -0.00983282)
(0.0537691 0.1655 -0.00938783)
(0.0506219 0.114164 -0.0067289)
(0.0410145 0.0760354 -0.00405477)
(0.0278198 0.0490404 -0.000361489)
(0.00929716 0.0202587 0.0033444)
(0.000221154 -0.0237138 0.00147163)
(0.0202978 -0.0321597 -0.00285497)
(0.0491217 -0.0202113 -0.00198049)
(0.0614921 -0.00011998 -0.00353614)
(0.0591437 0.0232819 -0.00537409)
(0.0446793 0.0594797 -0.00678471)
(0.0266396 0.0964273 -0.00608129)
(0.0119084 0.132889 -0.00340452)
(-0.0130047 0.173708 -0.0085459)
(-0.0595226 0.203639 -0.0112112)
(-0.115803 0.231749 -0.015285)
(-0.19144 0.25595 -0.021865)
(-0.28137 0.285748 -0.0254332)
(-0.368146 0.302047 -0.0268176)
(-0.453203 0.333055 -0.0302187)
(-0.536213 0.364661 -0.0401027)
(-0.617204 0.397348 -0.0490196)
(-0.684561 0.432147 -0.0555776)
(-0.735555 0.465839 -0.0624519)
(-0.762417 0.507039 -0.0696074)
(-0.740612 0.53767 -0.0666858)
(-0.559714 0.561588 -0.0481032)
(-0.429536 0.591922 -0.0501686)
(-0.413705 0.613137 -0.0328877)
(-0.374575 0.621569 -0.0263457)
(-0.349163 0.623236 -0.0198374)
(-0.304418 0.61215 -0.016362)
(-0.258293 0.590955 -0.0113749)
(-0.206096 0.56387 -0.00100998)
(-0.157759 0.527978 0.00649072)
(-0.119594 0.488021 0.0119583)
(-0.0916606 0.444471 0.0132428)
(-0.0747714 0.401233 0.00915028)
(-0.0538173 0.344198 0.00290377)
(-0.0336773 0.279018 -0.00186408)
(-0.0166877 0.207246 -0.00725272)
(-0.000294814 0.14427 -0.00877514)
(0.0108615 0.107054 -0.00653344)
(0.0169044 0.072597 -0.0024617)
(0.00775096 0.0291403 0.00273926)
(0.00159722 -0.0270095 0.000783321)
(0.0259667 -0.0276015 -0.00413742)
(0.0585198 -0.00791481 -0.00130287)
(0.072233 0.0217924 -0.00371947)
(0.0725247 0.0595877 -0.00377242)
(0.0616014 0.110726 -0.0147924)
(0.0342307 0.166123 -0.0101642)
(-0.000849343 0.211431 -0.00408795)
(-0.0466703 0.245988 -0.006481)
(-0.110131 0.277266 -0.00927433)
(-0.175179 0.308309 -0.0127572)
(-0.238144 0.336421 -0.0151496)
(-0.309213 0.37328 -0.0201093)
(-0.387553 0.411114 -0.0187976)
(-0.461071 0.450467 -0.0184484)
(-0.530349 0.487427 -0.0200814)
(-0.593107 0.522244 -0.0182527)
(-0.642354 0.558865 -0.0139269)
(-0.675288 0.594287 -0.00987502)
(-0.690841 0.633962 -0.0154005)
(-0.668043 0.66099 -0.00993152)
(-0.484102 0.674036 0.0148029)
(-0.35348 0.679295 0.0166034)
(-0.343698 0.671711 0.0357752)
(-0.317406 0.650276 0.0387244)
(-0.310843 0.626203 0.0448958)
(-0.288706 0.592371 0.0467845)
(-0.261692 0.553769 0.0478571)
(-0.23131 0.512519 0.0430495)
(-0.205113 0.46993 0.0358683)
(-0.181145 0.425226 0.0266178)
(-0.162553 0.382218 0.018957)
(-0.146204 0.345504 0.0133453)
(-0.133885 0.308957 0.00407314)
(-0.129127 0.266601 -0.0066908)
(-0.108012 0.202796 -0.0104927)
(-0.0575862 0.151689 -0.010108)
(-0.0159621 0.122411 -0.00930397)
(0.00298548 0.0885306 -0.00376333)
(0.00505474 0.0347773 0.00299347)
(0.00461081 -0.0297325 0.000848012)
(0.0332958 -0.0219876 -0.00435577)
(0.0683622 0.00781527 -0.00494631)
(0.083373 0.04849 -0.00580878)
(0.0875676 0.0953216 -0.00629584)
(0.0741066 0.156553 -0.0138833)
(0.0320887 0.196246 -0.00176738)
(-0.0209692 0.246068 0.000631458)
(-0.0732198 0.28598 -0.0030988)
(-0.129496 0.331516 -0.00637009)
(-0.186122 0.377043 -0.00853912)
(-0.244157 0.420241 -0.00872643)
(-0.303719 0.457348 -0.00689064)
(-0.360538 0.493364 -0.00135551)
(-0.415055 0.529611 0.00151001)
(-0.468919 0.565723 0.00394937)
(-0.516765 0.602535 0.0062663)
(-0.551717 0.644792 0.0111593)
(-0.57427 0.680912 0.0131852)
(-0.58531 0.714112 0.0108896)
(-0.563609 0.735218 0.0193726)
(-0.391954 0.718603 0.0446038)
(-0.276504 0.667781 0.046956)
(-0.285169 0.632049 0.0654512)
(-0.277871 0.583816 0.0714147)
(-0.287676 0.542368 0.0737195)
(-0.284726 0.497883 0.0706362)
(-0.27799 0.453775 0.0668834)
(-0.263448 0.407011 0.0631711)
(-0.251105 0.366496 0.0483251)
(-0.242298 0.326639 0.03672)
(-0.22826 0.292095 0.0231477)
(-0.216297 0.263821 0.0108061)
(-0.200001 0.236526 0.00508563)
(-0.195101 0.213425 -0.00693803)
(-0.167677 0.185613 -0.0121497)
(-0.0939087 0.154034 -0.0123285)
(-0.0357797 0.128262 -0.0106884)
(-0.00346613 0.095794 -0.00578779)
(0.00422474 0.0365627 0.00293176)
(0.00576086 -0.025793 -0.00088491)
(0.041805 -0.00602668 -0.00648145)
(0.085005 0.0299705 -0.00981301)
(0.100754 0.0785932 -0.00711999)
(0.107251 0.133602 -0.00962776)
(0.0753741 0.189095 -0.00813406)
(0.0249822 0.225516 0.00419172)
(-0.0162003 0.278071 0.0011352)
(-0.0649595 0.333958 -0.000679935)
(-0.113172 0.387071 -0.0026734)
(-0.16248 0.437357 -0.0028288)
(-0.208781 0.481096 -0.00100204)
(-0.256642 0.518706 0.00144161)
(-0.30262 0.555191 0.00925615)
(-0.341995 0.586327 0.0111285)
(-0.377793 0.615702 0.018143)
(-0.403724 0.644074 0.0250579)
(-0.426893 0.676578 0.0258123)
(-0.449249 0.703162 0.027225)
(-0.461273 0.721574 0.0236045)
(-0.470925 0.73039 0.0272502)
(-0.360753 0.69917 0.0491454)
(-0.25591 0.601528 0.047941)
(-0.255209 0.54256 0.0593754)
(-0.261413 0.489568 0.0630558)
(-0.282662 0.448201 0.0636873)
(-0.296263 0.408457 0.06044)
(-0.305314 0.370766 0.0560735)
(-0.303509 0.331983 0.0472491)
(-0.300539 0.297452 0.0362353)
(-0.296778 0.264518 0.0224717)
(-0.285969 0.238019 0.0125924)
(-0.273892 0.217691 0.00183639)
(-0.257492 0.206878 -0.00308116)
(-0.242993 0.195037 -0.00992318)
(-0.210003 0.189069 -0.0188894)
(-0.130756 0.163739 -0.018796)
(-0.054404 0.139776 -0.0152351)
(-0.00931852 0.105021 -0.00795848)
(0.00482764 0.0403482 0.00194359)
(0.00777174 -0.0195461 0.000246057)
(0.0465689 0.0182811 -0.0141981)
(0.0961615 0.0623224 -0.0146118)
(0.119757 0.11531 -0.010379)
(0.120498 0.171812 -0.0130233)
(0.0809649 0.214077 -0.00433853)
(0.0331778 0.267966 0.00198753)
(0.00443378 0.320176 0.00444799)
(-0.0341645 0.373074 0.00245775)
(-0.0764324 0.426985 0.00326198)
(-0.116953 0.471221 0.00521365)
(-0.157511 0.506955 0.0102871)
(-0.191563 0.538134 0.0171395)
(-0.221974 0.565907 0.0207557)
(-0.25191 0.586716 0.0252426)
(-0.27949 0.601841 0.0290275)
(-0.299927 0.612304 0.0328118)
(-0.318534 0.621403 0.0308863)
(-0.344844 0.627811 0.0264549)
(-0.368371 0.624984 0.0215414)
(-0.396172 0.617092 0.0204086)
(-0.344963 0.606947 0.0340333)
(-0.273131 0.518056 0.0335431)
(-0.260307 0.451553 0.0370482)
(-0.266579 0.400548 0.0401247)
(-0.294029 0.366436 0.0421872)
(-0.316475 0.336132 0.0425142)
(-0.335113 0.304626 0.0408122)
(-0.341026 0.272719 0.034803)
(-0.344628 0.240602 0.017127)
(-0.346518 0.209164 0.0125749)
(-0.335477 0.183674 0.0022783)
(-0.319669 0.169103 -0.00322801)
(-0.299307 0.164979 -0.00795616)
(-0.282709 0.171938 -0.0138)
(-0.248816 0.18502 -0.0201183)
(-0.162669 0.171166 -0.0220313)
(-0.0725005 0.148437 -0.0175427)
(-0.0137121 0.113704 -0.00959578)
(0.00560651 0.0431116 0.00181646)
(0.00991114 -0.005673 -0.00294627)
(0.0566024 0.0482916 -0.0213051)
(0.114944 0.10229 -0.0216587)
(0.140781 0.155223 -0.0136995)
(0.132788 0.201948 -0.0133459)
(0.0977003 0.246112 -0.00654989)
(0.0625883 0.304855 0.00101568)
(0.0329926 0.359675 0.00631759)
(0.00601583 0.40231 0.0118144)
(-0.0262933 0.442579 0.012128)
(-0.0657876 0.477775 0.0155654)
(-0.0945714 0.505235 0.0221427)
(-0.119714 0.525577 0.0275872)
(-0.146184 0.535328 0.0302067)
(-0.171031 0.537091 0.0317287)
(-0.195304 0.531375 0.0318549)
(-0.213635 0.521453 0.0310968)
(-0.235871 0.515241 0.0244576)
(-0.272873 0.502877 0.0181386)
(-0.307313 0.497633 0.0137083)
(-0.33747 0.495671 0.0129569)
(-0.329172 0.507041 0.0194154)
(-0.302859 0.45568 0.0201407)
(-0.28928 0.394797 0.0186989)
(-0.287929 0.337256 0.0181361)
(-0.310157 0.309539 0.0222287)
(-0.338788 0.285233 0.0257277)
(-0.364551 0.257864 0.0291377)
(-0.37755 0.229493 0.0215029)
(-0.387799 0.193883 0.0105198)
(-0.391184 0.167501 0.000838239)
(-0.378567 0.14588 -0.0040003)
(-0.359484 0.131152 -0.01123)
(-0.331522 0.13336 -0.0160725)
(-0.298938 0.14074 -0.0175819)
(-0.269876 0.170529 -0.0233682)
(-0.193848 0.172952 -0.0248419)
(-0.0910237 0.158084 -0.0226669)
(-0.0186451 0.123333 -0.0119201)
(0.00590915 0.0484956 0.000594144)
(0.00768692 0.0138864 -0.00904433)
(0.059921 0.0897372 -0.0297657)
(0.128453 0.147625 -0.0287236)
(0.153204 0.192831 -0.017109)
(0.148711 0.234215 -0.0174846)
(0.126609 0.280143 -0.00786466)
(0.100629 0.334808 -0.00267567)
(0.0731472 0.381463 0.0119556)
(0.0419055 0.419853 0.0191383)
(0.0181995 0.446111 0.0257771)
(-0.00652536 0.466817 0.0267724)
(-0.0337336 0.479723 0.0333771)
(-0.0578342 0.48398 0.0380495)
(-0.0819542 0.477179 0.0378991)
(-0.108428 0.461752 0.0350674)
(-0.136267 0.438297 0.0300685)
(-0.155407 0.412986 0.0246627)
(-0.183255 0.395531 0.0125616)
(-0.221444 0.37367 0.00801897)
(-0.251723 0.383777 0.00628025)
(-0.282709 0.407334 0.00894484)
(-0.302607 0.431402 0.0123817)
(-0.322873 0.415827 0.0116749)
(-0.33305 0.370249 0.00938357)
(-0.319353 0.305981 0.00612647)
(-0.323372 0.269699 0.0099168)
(-0.352358 0.246911 0.0164649)
(-0.381571 0.222596 0.0204903)
(-0.403152 0.192477 0.0184673)
(-0.4145 0.160629 0.00774958)
(-0.416274 0.131097 0.0122571)
(-0.411411 0.109155 0.0168849)
(-0.391391 0.0914678 0.0162886)
(-0.365857 0.0904329 0.00877175)
(-0.328991 0.105291 -0.0112206)
(-0.288368 0.135011 -0.0218947)
(-0.213727 0.168677 -0.0238354)
(-0.107336 0.158398 -0.0215637)
(-0.0239557 0.131226 -0.0124969)
(0.0068281 0.0517115 0.000988925)
(0.00908055 0.0302342 -0.0112965)
(0.0664835 0.130416 -0.035291)
(0.138157 0.190978 -0.0330606)
(0.168102 0.230384 -0.0203739)
(0.171173 0.270925 -0.0160245)
(0.15961 0.311273 -0.0104012)
(0.139477 0.355991 -0.00118386)
(0.112697 0.391213 0.00736064)
(0.088149 0.42031 0.0149427)
(0.0624913 0.440859 0.030883)
(0.0354568 0.448338 0.0377863)
(0.0167946 0.447468 0.0459539)
(-0.00422938 0.433876 0.047127)
(-0.0326692 0.411627 0.0430539)
(-0.0641887 0.387541 0.0347822)
(-0.0970951 0.354135 0.0250279)
(-0.117776 0.329421 0.015545)
(-0.151183 0.298403 -0.000438877)
(-0.178898 0.291384 0.00147204)
(-0.187759 0.316195 0.00434606)
(-0.222002 0.349852 0.00753923)
(-0.268326 0.376295 0.0106485)
(-0.322385 0.379502 0.00878579)
(-0.362987 0.353697 0.00561501)
(-0.355186 0.305536 0.00297552)
(-0.336337 0.239889 0.00278231)
(-0.353711 0.215822 0.00708489)
(-0.388253 0.188111 0.0118912)
(-0.413651 0.162074 0.00826079)
(-0.432689 0.128036 0.0273886)
(-0.442395 0.0926141 0.0303438)
(-0.440964 0.0619883 0.0213271)
(-0.4276 0.0494258 0.0131913)
(-0.393182 0.045251 0.00953479)
(-0.347023 0.0615425 0.00160057)
(-0.296462 0.090636 -0.0161625)
(-0.228347 0.142113 -0.0268407)
(-0.126105 0.156474 -0.0222037)
(-0.0272628 0.134917 -0.0145643)
(0.00509831 0.0561606 0.000347524)
(0.00774329 0.051497 -0.0131309)
(0.0670504 0.172602 -0.0399001)
(0.144461 0.235511 -0.0379581)
(0.182687 0.271718 -0.0224819)
(0.195616 0.305259 -0.0131556)
(0.190742 0.337782 -0.00641732)
(0.175223 0.3696 -0.00471801)
(0.151016 0.393319 0.0092203)
(0.126917 0.411627 0.0143705)
(0.104961 0.421779 0.0258655)
(0.0825152 0.424128 0.0346361)
(0.056011 0.414525 0.0517281)
(0.0286644 0.390284 0.0530381)
(0.00579502 0.35696 0.0483217)
(-0.0297504 0.324772 0.0311871)
(-0.0653017 0.294073 0.018694)
(-0.0964317 0.271645 0.00281251)
(-0.123905 0.242425 -0.0059498)
(-0.124552 0.260191 -0.00106573)
(-0.129639 0.277144 0.0024672)
(-0.169517 0.295207 0.00839914)
(-0.225977 0.316323 0.0129155)
(-0.299634 0.332613 0.0100067)
(-0.358311 0.321417 0.00642821)
(-0.380765 0.294016 0.00266732)
(-0.356431 0.228555 0.00332553)
(-0.344441 0.174458 0.00482031)
(-0.37554 0.151342 0.00605084)
(-0.407188 0.122283 0.0246026)
(-0.438187 0.0884112 0.0351891)
(-0.455067 0.0540704 0.0409657)
(-0.453717 0.027322 0.0538314)
(-0.442062 0.00279507 0.0454452)
(-0.425356 -0.00382924 0.0333004)
(-0.386026 0.00823357 0.0238746)
(-0.320695 0.047749 0.002546)
(-0.234383 0.0943967 -0.0230425)
(-0.133718 0.143768 -0.0234576)
(-0.0337242 0.132516 -0.0143878)
(0.00687723 0.0589064 -0.000506916)
(0.00643128 0.0652489 -0.0145132)
(0.0668293 0.208671 -0.0448544)
(0.14926 0.277387 -0.0435649)
(0.196334 0.309724 -0.0247793)
(0.217905 0.333806 -0.0104285)
(0.219079 0.354213 -0.00123126)
(0.205212 0.37672 0.00297043)
(0.182848 0.389753 0.00549483)
(0.1649 0.401074 0.0119697)
(0.144735 0.403471 0.0248441)
(0.119217 0.396514 0.0319242)
(0.0926125 0.379942 0.0394354)
(0.0606019 0.353976 0.0469445)
(0.0286878 0.32096 0.0441128)
(-0.00379748 0.280252 0.0271916)
(-0.0384378 0.255268 0.00959566)
(-0.0736628 0.232933 -0.00662359)
(-0.082893 0.232006 -0.00645727)
(-0.0780242 0.244188 -0.00404106)
(-0.0939727 0.24173 0.00388955)
(-0.126331 0.241047 0.0142937)
(-0.172744 0.248904 0.0202272)
(-0.253993 0.270263 0.0138104)
(-0.331206 0.276215 0.00939775)
(-0.370815 0.260526 0.00406891)
(-0.372443 0.227976 0.00393649)
(-0.342052 0.151926 0.00447583)
(-0.349878 0.115695 0.00894303)
(-0.388694 0.0829091 0.0225693)
(-0.422427 0.0467631 0.0335186)
(-0.443056 0.0159258 0.0568283)
(-0.462634 -0.0243059 0.0433988)
(-0.470238 -0.0658203 0.0334572)
(-0.447936 -0.0878732 0.0183799)
(-0.404238 -0.0763579 0.00391148)
(-0.348408 -0.0270747 0.0121919)
(-0.257154 0.0484078 -0.00239553)
(-0.141482 0.110286 -0.0309437)
(-0.0383971 0.126851 -0.0140013)
(0.00691109 0.0588148 -0.00220624)
(0.00502149 0.0790072 -0.0146164)
(0.066385 0.241186 -0.0479995)
(0.152719 0.314537 -0.0487937)
(0.205786 0.342792 -0.0288683)
(0.234167 0.35736 -0.00959836)
(0.242757 0.366158 0.00382424)
(0.233606 0.37586 0.00906698)
(0.214202 0.38473 0.0129646)
(0.197808 0.389949 0.014893)
(0.177237 0.385692 0.018068)
(0.154494 0.373161 0.0178889)
(0.123939 0.35168 0.0287828)
(0.088673 0.321445 0.0268349)
(0.0509647 0.290877 0.0300482)
(0.0157186 0.256068 0.0176306)
(-0.0142096 0.235006 -0.0003007)
(-0.0357607 0.226503 -0.00923462)
(-0.0407106 0.233599 -0.00745965)
(-0.04924 0.228244 -0.00203332)
(-0.0676656 0.215663 0.00830023)
(-0.0937199 0.203818 0.019712)
(-0.122292 0.19617 0.0274614)
(-0.190221 0.199992 0.0218122)
(-0.277886 0.224309 0.0120668)
(-0.330781 0.21672 0.00771841)
(-0.35895 0.205732 0.00642981)
(-0.34391 0.15466 0.0103641)
(-0.32637 0.0840934 0.0156093)
(-0.357862 0.0493595 0.0284084)
(-0.391678 0.0107742 0.0457385)
(-0.428539 -0.0354467 0.0362005)
(-0.467013 -0.0915916 0.0317811)
(-0.480762 -0.137591 0.0218272)
(-0.469502 -0.169876 0.0105429)
(-0.426395 -0.17388 -0.00214573)
(-0.354297 -0.131623 -0.00786197)
(-0.266401 -0.0336883 0.000552324)
(-0.157655 0.0661004 -0.0157838)
(-0.0413447 0.115307 -0.0182704)
(0.0059001 0.0602509 -0.00260882)
(0.00216518 0.0771656 -0.0143474)
(0.0618784 0.257876 -0.0480926)
(0.151673 0.336297 -0.0496299)
(0.2121 0.361984 -0.0292577)
(0.247291 0.368332 -0.00870255)
(0.259328 0.368404 0.00560336)
(0.257477 0.369815 0.0112863)
(0.243969 0.374228 0.014304)
(0.2286 0.375913 0.0157089)
(0.208342 0.368822 0.0161005)
(0.182206 0.354077 0.0143416)
(0.149873 0.325656 0.0123475)
(0.113748 0.295603 0.00819925)
(0.0744418 0.269573 0.013043)
(0.0423903 0.258115 0.00354644)
(0.0220046 0.251848 -0.00632927)
(0.00364838 0.254491 -0.00693207)
(-0.00918288 0.253905 -0.00145693)
(-0.02486 0.235205 0.00470362)
(-0.043601 0.214678 0.0139082)
(-0.0651102 0.192152 0.0198179)
(-0.0893251 0.172393 0.0252265)
(-0.131193 0.152473 0.0284255)
(-0.212622 0.170187 0.014917)
(-0.279535 0.170104 0.0107787)
(-0.315771 0.162726 0.0117452)
(-0.336521 0.142062 0.00949506)
(-0.319348 0.079336 0.0164131)
(-0.319237 0.0152595 0.0221641)
(-0.363257 -0.0281046 0.0254778)
(-0.408285 -0.089481 0.0265826)
(-0.447533 -0.1435 0.0217321)
(-0.472742 -0.199012 0.0134875)
(-0.472958 -0.241857 0.00130662)
(-0.438266 -0.260241 -0.0120779)
(-0.369855 -0.228667 -0.0186428)
(-0.271235 -0.142687 -0.0211321)
(-0.156731 -0.000160506 3.90234e-05)
(-0.0460824 0.0841017 -0.0264101)
(0.00427249 0.0576916 -0.00536376)
(0.00252438 0.0948598 -0.00877771)
(0.0605761 0.28289 -0.0456601)
(0.149733 0.364373 -0.0484052)
(0.214645 0.386167 -0.0286659)
(0.256498 0.383907 -0.00577695)
(0.277796 0.377352 0.00579514)
(0.283254 0.37202 0.0110072)
(0.274195 0.369137 0.0118889)
(0.259295 0.36337 0.00985421)
(0.237477 0.349824 0.00770029)
(0.207505 0.334719 0.00491835)
(0.171487 0.32093 0.00461808)
(0.141646 0.312399 0.00322571)
(0.118198 0.30809 0.00715201)
(0.0937793 0.308342 -0.00574606)
(0.0678806 0.298691 -0.00770503)
(0.0442364 0.289896 -0.00644459)
(0.0152902 0.275838 -0.00356084)
(-0.0111251 0.252132 0.00556844)
(-0.0285219 0.222937 0.0125155)
(-0.048306 0.193448 0.016472)
(-0.0690883 0.1659 0.0196048)
(-0.0939812 0.136863 0.0255532)
(-0.15629 0.12849 0.01863)
(-0.227489 0.132223 0.0111867)
(-0.267625 0.121312 0.00416978)
(-0.297843 0.108015 -0.00120983)
(-0.312783 0.0776912 0.00326544)
(-0.312019 0.00985081 0.00519644)
(-0.333029 -0.0571454 0.0105211)
(-0.375439 -0.118522 0.0149341)
(-0.416132 -0.18484 0.0128728)
(-0.448609 -0.250343 0.00731407)
(-0.460646 -0.306542 -0.00341469)
(-0.436198 -0.340862 -0.0174926)
(-0.375737 -0.327746 -0.032522)
(-0.276293 -0.246437 -0.0390541)
(-0.163995 -0.0917103 -0.0243231)
(-0.0482749 0.0451338 -0.0180622)
(0.00898171 0.0543934 -0.0102066)
(-0.00762272 0.0888569 -0.020841)
(0.0434877 0.28852 -0.0513912)
(0.137954 0.378725 -0.0545518)
(0.209898 0.401566 -0.0354348)
(0.262488 0.396705 -0.0104764)
(0.291549 0.383448 -0.00152755)
(0.302668 0.368367 0.00548048)
(0.295912 0.359112 0.00506424)
(0.279395 0.36549 0.00354564)
(0.2622 0.378124 0.00311756)
(0.248002 0.390245 0.00292793)
(0.230345 0.39362 0.00221489)
(0.205209 0.388585 0.00109916)
(0.169743 0.372149 0.00384127)
(0.124669 0.350029 -0.00709325)
(0.0875988 0.325743 -0.00983836)
(0.0598093 0.295842 -0.0089323)
(0.0318533 0.268615 -0.00454098)
(0.00374431 0.244984 0.00161122)
(-0.0169845 0.213383 0.00997642)
(-0.0332219 0.183651 0.0129937)
(-0.0539941 0.155693 0.0151251)
(-0.0735088 0.126985 0.0201655)
(-0.118409 0.104306 0.0201393)
(-0.182649 0.0989769 0.0121648)
(-0.228468 0.0868907 0.00463082)
(-0.258079 0.0727707 -8.60763e-05)
(-0.282465 0.0556199 0.00206901)
(-0.303866 0.0157754 -0.000146536)
(-0.323461 -0.0503157 -0.00368669)
(-0.353524 -0.124651 -0.000277796)
(-0.390087 -0.191079 0.0043875)
(-0.417576 -0.267818 0.00242661)
(-0.432688 -0.345784 -0.00609403)
(-0.419116 -0.40129 -0.0198304)
(-0.366728 -0.410158 -0.037498)
(-0.272896 -0.348417 -0.0568327)
(-0.161118 -0.202973 -0.0451531)
(-0.0442018 -0.00700639 -0.0103756)
(0.00929853 0.0447234 -0.0111087)
(-0.00575559 0.181795 -0.0151885)
(0.0433448 0.385752 -0.0395886)
(0.132815 0.480483 -0.045765)
(0.207162 0.502597 -0.0287049)
(0.265416 0.493592 -0.00962445)
(0.30045 0.472412 0.000177517)
(0.319687 0.449255 0.0069874)
(0.337226 0.456331 0.0090369)
(0.351451 0.478049 0.00449181)
(0.34486 0.490789 -0.000423236)
(0.31499 0.488844 -0.00558439)
(0.268272 0.466359 -0.00634044)
(0.219952 0.431036 -0.00500495)
(0.17537 0.385053 -0.00132815)
(0.136826 0.34516 0.000701794)
(0.0974443 0.312739 -0.00501206)
(0.0676586 0.283893 -0.00677175)
(0.0453178 0.248554 -0.00403789)
(0.0163651 0.221517 -0.00025693)
(-0.00519789 0.19368 0.00803099)
(-0.0200172 0.1619 0.0116875)
(-0.0388298 0.135359 0.013335)
(-0.0571962 0.109275 0.0164765)
(-0.0938159 0.0850667 0.0173845)
(-0.150597 0.0718178 0.0092921)
(-0.193198 0.0574083 0.000617314)
(-0.21876 0.047512 0.00276277)
(-0.245896 0.0327187 0.00391759)
(-0.277286 0.00794721 0.00334723)
(-0.312215 -0.0326144 0.000314417)
(-0.331835 -0.0972072 -0.00609101)
(-0.358644 -0.194597 -0.0165759)
(-0.399417 -0.286256 -0.0164669)
(-0.416446 -0.361953 -0.0183568)
(-0.398694 -0.431317 -0.0300682)
(-0.355322 -0.468035 -0.0545475)
(-0.279505 -0.440181 -0.0747637)
(-0.163488 -0.28877 -0.0653498)
(-0.0370794 -0.0864184 -0.0336535)
(0.0103075 0.0376047 -0.00943476)
(-0.0205432 0.298625 -0.0294637)
(0.0180102 0.527141 -0.047006)
(0.111934 0.631875 -0.0535475)
(0.191044 0.665256 -0.0373638)
(0.258897 0.658316 -0.0226153)
(0.30168 0.63541 -0.011225)
(0.351885 0.603496 -0.000888915)
(0.394409 0.59487 -0.00212321)
(0.388096 0.581525 -0.00520494)
(0.353991 0.551276 -0.00683236)
(0.312348 0.508926 -0.00660686)
(0.267426 0.462479 -0.00567049)
(0.220539 0.416027 -0.00404327)
(0.177481 0.369811 -0.000246044)
(0.140587 0.328616 0.00157876)
(0.110088 0.289476 0.00518718)
(0.0771716 0.261085 -0.0014144)
(0.050704 0.230181 -0.00283697)
(0.0306451 0.197014 0.000587835)
(0.00519319 0.171913 0.00478451)
(-0.0102847 0.140759 0.0114282)
(-0.0258438 0.11417 0.0123442)
(-0.0429526 0.0888079 0.0147935)
(-0.0737008 0.0658148 0.0154978)
(-0.125205 0.047852 0.00732798)
(-0.162255 0.0355922 0.00538705)
(-0.183923 0.02556 0.00554778)
(-0.21086 0.00920828 0.0069709)
(-0.240393 -0.00577179 0.00881453)
(-0.278122 -0.0280584 0.0060633)
(-0.337613 -0.068281 0.00250997)
(-0.373605 -0.146609 0.00302305)
(-0.363622 -0.257013 -0.0126087)
(-0.365915 -0.395994 -0.0323397)
(-0.369896 -0.506559 -0.0527275)
(-0.34681 -0.583039 -0.0766297)
(-0.261978 -0.575995 -0.0927057)
(-0.172781 -0.438276 -0.0991535)
(-0.0536373 -0.172513 -0.0565356)
(0.0225343 0.0214637 -0.0163141)
(-0.00270479 0.28631 -0.00358342)
(0.0373468 0.532466 -0.0388891)
(0.116834 0.651447 -0.0487219)
(0.195644 0.700496 -0.0406345)
(0.262264 0.700098 -0.0289094)
(0.304433 0.677099 -0.0193053)
(0.348648 0.644597 -0.00912932)
(0.387209 0.602299 -0.00403246)
(0.383826 0.563787 -0.00290335)
(0.353106 0.525067 -0.00131449)
(0.312485 0.485361 -0.000886354)
(0.266434 0.441665 -3.21968e-05)
(0.220344 0.394688 0.00127708)
(0.179632 0.349376 0.00208816)
(0.144493 0.305978 0.00406048)
(0.114024 0.268245 0.00537772)
(0.0902316 0.232619 0.00907593)
(0.0620344 0.205416 0.00219548)
(0.0378497 0.176547 0.00108433)
(0.0169074 0.14888 0.00439989)
(-0.00104517 0.123815 0.00992049)
(-0.0154464 0.0949529 0.0114712)
(-0.0307259 0.0713732 0.0132188)
(-0.0591774 0.0481145 0.0143996)
(-0.102808 0.0284301 0.00546723)
(-0.132838 0.0193114 0.008005)
(-0.155216 0.00490947 0.00878432)
(-0.176264 -0.00702896 0.012686)
(-0.197357 -0.0189705 0.0130004)
(-0.234963 -0.0367496 0.0107144)
(-0.284124 -0.0616755 0.00871074)
(-0.347531 -0.0939268 0.0032586)
(-0.41741 -0.166544 0.000785621)
(-0.423566 -0.297328 -0.00254439)
(-0.378204 -0.437535 -0.017987)
(-0.328467 -0.563441 -0.0351411)
(-0.246121 -0.625835 -0.0674307)
(-0.129521 -0.560491 -0.0761459)
(-0.017019 -0.287877 -0.0746159)
(0.019805 0.00330431 -0.00734453)
(0.00216206 0.289294 0.0007311)
(0.0404907 0.510909 -0.0312316)
(0.113377 0.631299 -0.0394695)
(0.190775 0.681601 -0.0341367)
(0.256645 0.681907 -0.0192147)
(0.30403 0.656603 -0.011941)
(0.349661 0.624185 -0.00159437)
(0.387846 0.580864 0.00110688)
(0.386621 0.540159 0.00171421)
(0.354409 0.501664 0.00285053)
(0.312205 0.460663 0.00361215)
(0.264484 0.417195 0.00450202)
(0.218433 0.369905 0.00608706)
(0.178693 0.323837 0.00762456)
(0.147148 0.279586 0.0087126)
(0.121483 0.241268 0.00943731)
(0.0963992 0.206422 0.0099957)
(0.074656 0.174489 0.0102251)
(0.0520575 0.150355 0.00982729)
(0.0279913 0.125542 0.00421277)
(0.00901397 0.104605 0.00895244)
(-0.00683534 0.0786076 0.0106333)
(-0.0191372 0.0562469 0.0122478)
(-0.045488 0.0301311 0.0103162)
(-0.0807995 0.0158886 0.00845602)
(-0.108745 0.00389387 0.00934707)
(-0.126808 -0.00730635 0.0121467)
(-0.14156 -0.0173866 0.0134197)
(-0.16256 -0.0312207 0.015064)
(-0.192064 -0.0501553 0.0152979)
(-0.236966 -0.0721512 0.0135904)
(-0.287521 -0.105374 0.0126725)
(-0.340561 -0.144273 0.00682975)
(-0.382645 -0.197207 -0.00115038)
(-0.390086 -0.295171 -0.0106277)
(-0.374654 -0.421329 -0.0200688)
(-0.303278 -0.522039 -0.0340178)
(-0.18477 -0.516085 -0.0575164)
(-0.0244917 -0.301465 -0.0573013)
(0.0451771 0.0512638 -0.0275109)
(0.0058726 0.275944 0.00488398)
(0.0445122 0.484087 -0.0241515)
(0.112014 0.607266 -0.0323993)
(0.186159 0.662803 -0.0297776)
(0.250818 0.669781 -0.013512)
(0.300149 0.645638 -0.0080592)
(0.344047 0.610462 0.000730451)
(0.377936 0.564167 0.00368586)
(0.380096 0.514522 0.00396963)
(0.351053 0.47253 0.00526835)
(0.30885 0.429838 0.00633965)
(0.260506 0.38566 0.00799438)
(0.214681 0.339649 0.0110816)
(0.177672 0.296129 0.0145533)
(0.149098 0.256192 0.0172078)
(0.125914 0.219823 0.0179977)
(0.105952 0.186046 0.0179343)
(0.0856783 0.156666 0.0166179)
(0.065687 0.12833 0.0153225)
(0.0449901 0.107565 0.0147314)
(0.0232184 0.0856371 0.00851395)
(0.00547385 0.0639674 0.0104155)
(-0.0108695 0.0402419 0.0115752)
(-0.0308972 0.0180997 0.00998582)
(-0.0587899 0.00232215 0.00860626)
(-0.0825423 -0.00695486 0.0110129)
(-0.0975682 -0.0158678 0.011092)
(-0.11286 -0.0281365 0.0126043)
(-0.129954 -0.043396 0.0142833)
(-0.15653 -0.0628058 0.0157542)
(-0.192265 -0.0872973 0.0173667)
(-0.235331 -0.117764 0.0173972)
(-0.282894 -0.160807 0.0181727)
(-0.311674 -0.219122 0.0177098)
(-0.329457 -0.299746 0.0121113)
(-0.343497 -0.414976 0.00312395)
(-0.31893 -0.507434 -0.0138745)
(-0.228116 -0.528667 -0.0375386)
(-0.0688989 -0.324381 -0.0491342)
(0.0225785 0.0545746 -0.0128274)
(0.0101076 0.251047 0.00205172)
(0.0490371 0.435828 -0.0193727)
(0.110412 0.564736 -0.026955)
(0.183256 0.623802 -0.0256361)
(0.246503 0.637645 -0.013548)
(0.295474 0.6166 -0.00565333)
(0.33952 0.580527 0.00189084)
(0.368652 0.53549 0.00525024)
(0.371637 0.48353 0.0059058)
(0.346654 0.438147 0.00694889)
(0.30429 0.393523 0.00867453)
(0.256438 0.350012 0.0117997)
(0.214046 0.30771 0.0164025)
(0.181935 0.26873 0.0198423)
(0.15744 0.232723 0.0187785)
(0.136539 0.197908 0.0174503)
(0.116251 0.164207 0.016195)
(0.0971011 0.125415 0.0146763)
(0.0798334 0.0931995 0.0133657)
(0.0588659 0.0786016 0.0111592)
(0.0361187 0.0650229 0.0131001)
(0.0164321 0.0487789 0.00901041)
(0.00261793 0.0286074 0.0132745)
(-0.0157226 0.00883742 0.0094145)
(-0.0370119 -0.00621734 0.0105325)
(-0.0554816 -0.0140681 0.0102176)
(-0.0721182 -0.025269 0.0111147)