/*--------------------------------*- C++ -*----------------------------------*\
| =========                 |                                                 |
| \\      /  F ield         | OpenFOAM: The Open Source CFD Toolbox           |
|  \\    /   O peration     | Version:  v1806                                 |
|   \\  /    A nd           | Web:      www.OpenFOAM.com                      |
|    \\/     M anipulation  |                                                 |
\*---------------------------------------------------------------------------*/
FoamFile
{
    version     2.0;
    format      ascii;
    class       surfaceScalarField;
    location    "0.009";
    object      phi;
}
// * * * * * * * * * * * * * * * * * * * * * * * * * * * * * * * * * * * * * //

dimensions      [0 3 -1 0 0 0 0];
oriented        oriented;


internalField   nonuniform List<scalar> 
187200
(
9.15943e-06
-2.27581e-06
-6.88261e-06
3.22939e-05
-1.02672e-05
-1.28672e-05
5.39285e-05
-9.40739e-06
-1.22272e-05
7.16748e-05
-7.20229e-06
-1.05441e-05
8.55476e-05
-4.36681e-06
-9.50594e-06
9.75302e-05
-1.82765e-06
-1.0155e-05
0.000109386
-2.05804e-07
-1.16498e-05
0.00012055
2.18582e-06
-1.33498e-05
0.000128749
6.37695e-06
-1.4576e-05
0.00013388
1.08739e-05
-1.6005e-05
0.000133924
1.63173e-05
-1.63614e-05
0.000126065
2.25833e-05
-1.47241e-05
0.000105212
2.89249e-05
-8.07197e-06
7.21939e-05
3.22331e-05
7.84594e-07
2.64872e-05
3.40546e-05
1.1652e-05
-3.19548e-05
4.55811e-05
1.28607e-05
-0.000105046
6.09087e-05
1.21827e-05
-0.000197506
8.03098e-05
1.21494e-05
-0.00030851
0.000107048
3.95693e-06
-0.000432513
0.000144697
-2.06948e-05
-0.000541586
0.000179463
-7.03898e-05
-0.000618883
0.000219955
-0.000142658
-0.00067106
0.000264529
-0.000212352
-0.000695149
0.000310003
-0.000285914
-0.00068224
0.000350552
-0.000363462
-0.000627949
0.000381212
-0.000435503
-0.000534634
0.000400966
-0.000494281
-0.000408557
0.00040633
-0.000532407
-0.000253822
0.000390728
-0.000545463
-9.40483e-05
0.000361545
-0.000521319
2.57731e-05
0.000326277
-0.000446098
0.000101173
0.000281767
-0.000357167
0.000118897
0.000224492
-0.000242216
0.000104002
0.000168286
-0.000153391
7.7025e-05
0.000117559
-9.05816e-05
5.28988e-05
7.89694e-05
-5.48428e-05
3.18547e-05
5.45448e-05
-3.35005e-05
1.49955e-05
4.04255e-05
-2.35663e-05
3.26391e-06
3.0647e-05
-1.89156e-05
1.79846e-05
-1.47206e-05
1.67433e-05
-9.83971e-06
-9.17945e-06
5.22714e-05
-2.48809e-05
-2.09144e-05
8.80024e-05
-2.115e-05
-2.39885e-05
0.000116461
-1.05915e-05
-2.50698e-05
0.000136651
2.49567e-06
-2.70519e-05
0.000149102
1.68898e-05
-3.11689e-05
0.000154974
3.1616e-05
-3.7694e-05
0.000153478
4.97788e-05
-4.60973e-05
0.000142039
7.16966e-05
-5.38799e-05
0.000119482
9.62321e-05
-6.2802e-05
7.98125e-05
0.000131024
-7.50372e-05
1.6423e-05
0.000168063
-8.20904e-05
-7.74721e-05
0.000213842
-9.10215e-05
-0.000208002
0.000269191
-0.000106428
-0.000378674
0.000334784
-0.000130058
-0.000564028
0.000399038
-0.000168103
-0.00075547
0.000470358
-0.000218008
-0.00094426
0.000549799
-0.000280698
-0.00111731
0.000635733
-0.000355639
-0.00125769
0.000726564
-0.000441488
-0.00136295
0.000821699
-0.000536971
-0.00142522
0.000917128
-0.000634907
-0.0014383
0.00100626
-0.000728647
-0.00139453
0.00107797
-0.000811744
-0.00129391
0.0011336
-0.000883665
-0.00114061
0.00116606
-0.000938156
-0.000942568
0.0011711
-0.000968173
-0.000714911
0.00114477
-0.000966095
-0.00048316
0.00108541
-0.000926432
-0.000270197
0.000995848
-0.000847266
-7.48902e-05
0.000869016
-0.000738046
7.47971e-05
0.000730128
-0.000598048
0.000154397
0.000588205
-0.000443313
0.000183526
0.000456754
-0.000317597
0.000166341
0.000346308
-0.000211564
0.000129813
0.000257696
-0.000142199
9.05162e-05
0.000193302
-9.94601e-05
5.50312e-05
0.000150378
-7.44679e-05
2.17961e-05
0.000115975
-5.2093e-05
7.04584e-05
-3.06776e-05
2.06846e-05
-1.65087e-05
-1.40156e-05
6.11689e-05
-3.33325e-05
-3.20327e-05
0.000101179
-2.15899e-05
-3.95702e-05
0.000129968
4.28161e-06
-4.36622e-05
0.000144917
3.55436e-05
-4.79969e-05
0.000148296
7.05756e-05
-5.7065e-05
0.000139458
0.000111699
-7.12449e-05
0.00011731
0.000159632
-8.77059e-05
8.51854e-05
0.000214747
-0.000110926
2.21971e-05
0.000284581
-0.000125361
-7.03603e-05
0.000364763
-0.000141182
-0.000203542
0.000458671
-0.000157426
-0.000368687
0.000558305
-0.000179319
-0.000552477
0.000661008
-0.000208026
-0.000743913
0.000768746
-0.000242526
-0.000940636
0.000880972
-0.000285211
-0.00113116
0.000996032
-0.000335152
-0.00130338
0.0011131
-0.000391081
-0.00144758
0.00122963
-0.000449698
-0.00155653
0.0013435
-0.000507985
-0.00162524
0.00145282
-0.000562413
-0.00164889
0.00155382
-0.000613036
-0.00162954
0.00163851
-0.000651598
-0.00156531
0.00169495
-0.000681212
-0.00145535
0.00172358
-0.000699939
-0.00130526
0.0017209
-0.000704921
-0.00112309
0.00168285
-0.000693912
-0.00091988
0.00160698
-0.000665429
-0.000708824
0.00149449
-0.000620133
-0.000503397
0.00134973
-0.000559305
-0.000327784
0.00118288
-0.000489474
-0.000182664
0.00100135
-0.000416336
-7.24087e-05
0.000817046
-0.000339096
5.88343e-07
0.000649401
-0.000265644
3.68067e-05
0.000506414
-0.000196324
5.04578e-05
0.000397919
-0.000153874
4.85982e-05
0.000317015
-0.000121853
3.81174e-05
0.000259517
-9.86577e-05
1.79832e-05
0.000203662
-6.75528e-05
0.000119908
-3.1466e-05
2.20862e-05
-1.62443e-05
-2.23506e-05
6.55976e-05
-2.73679e-05
-4.9476e-05
0.000106044
1.24857e-07
-6.21609e-05
0.000129563
4.83514e-05
-6.75886e-05
0.000135704
0.000103048
-7.36459e-05
0.000125057
0.000170578
-8.93551e-05
0.000101647
0.000247287
-0.000112177
6.49681e-05
0.000334513
-0.000138202
-2.39485e-06
0.000440822
-0.000158713
-9.92003e-05
0.000555929
-0.000174542
-0.000231215
0.000683254
-0.000186476
-0.000381557
0.000811342
-0.000202329
-0.000545388
0.000942017
-0.000219882
-0.00071787
0.0010716
-0.000238111
-0.000891388
0.00119828
-0.000256015
-0.00105776
0.00132129
-0.000273943
-0.00120969
0.00143928
-0.000291324
-0.00134046
0.00155075
-0.000306876
-0.00144492
0.00165248
-0.000318397
-0.00152042
0.00174344
-0.000324439
-0.00156401
0.00182252
-0.000326114
-0.00157438
0.0018862
-0.000322017
-0.0015545
0.00192881
-0.000310175
-0.0015041
0.00194029
-0.00029573
-0.00142409
0.00192239
-0.000278828
-0.00131731
0.00187523
-0.000261113
-0.00118866
0.00179698
-0.000242783
-0.00104333
0.00168624
-0.000224582
-0.000885981
0.00154588
-0.000208745
-0.000725549
0.00138485
-0.000195556
-0.000566276
0.0012143
-0.000190699
-0.000415842
0.00103859
-0.000187679
-0.000286132
0.000872352
-0.000185016
-0.000180435
0.000721748
-0.000178043
-0.000103628
0.000592665
-0.000163058
-4.68357e-05
0.000489358
-0.000148232
-8.63224e-06
0.000408883
-0.000130072
1.32587e-05
0.000347441
-0.000109815
1.22894e-05
0.000279573
-7.49409e-05
0.000161487
-2.92898e-05
2.4565e-05
-3.41259e-06
-3.73966e-05
7.23964e-05
4.19637e-06
-7.93957e-05
0.000113199
5.50321e-05
-9.57098e-05
0.000133367
0.000124736
-9.65523e-05
0.00012885
0.000211597
-0.000104032
0.00011029
0.000313573
-0.000124436
8.05783e-05
0.00042799
-0.000150991
2.63723e-05
0.000559664
-0.000170945
-5.22685e-05
0.000703589
-0.000184126
-0.000161209
0.000853831
-0.000188962
-0.00028769
0.00100015
-0.000190411
-0.000423833
0.00113869
-0.000191209
-0.000564336
0.00127232
-0.000189802
-0.000705033
0.00139711
-0.000184812
-0.000843068
0.0015132
-0.000176889
-0.000972526
0.00161508
-0.000164332
-0.0010889
0.001701
-0.000145347
-0.00118745
0.00176968
-0.000120372
-0.00126625
0.00182271
-9.14266e-05
-0.00132595
0.00186461
-6.14708e-05
-0.00136544
0.00189368
-3.16642e-05
-0.00138199
0.00190543
-2.68369e-06
-0.00137696
0.00189729
2.64762e-05
-0.00135559
0.00186592
5.29982e-05
-0.00132096
0.00181507
7.26937e-05
-0.00127175
0.00174454
8.14733e-05
-0.00120833
0.00165401
7.95589e-05
-0.00113152
0.0015447
6.4728e-05
-0.00103699
0.00141791
3.34487e-05
-0.00092667
0.00127487
-3.44364e-07
-0.000797775
0.00112634
-4.09268e-05
-0.000660244
0.000980896
-7.98367e-05
-0.00051411
0.000845953
-0.000119735
-0.000372399
0.000724135
-0.000144098
-0.000244718
0.000621636
-0.000156653
-0.000139665
0.000539766
-0.000155461
-6.36291e-05
0.000474806
-0.000141958
-1.47936e-05
0.000417542
-0.000118936
4.22121e-06
0.000339785
-7.92269e-05
0.000193235
-2.75273e-05
2.82401e-05
3.09887e-05
-6.26414e-05
8.28099e-05
6.99913e-05
-0.000120365
0.000130557
0.000141944
-0.000134658
0.000145977
0.000237722
-0.000128407
0.000139393
0.000353737
-0.000135556
0.000121974
0.00048717
-0.000156177
8.93349e-05
0.00063543
-0.000174801
3.66725e-05
0.000793317
-0.000180991
-3.37899e-05
0.000954509
-0.000180458
-0.000120764
0.00111176
-0.000170952
-0.000225354
0.00126098
-0.000156244
-0.000344826
0.0013954
-0.000137234
-0.00046548
0.00150925
-0.00011627
-0.000577746
0.0015962
-8.68263e-05
-0.00068679
0.00166881
-4.65662e-05
-0.000785945
0.00172101
-6.78244e-06
-0.000877788
0.00175318
3.96625e-05
-0.000960265
0.00177122
8.09306e-05
-0.00103129
0.00177792
0.000115808
-0.00108981
0.00176857
0.000154559
-0.00113233
0.00174356
0.00019264
-0.00115982
0.00170638
0.00022654
-0.00118111
0.00166444
0.000254152
-0.00119871
0.00161575
0.000267767
-0.00121408
0.00155841
0.000272019
-0.00122331
0.00148976
0.000264024
-0.00122053
0.0014094
0.000241827
-0.00120104
0.00132067
0.000204532
-0.00116183
0.00122528
0.00015342
-0.00109657
0.00112369
8.59241e-05
-0.000996921
0.00101568
1.1001e-05
-0.000872224
0.000907271
-5.10722e-05
-0.00072369
0.00080288
-0.000105461
-0.00055511
0.000711311
-0.000155757
-0.000388002
0.000633254
-0.000178725
-0.000238918
0.000572616
-0.000181934
-0.000120292
0.000521475
-0.000165295
-3.85675e-05
0.000470384
-0.000134566
-5.85576e-07
0.000389439
-8.76358e-05
0.000221383
-2.87326e-05
3.21841e-05
9.2403e-05
-9.35985e-05
0.000103696
0.000164111
-0.000165632
0.000161231
0.00025913
-0.000174721
0.000178179
0.000380188
-0.000159414
0.000175308
0.00051936
-0.000162752
0.000165341
0.000672675
-0.000175538
0.000141379
0.00083915
-0.000179757
9.73296e-05
0.00100661
-0.000169242
3.88042e-05
0.0011639
-0.00015087
-3.1733e-05
0.00130942
-0.000127121
-0.000108684
0.00143614
-9.82099e-05
-0.000186296
0.00153919
-6.61781e-05
-0.000273976
0.00161623
-1.9305e-05
-0.00038337
0.00166901
3.65862e-05
-0.000486588
0.00168904
8.29864e-05
-0.000575998
0.00168942
0.000120999
-0.000659671
0.00167018
0.000166678
-0.000738438
0.00163653
0.000213459
-0.000808519
0.00159222
0.000255787
-0.000867748
0.0015381
0.000289704
-0.000918837
0.00147977
0.000314882
-0.000971232
0.00142672
0.000332055
-0.00102691
0.00137846
0.000341653
-0.00108382
0.00133316
0.000339509
-0.00114159
0.00128898
0.000327189
-0.00119728
0.00124106
0.000304396
-0.00124271
0.00118472
0.000270102
-0.00126734
0.00112382
0.000221479
-0.00126891
0.0010606
0.000166248
-0.00124123
0.000993025
0.000102988
-0.00116869
0.000919836
2.33035e-05
-0.00105509
0.000839131
-4.54574e-05
-0.000905364
0.000760815
-0.000107661
-0.000722258
0.000691604
-0.000163399
-0.000521543
0.000638158
-0.000205619
-0.000331944
0.000596413
-0.000213396
-0.00017482
0.000559868
-0.000195517
-6.40274e-05
0.000515986
-0.000156395
-6.44881e-06
0.000432497
-0.000100637
0.00024728
-3.23464e-05
4.14085e-05
0.000175921
-0.000124926
0.000135582
0.00028017
-0.000210233
0.000207171
0.000402714
-0.000215174
0.000231961
0.000540972
-0.000185575
0.000234185
0.000692829
-0.000175693
0.000230031
0.000854435
-0.000177606
0.000219574
0.00101787
-0.000168266
0.000192738
0.0011763
-0.000142855
0.000146188
0.00131985
-0.000109393
8.74494e-05
0.00143905
-7.08955e-05
2.46576e-05
0.00153192
-3.29894e-05
-4.80809e-05
0.0015954
1.65239e-05
-0.000123426
0.00163123
6.03435e-05
-0.000202645
0.00163766
0.000110568
-0.000296781
0.00161744
0.000165739
-0.000388532
0.0015662
0.000214975
-0.000476091
0.00150211
0.000255631
-0.000558831
0.0014313
0.000287971
-0.000633026
0.00135386
0.000312557
-0.000703006
0.00127955
0.000328525
-0.000776666
0.00121695
0.000336474
-0.000853874
0.00116681
0.000337119
-0.000934703
0.00112759
0.000331694
-0.00101951
0.00109754
0.000320433
-0.00110652
0.00107334
0.000302642
-0.00119253
0.0010484
0.000278671
-0.00126836
0.00101474
0.000245801
-0.00132375
0.000975625
0.000203591
-0.00135479
0.000933181
0.000158452
-0.00135383
0.000884896
0.000107176
-0.00130922
0.000829138
4.60823e-05
-0.00120856
0.000768584
-3.01124e-05
-0.00106099
0.000707441
-9.41911e-05
-0.000866871
0.000657669
-0.000160184
-0.000644704
0.000625077
-0.000209086
-0.000420249
0.000607158
-0.0002352
-0.000227441
0.000588681
-0.00022162
-8.82707e-05
0.000555371
-0.000178555
-1.27101e-05
0.000473253
-0.000116317
0.000273106
-3.85357e-05
5.83282e-05
0.0002647
-0.000147108
0.000172757
0.000417481
-0.00025174
0.000265759
0.000560914
-0.000251202
0.000304553
0.000706403
-0.000204225
0.000313517
0.000859412
-0.000175547
0.000310026
0.00101641
-0.000158485
0.000302602
0.00116674
-0.000141446
0.000289242
0.00129944
-0.000109777
0.000263434
0.00141314
-6.7483e-05
0.000215693
0.00150671
-1.99147e-05
0.000154251
0.0015661
2.72704e-05
8.30082e-05
0.00159086
7.57899e-05
6.5343e-06
0.00158377
0.00012394
-7.54358e-05
0.00154645
0.000173185
-0.000161902
0.00148427
0.000219642
-0.000259026
0.00140116
0.000262168
-0.00035366
0.00131098
0.000285758
-0.000438067
0.00121733
0.000298378
-0.000519323
0.00113132
0.000303792
-0.000604703
0.00106122
0.000303708
-0.000694641
0.00100774
0.00029915
-0.000788632
0.000970704
0.000290099
-0.000887011
0.000946652
0.000279318
-0.000989168
0.000931817
0.000267881
-0.00109264
0.000921692
0.000255125
-0.00119437
0.000910462
0.000239671
-0.00128734
0.000889085
0.000218627
-0.00136445
0.000861493
0.000191247
-0.00141717
0.000828763
0.00015713
-0.00143798
0.000788012
0.000117693
-0.00141582
0.000735567
7.14162e-05
-0.00133554
0.000677001
1.12978e-05
-0.00119132
0.000625861
-6.26363e-05
-0.000993057
0.000593023
-0.000133617
-0.000754877
0.00058315
-0.000196252
-0.000504415
0.00059043
-0.000233734
-0.000279352
0.000599018
-0.0002354
-0.000112921
0.0005839
-0.00019496
-1.93597e-05
0.000509527
-0.000129835
0.000298772
-4.50261e-05
7.45516e-05
0.000353583
-0.000163434
0.000213191
0.000564233
-0.000285391
0.000331466
0.000723238
-0.000280599
0.000388558
0.00086471
-0.000215399
0.000406619
0.00100732
-0.000165972
0.000403858
0.00114804
-0.000128871
0.000390691
0.00127811
-9.8205e-05
0.00037358
0.00138659
-7.00466e-05
0.000347172
0.00146793
-2.83816e-05
0.000310731
0.00151862
2.45302e-05
0.000262191
0.00154311
7.1526e-05
0.000192046
0.00153815
0.00012285
0.000108951
0.00149712
0.000169742
1.47466e-05
0.00142878
0.000211864
-8.56486e-05
0.00134052
0.000244142
-0.0001833
0.00123191
0.000266895
-0.000273588
0.00112862
0.000272645
-0.000361795
0.00103632
0.000269215
-0.000453474
0.000961049
0.000261949
-0.00054819
0.000903494
0.000252444
-0.000646994
0.000863852
0.000242695
-0.000750046
0.000839343
0.000234412
-0.000856576
0.00082524
0.000227943
-0.000965883
0.000817215
0.000223909
-0.0010765
0.000811107
0.0002212
-0.00118498
0.00080131
0.000217637
-0.00128631
0.000783314
0.000207103
-0.00137906
0.000758392
0.000195841
-0.00145302
0.000725889
0.000176834
-0.00149925
0.00068305
0.0001512
-0.00149966
0.000630567
0.000105402
-0.0014379
0.000579229
3.60179e-05
-0.00130407
0.000534132
-4.2107e-05
-0.00110296
0.000506956
-0.000115045
-0.000852543
0.000507845
-0.000175108
-0.000581706
0.000541025
-0.000221431
-0.000329097
0.000582976
-0.000236567
-0.000136967
0.000595688
-0.000203918
-2.6377e-05
0.00053787
-0.000138932
0.000323317
-5.09224e-05
8.73608e-05
0.000436984
-0.000170762
0.000252197
0.000708598
-0.000309201
0.00039701
0.000879916
-0.000301491
0.000474298
0.00101017
-0.000222744
0.000502635
0.00113111
-0.000152128
0.000502876
0.00124728
-9.94781e-05
0.000486106
0.00135128
-5.63949e-05
0.000459929
0.00143267
-1.9898e-05
0.000424788
0.0014861
1.69649e-05
0.000378064
0.00150695
5.8388e-05
0.000319014
0.00149892
0.000103235
0.000246333
0.00146024
0.000150595
0.000158294
0.00139246
0.000192696
6.14669e-05
0.00130021
0.0002254
-3.41187e-05
0.00119346
0.000242648
-0.000127871
0.00107995
0.00024571
-0.000222409
0.000985077
0.000238086
-0.000317196
0.000904825
0.000226284
-0.000412203
0.000842712
0.000213345
-0.000509565
0.000798343
0.000202513
-0.000609906
0.000768318
0.000195875
-0.000713363
0.000748565
0.000194235
-0.000819017
0.000734956
0.000195938
-0.000926833
0.000724253
0.000200778
-0.00103647
0.000712845
0.000207896
-0.00114686
0.000696735
0.000214971
-0.00125618
0.000675911
0.000216724
-0.00136186
0.000648302
0.000215767
-0.0014569
0.000611391
0.000209536
-0.00152521
0.000567997
0.000183359
-0.00154951
0.000524572
0.000130294
-0.00151641
0.000486175
5.99601e-05
-0.00140486
0.000451962
-2.93871e-05
-0.00121187
0.000424284
-0.000110313
-0.000950538
0.000419575
-0.000173063
-0.000656861
0.000456309
-0.000208961
-0.000378678
0.000529764
-0.000224971
-0.000160251
0.000584943
-0.000207681
-3.36291e-05
0.000554756
-0.000143508
0.000345399
-5.5711e-05
9.76981e-05
0.00050713
-0.000167844
0.000287476
0.000839646
-0.000320827
0.000458042
0.00102162
-0.00031227
0.000553904
0.00113855
-0.000224244
0.000593154
0.00123415
-0.000142284
0.000596115
0.00131879
-7.44697e-05
0.000578204
0.00139065
-2.14596e-05
0.00054617
0.00144462
2.00791e-05
0.00050142
0.00147362
5.72325e-05
0.000445
0.00147181
9.15668e-05
0.000380465
0.00143893
0.000124531
0.000299709
0.00137585
0.000165143
0.000204261
0.00128719
0.000200717
0.000102204
0.00117961
0.000222662
3.83565e-06
0.00106776
0.000224068
-9.84578e-05
0.000964721
0.000217526
-0.000190319
0.000876361
0.000200577
-0.000283432
0.000811787
0.000186151
-0.00037657
0.000761423
0.000174427
-0.000470928
0.000724581
0.000168121
-0.000566605
0.000696176
0.000167819
-0.00066412
0.000672975
0.000173105
-0.000762886
0.000652691
0.000181032
-0.000863469
0.000633161
0.000191675
-0.000967644
0.00061243
0.000204591
-0.00107511
0.000589448
0.000214748
-0.00119009
0.00056288
0.000228011
-0.00130858
0.000531042
0.000235758
-0.00142365
0.000494139
0.00023232
-0.00151597
0.000456813
0.000203502
-0.00157021
0.000422814
0.000155993
-0.00157019
0.000386531
9.96276e-05
-0.00148981
0.000348845
2.27377e-05
-0.0013123
0.000319255
-7.24851e-05
-0.00105084
0.000313832
-0.000155711
-0.000735019
0.000354064
-0.000213581
-0.00042562
0.000442071
-0.000221706
-0.000182907
0.000542983
-0.000200753
-4.06749e-05
0.000556621
-0.000144097
0.000364098
-5.93738e-05
0.000105563
0.000558124
-0.000156557
0.000316783
0.000948448
-0.000320021
0.000511493
0.00114127
-0.000314359
0.000624835
0.00124442
-0.00021921
0.000672979
0.00131465
-0.000128648
0.000678283
0.0013699
-5.64115e-05
0.000659982
0.00141129
-2.34406e-06
0.000622473
0.00143605
4.60838e-05
0.000571399
0.00143873
8.59612e-05
0.000508049
0.00141699
0.000118164
0.000435012
0.00136601
0.000145952
0.000350227
0.0012888
0.000171831
0.000248361
0.00118885
0.000200206
0.000137129
0.00107871
0.000212129
3.29856e-05
0.000967248
0.000204652
-6.95377e-05
0.00087813
0.000189115
-0.000161116
0.000797833
0.000170107
-0.000248935
0.000742933
0.000156673
-0.00033628
0.00069859
0.000150178
-0.000423346
0.000662006
0.00014964
-0.000510591
0.000628855
0.000154566
-0.000598327
0.000597499
0.000163212
-0.00068621
0.000567371
0.000173203
-0.000776305
0.00053772
0.000185536
-0.000872223
0.000507524
0.000200824
-0.00097615
0.0004778
0.000215575
-0.00109248
0.00044742
0.000231791
-0.00122007
0.000416516
0.000242118
-0.00134826
0.000381391
0.000240935
-0.00146162
0.000341743
0.000228429
-0.00154849
0.000306389
0.000203296
-0.00159086
0.000271168
0.000157727
-0.00154966
0.000215059
9.25865e-05
-0.00140112
0.000166656
4.0631e-06
-0.00114697
0.000156425
-9.67457e-05
-0.000823991
0.000221658
-0.000190571
-0.00047934
0.000328522
-0.000231102
-0.000205885
0.000472125
-0.000202597
-4.68075e-05
0.000541595
-0.000144053
0.000380129
-6.28382e-05
0.000110484
0.000587761
-0.000140121
0.000338605
0.00103032
-0.000309988
0.000554547
0.00123474
-0.000309412
0.000684767
0.00132528
-0.00021108
0.000740968
0.00137204
-0.000113593
0.000747556
0.00140003
-3.67245e-05
0.000728246
0.00141433
1.62721e-05
0.00068714
0.00141365
6.35068e-05
0.000631862
0.00139472
9.92912e-05
0.000562568
0.0013542
0.000132087
0.000481461
0.00128854
0.000158579
0.000389843
0.00120214
0.000178275
0.000283589
0.0011004
0.000194705
0.000169721
0.000993208
0.00019937
6.18017e-05
0.000889089
0.000186079
-3.53365e-05
0.000808478
0.00016679
-0.000126491
0.000738556
0.000150432
-0.000207645
0.000685011
0.000139076
-0.000287835
0.000641222
0.000137559
-0.000366163
0.000599541
0.000140792
-0.000443572
0.000558873
0.000147391
-0.000520292
0.000518949
0.00015527
-0.000596475
0.000480076
0.000163478
-0.000675713
0.000442476
0.000174481
-0.000761649
0.000406358
0.000187101
-0.00085888
0.000371794
0.000203238
-0.00096966
0.000338036
0.000220164
-0.00109536
0.000305152
0.000237059
-0.00122884
0.000266649
0.000248227
-0.00136071
0.000220217
0.000253396
-0.00148177
0.000184596
0.000242855
-0.00155858
0.000134959
0.000213021
-0.00156144
6.40493e-05
0.000153862
-0.00146523
2.23706e-06
6.82106e-05
-0.0012476
-2.65894e-05
-3.4611e-05
-0.000913278
2.10338e-05
-0.0001337
-0.000550095
0.000175526
-0.000210187
-0.000230947
0.000364616
-0.00021164
-5.33074e-05
0.000504598
-0.000140643
0.000391962
-6.51403e-05
0.000112301
0.000596278
-0.000120818
0.000351871
0.00108225
-0.000291506
0.000585057
0.00129973
-0.000298172
0.000731285
0.0013818
-0.00020275
0.00079664
0.00140786
-0.000101175
0.000805844
0.00141049
-1.96578e-05
0.000783701
0.00140004
3.64308e-05
0.000739493
0.00137802
7.98334e-05
0.0006812
0.00134169
0.000111323
0.000607878
0.00128819
0.000139329
0.000518228
0.00121497
0.000163223
0.000418634
0.00112478
0.000176957
0.000313597
0.00102253
0.000182912
0.000203114
0.00091893
0.000184762
9.43808e-05
0.000823933
0.000173888
2.62262e-06
0.00074782
0.000152417
-8.51802e-05
0.000687528
0.00013883
-0.000161057
0.000631097
0.000129791
-0.000233735
0.000583222
0.000130678
-0.000303764
0.00053476
0.000134811
-0.000372015
0.000487388
0.000139735
-0.000438456
0.000441122
0.000144267
-0.000504043
0.000396547
0.000149116
-0.000572938
0.000354112
0.00015726
-0.000648518
0.000314491
0.000167447
-0.000735575
0.000277048
0.000181802
-0.000835991
0.000239472
0.000198979
-0.000951343
0.000199862
0.000220642
-0.00108362
0.000156101
0.000242825
-0.00122458
0.000102156
0.00025902
-0.00136441
6.08016e-05
0.000263626
-0.0014752
-1.3822e-06
0.000247126
-0.00152851
-8.44211e-05
0.000201781
-0.001482
-0.00017006
0.000125792
-0.00131311
-0.000228524
3.3044e-05
-0.0010079
-0.000200239
-8.39345e-05
-0.000619969
-4.62341e-05
-0.000166175
-0.000275696
0.000223723
-0.00020338
-6.10789e-05
0.00042969
-0.000139709
0.000395606
-6.47239e-05
0.000109796
0.000587598
-0.000101116
0.000356799
0.0011061
-0.000270855
0.000604731
0.00133587
-0.000284075
0.00076589
0.00141237
-0.000191733
0.000839793
0.00142128
-8.73268e-05
0.000851543
0.00140309
-4.34777e-06
0.000827422
0.00137273
5.14324e-05
0.000781639
0.0013337
9.01047e-05
0.000720127
0.00128518
0.00011802
0.000641225
0.00122299
0.000144102
0.000547999
0.00114543
0.000162763
0.000445473
0.00105299
0.000174322
0.000340689
0.000953676
0.000173636
0.000236522
0.000855417
0.00016768
0.000131809
0.000767515
0.000161131
3.88572e-05
0.000694212
0.00014656
-4.18857e-05
0.000635644
0.000132627
-0.000112527
0.000576668
0.00012507
-0.000177805
0.000523284
0.000125215
-0.000241343
0.000470334
0.000127964
-0.000302493
0.000419064
0.000129474
-0.00036123
0.000369583
0.000130276
-0.000418903
0.000322371
0.000131849
-0.000479132
0.000277398
0.000136943
-0.000544683
0.000235503
0.000144539
-0.000619765
0.000195343
0.000156788
-0.000708388
0.000153223
0.000174871
-0.000809891
0.000105093
0.000196272
-0.000926253
5.19327e-05
0.000220531
-0.001072
4.53261e-06
0.00024337
-0.00121973
-5.05423e-05
0.000259075
-0.00135366
-0.000127713
0.000260259
-0.00144526
-0.000228345
0.000235528
-0.00145252
-0.000340534
0.000177731
-0.00134221
-0.000433244
9.44076e-05
-0.00108574
-0.000447775
-8.93709e-06
-0.000693362
-0.000318477
-0.000120131
-0.000321502
2.07824e-05
-0.00016892
-6.67408e-05
0.000328922
-0.000153993
0.000392046
-6.3181e-05
0.000103317
0.000564927
-8.06469e-05
0.000353958
0.0011037
-0.000248241
0.000613459
0.00134613
-0.000269764
0.000788777
0.00142094
-0.000183881
0.000872256
0.00141686
-7.90521e-05
0.000887823
0.00138116
6.36029e-06
0.000862502
0.00133405
6.39983e-05
0.000812936
0.00128155
0.000101724
0.000747513
0.00122464
0.000125965
0.000667717
0.00115726
0.000145524
0.000573944
0.00107668
0.000162526
0.000472224
0.000985951
0.000168754
0.000367958
0.000890773
0.000167169
0.000268214
0.000798068
0.000157093
0.000173424
0.000715304
0.000147002
8.37889e-05
0.00064306
0.000140787
6.28586e-06
0.000583223
0.000129924
-6.28782e-05
0.000523205
0.000122627
-0.000123898
0.000464445
0.000119858
-0.000183487
0.000410314
0.000119609
-0.000239832
0.000357541
0.000117867
-0.000293434
0.00030726
0.000115924
-0.000345775
0.000259443
0.000115269
-0.000399226
0.000213666
0.000117183
-0.00045669
0.000169611
0.000123355
-0.000521363
0.000126916
0.0001331
-0.000597805
8.16566e-05
0.000148009
-0.000684577
2.53484e-05
0.000166516
-0.000791153
-2.95021e-05
0.000188011
-0.000923461
-7.84133e-05
0.000215254
-0.00106456
-0.000150161
0.000240717
-0.00120492
-0.000242872
0.000255525
-0.00132443
-0.000356175
0.00024733
-0.00137973
-0.000492303
0.000207077
-0.00132425
-0.000622404
0.000133677
-0.00112904
-0.000684892
4.19074e-05
-0.000773638
-0.00060611
-6.77688e-05
-0.000357041
-0.000262179
-0.000133635
-7.95985e-05
0.000195853
-0.000144373
0.000359497
-4.70489e-05
9.50932e-05
0.000530673
-6.08386e-05
0.000345165
0.00107547
-0.000221843
0.000612133
0.00133177
-0.000252601
0.000800578
0.00141027
-0.000177782
0.000894546
0.00139786
-7.49715e-05
0.000915133
0.00134794
1.26332e-05
0.000889677
0.00128763
7.18845e-05
0.000836803
0.00122459
0.000109831
0.000769503
0.00116023
0.000131714
0.000690057
0.00108969
0.000147017
0.000599052
0.0010091
0.000158586
0.000499189
0.000920732
0.000165082
0.000396478
0.000829904
0.00016358
0.000300499
0.000744125
0.000149922
0.000211776
0.000664192
0.000139836
0.000128569
0.000593964
0.000132303
5.46458e-05
0.000530164
0.000126983
-1.39073e-05
0.000472017
0.000119742
-7.50876e-05
0.000411181
0.000114444
-0.000131693
0.000355961
0.000110959
-0.000185025
0.000303788
0.000107085
-0.000235538
0.000254332
0.000103441
-0.00028433
0.000207226
0.000101008
-0.000333665
0.00016136
0.000101641
-0.00038629
0.000115708
0.000106528
-0.000444286
7.16335e-05
0.000113278
-0.000507591
2.10044e-05
0.000123958
-0.000582638
-3.91468e-05
0.000139542
-0.000677385
-9.49385e-05
0.000160183
-0.000786251
-0.000152995
0.000183448
-0.000918521
-0.000229097
0.000211206
-0.0010578
-0.000336884
0.000233291
-0.00118846
-0.000466465
0.000240949
-0.00127813
-0.000623363
0.000220733
-0.00127587
-0.000790065
0.000165397
-0.00113595
-0.000909569
8.47534e-05
-0.000840844
-0.000888411
-1.28015e-05
-0.000407198
-0.000602821
-9.30049e-05
-7.59608e-05
-2.72801e-05
-0.000108104
0.000298907
-1.53707e-05
8.61753e-05
0.000483411
-3.89137e-05
0.000330603
0.001025
-0.000193955
0.000601166
0.00129408
-0.000232872
0.000801218
0.00137999
-0.000169763
0.000906165
0.00136475
-7.18395e-05
0.000933626
0.00130544
1.50391e-05
0.000910286
0.00123509
7.58774e-05
0.000857241
0.00116393
0.000113703
0.000789628
0.00109273
0.000135105
0.000710983
0.00101992
0.000148418
0.00062248
0.000941403
0.000156197
0.000526722
0.000857402
0.000159088
0.000428982
0.000771496
0.000156148
0.00033441
0.0006893
0.000149396
0.000249332
0.000614192
0.000135079
0.000170924
0.000544771
0.0001276
9.79499e-05
0.000480983
0.000122155
3.25117e-05
0.000421671
0.000115784
-2.94348e-05
0.000364074
0.000109053
-8.44502e-05
0.000307661
0.000103314
-0.000136566
0.000257638
9.8266e-05
-0.000185462
0.000209562
9.36651e-05
-0.000232334
0.000163728
9.03687e-05
-0.000280058
0.000118359
9.07251e-05
-0.000329339
7.21482e-05
9.28412e-05
-0.000379626
2.53837e-05
9.65364e-05
-0.000431556
-3.15633e-05
0.000104498
-0.000499633
-8.76531e-05
0.000116583
-0.000581189
-0.000146553
0.00013317
-0.000675486
-0.000214155
0.000155456
-0.000789011
-0.000296902
0.00018133
-0.000922508
-0.000410588
0.000207201
-0.00105615
-0.000557224
0.000224403
-0.00116697
-0.000735254
0.000222707
-0.00120778
-0.000937448
0.000188192
-0.00111915
-0.00111676
0.000118565
-0.000867828
-0.00116943
2.96946e-05
-0.000470878
-0.000950208
-4.95634e-05
-7.13784e-05
-0.00034118
-8.56003e-05
0.000220075
7.45439e-06
7.86404e-05
0.000422798
-1.80271e-05
0.000312567
0.000956037
-0.000164962
0.000583104
0.00123513
-0.000211594
0.000793443
0.00133158
-0.000161931
0.000910078
0.00131888
-7.07612e-05
0.000944693
0.0012548
1.60271e-05
0.000926555
0.00117673
7.64943e-05
0.000875871
0.00109889
0.000115724
0.000809398
0.00102296
0.000136249
0.000732583
0.00094857
0.000148163
0.000646838
0.000872175
0.000154972
0.000554804
0.000792956
0.000156481
0.000461784
0.000713221
0.000151295
0.000372115
0.000635895
0.000143074
0.000287938
0.000563135
0.000135235
0.000211674
0.000496316
0.000124719
0.000140562
0.00043357
0.000118525
7.62516e-05
0.000374217
0.000111764
1.63913e-05
0.00031938
0.000104554
-4.06254e-05
0.000267665
9.70126e-05
-9.18326e-05
0.000217118
9.17264e-05
-0.000140343
0.000171285
8.67878e-05
-0.00018628
0.000126226
8.34398e-05
-0.00023336
8.25365e-05
8.29021e-05
-0.000280462
3.75243e-05
8.17257e-05
-0.000323492
-1.59892e-05
8.44025e-05
-0.000373558
-7.04176e-05
8.89205e-05
-0.000432632
-0.000126677
9.80973e-05
-0.000501627
-0.000190328
0.00011277
-0.000583684
-0.000264191
0.000132093
-0.000681812
-0.000354439
0.000155666
-0.000802372
-0.000472601
0.000182572
-0.000935809
-0.000629971
0.000206184
-0.00105983
-0.000829394
0.000218158
-0.00113416
-0.001066
0.000202889
-0.00109505
-0.00130545
0.000149583
-0.000891479
-0.00144035
6.73495e-05
-0.000530056
-0.00130055
-1.10772e-05
-0.000104162
-0.000707535
-5.95399e-05
9.24677e-05
2.34445e-05
7.24648e-05
0.000351189
-8.56401e-07
0.000293095
0.000872874
-0.000137467
0.00056001
0.00115866
-0.00019044
0.000778407
0.00126734
-0.00015416
0.000907818
0.00126077
-7.13045e-05
0.000949965
0.00119582
1.68319e-05
0.000939759
0.00111329
7.36451e-05
0.000893755