/*--------------------------------*- C++ -*----------------------------------*\
| =========                 |                                                 |
| \\      /  F ield         | OpenFOAM: The Open Source CFD Toolbox           |
|  \\    /   O peration     | Version:  v1806                                 |
|   \\  /    A nd           | Web:      www.OpenFOAM.com                      |
|    \\/     M anipulation  |                                                 |
\*---------------------------------------------------------------------------*/
FoamFile
{
    version     2.0;
    format      ascii;
    class       volVectorField;
    location    "0.009";
    object      U_0;
}
// * * * * * * * * * * * * * * * * * * * * * * * * * * * * * * * * * * * * * //

dimensions      [0 1 -1 0 0 0 0];


internalField   nonuniform List<vector> 
64000
(
(-0.00115747 -0.00321284 0.00270184)
(0.00465039 -0.0054545 0.00167657)
(0.015416 -0.00548516 0.00195689)
(0.0258304 -0.00505453 0.00212951)
(0.0335199 -0.00442706 0.00252295)
(0.0350385 -0.00422051 0.00290565)
(0.0319799 -0.00413578 0.00320093)
(0.0265319 -0.00405359 0.00345125)
(0.0212643 -0.00382589 0.00350761)
(0.0158357 -0.00373578 0.00334865)
(0.008678 -0.002911 0.00375489)
(-0.00255634 -0.00114303 0.0050431)
(-0.0214178 -0.00183067 0.00593053)
(-0.0487181 -0.00277943 0.00676346)
(-0.0823768 -0.00295514 0.0079832)
(-0.122315 -0.00693727 0.00838403)
(-0.165949 -0.0111538 0.00993955)
(-0.205682 -0.0150959 0.00804304)
(-0.239828 -0.0201273 0.00244243)
(-0.274434 -0.0256249 -0.00523189)
(-0.299682 -0.0256898 -0.0103961)
(-0.289616 -0.0217336 -0.0174926)
(-0.236429 -0.0186356 -0.0305936)
(-0.177805 -0.0177743 -0.0474956)
(-0.139881 -0.0123444 -0.0616808)
(-0.108058 -0.00342398 -0.0714419)
(-0.0737388 0.00647989 -0.0757648)
(-0.0370797 0.0161143 -0.0739406)
(-0.00256482 0.0257247 -0.0650804)
(0.0335346 0.0368345 -0.0477263)
(0.0718195 0.0393694 -0.0338728)
(0.103563 0.0330863 -0.0255873)
(0.120339 0.0215942 -0.013426)
(0.118438 0.0112273 -0.00148342)
(0.102341 0.00372425 0.00556578)
(0.0793266 -0.00178026 0.00798476)
(0.0556949 -0.0043842 0.00821137)
(0.0360371 -0.00466595 0.00748114)
(0.0184306 -0.00393084 0.00712427)
(0.00445661 -0.00316268 0.00657611)
(-0.000772465 -0.0116349 0.00321459)
(0.00904551 -0.0177037 0.00121412)
(0.0272732 -0.0167951 0.000776813)
(0.0431087 -0.0128461 0.000647334)
(0.0539396 -0.00846553 0.000877991)
(0.0564202 -0.00526097 0.000283826)
(0.0526377 -0.00319477 -0.000567245)
(0.0443379 -0.000348674 -0.00162884)
(0.0332075 0.00390244 -0.00237985)
(0.0188923 0.010316 -0.00333376)
(-0.000507074 0.0191924 -0.00085442)
(-0.0323343 0.0283729 -0.00402692)
(-0.0786323 0.0343078 -0.00868215)
(-0.135812 0.0393655 -0.0145875)
(-0.208014 0.0452993 -0.0228247)
(-0.291213 0.05148 -0.0301962)
(-0.375465 0.0607484 -0.0381919)
(-0.455434 0.0730941 -0.0486888)
(-0.526573 0.0861885 -0.0625637)
(-0.584949 0.100179 -0.0794564)
(-0.620446 0.121818 -0.0976794)
(-0.616164 0.147806 -0.116144)
(-0.563424 0.170091 -0.134737)
(-0.488447 0.185286 -0.153202)
(-0.418091 0.203557 -0.167745)
(-0.348526 0.222643 -0.175758)
(-0.27358 0.238048 -0.176287)
(-0.193095 0.247324 -0.168974)
(-0.111405 0.250684 -0.153648)
(-0.0376572 0.250179 -0.130416)
(0.024496 0.238716 -0.0992115)
(0.0770369 0.214476 -0.0635901)
(0.115143 0.173421 -0.0461344)
(0.131475 0.12859 -0.0293931)
(0.12394 0.0873761 -0.0154941)
(0.102231 0.0545117 -0.00816374)
(0.0769833 0.0331274 -0.00417931)
(0.0537526 0.0210865 -0.00213349)
(0.0318143 0.0138754 0.000315899)
(0.0100646 0.00505873 0.00285022)
(-0.000677715 -0.021606 0.00310784)
(0.011432 -0.0287668 5.44773e-05)
(0.0337385 -0.0242377 -0.000877712)
(0.050855 -0.0140411 -0.000468221)
(0.0594724 -0.00425771 -0.00126866)
(0.0571682 0.00362056 -0.00277348)
(0.0478879 0.011433 -0.00400842)
(0.0333949 0.0216557 -0.00524628)
(0.0141004 0.0372667 -0.0058487)
(-0.0117119 0.057815 -0.00838814)
(-0.0493022 0.0804744 -0.0137762)
(-0.104955 0.100318 -0.0216296)
(-0.176763 0.121773 -0.0288639)
(-0.258296 0.143514 -0.036176)
(-0.347698 0.165622 -0.043954)
(-0.440276 0.19303 -0.0516521)
(-0.529018 0.225208 -0.0597737)
(-0.60803 0.261214 -0.0690676)
(-0.672718 0.299573 -0.0797225)
(-0.718085 0.339808 -0.0911375)
(-0.736693 0.382324 -0.101939)
(-0.717414 0.424442 -0.110539)
(-0.653525 0.460878 -0.116132)
(-0.566511 0.488385 -0.121606)
(-0.483823 0.510081 -0.124087)
(-0.40839 0.524239 -0.121615)
(-0.334558 0.527777 -0.114438)
(-0.259964 0.518557 -0.103921)
(-0.186071 0.496122 -0.090957)
(-0.117126 0.461659 -0.0754901)
(-0.0566412 0.420227 -0.0580505)
(-0.0115551 0.372142 -0.0407466)
(0.0218582 0.315792 -0.0239418)
(0.0475222 0.254151 -0.0117091)
(0.0586837 0.193394 -0.0116021)
(0.0594484 0.141538 -0.0103334)
(0.053753 0.100799 -0.00723748)
(0.0442338 0.07315 -0.00549525)
(0.0306101 0.0516864 -0.00217786)
(0.0109178 0.0241538 0.00223571)
(-0.000790107 -0.0286347 0.00260135)
(0.0136995 -0.0338737 -0.00172301)
(0.0388913 -0.0231285 -0.00245235)
(0.0534557 -0.00715933 -0.0024578)
(0.0554163 0.00779358 -0.00373823)
(0.046648 0.0228437 -0.00490164)
(0.0311841 0.0406029 -0.00664976)
(0.0107267 0.0639782 -0.00791301)
(-0.0162251 0.0943451 -0.0113686)
(-0.0550988 0.128266 -0.0175746)
(-0.110437 0.162884 -0.0253027)
(-0.179337 0.196303 -0.0317557)
(-0.256672 0.231692 -0.0381177)
(-0.339857 0.26752 -0.0436065)
(-0.424163 0.303811 -0.0472273)
(-0.504703 0.342128 -0.0491395)
(-0.577275 0.382731 -0.0500296)
(-0.63828 0.425246 -0.0502779)
(-0.684418 0.469029 -0.0498688)
(-0.712178 0.513574 -0.0486371)
(-0.716237 0.557541 -0.0460085)
(-0.687965 0.598165 -0.0412305)
(-0.621653 0.631743 -0.0353408)
(-0.537007 0.651227 -0.0315587)
(-0.460645 0.655851 -0.027311)
(-0.396434 0.648361 -0.0208253)
(-0.338896 0.629677 -0.0134049)
(-0.284661 0.599785 -0.0076275)
(-0.232935 0.558991 -0.0041769)
(-0.184414 0.507986 -0.00223945)
(-0.139831 0.450231 -0.002028)
(-0.0999879 0.388545 -0.00207385)
(-0.0648192 0.33327 -0.00241642)
(-0.0353086 0.280658 -0.00354566)
(-0.0134759 0.231227 -0.00599803)
(0.00158741 0.187623 -0.00722545)
(0.0132678 0.14994 -0.00702571)
(0.0217959 0.119693 -0.00769341)
(0.0224165 0.0887115 -0.00404825)
(0.010056 0.0446415 0.00181389)
(0.000116184 -0.0314401 0.00174343)
(0.0180779 -0.0305626 -0.00404017)
(0.0438866 -0.0136429 -0.00447351)
(0.0527671 0.00685728 -0.00571129)
(0.0485033 0.0302129 -0.00585289)
(0.0343647 0.0568101 -0.00660085)
(0.0144952 0.0873159 -0.00766244)
(-0.0103607 0.125913 -0.0105615)
(-0.0442738 0.168127 -0.0156571)
(-0.0901404 0.21008 -0.0214882)
(-0.147991 0.253788 -0.0272018)
(-0.214707 0.299099 -0.0315461)
(-0.285959 0.342044 -0.0347243)
(-0.357921 0.383099 -0.0351383)
(-0.426555 0.423061 -0.0322544)
(-0.489028 0.46344 -0.0269283)
(-0.542934 0.504473 -0.0199021)
(-0.585752 0.546331 -0.011543)
(-0.615381 0.587446 -0.0014891)
(-0.629681 0.627824 0.00967676)
(-0.625218 0.667617 0.0211648)
(-0.59447 0.705278 0.0327659)
(-0.535771 0.73306 0.0405681)
(-0.468082 0.736136 0.0432956)
(-0.41116 0.715913 0.0450729)
(-0.366103 0.681358 0.0478753)
(-0.329486 0.638676 0.0499275)
(-0.298365 0.589734 0.0476681)
(-0.271362 0.536288 0.0402202)
(-0.24639 0.480904 0.0313268)
(-0.220192 0.425436 0.0209489)
(-0.189169 0.369356 0.0122128)
(-0.152367 0.317407 0.00372627)
(-0.114721 0.273095 -0.00248689)
(-0.0797182 0.236604 -0.00676802)
(-0.0488827 0.20633 -0.00908751)
(-0.022275 0.180465 -0.00999258)
(-0.00236817 0.15512 -0.00933907)
(0.0100642 0.122278 -0.00415249)
(0.00746479 0.065465 0.00231806)
(0.00180855 -0.028287 0.000919414)
(0.0223109 -0.0186245 -0.00659476)
(0.0461185 0.0023421 -0.0102436)
(0.0516729 0.0301952 -0.00902156)
(0.0449065 0.0650363 -0.00817617)
(0.02666 0.103894 -0.00617444)
(0.00496419 0.146867 -0.00761085)
(-0.0213539 0.19582 -0.0116934)
(-0.0587123 0.245012 -0.0160661)
(-0.102969 0.292654 -0.0187166)
(-0.152641 0.338438 -0.0217007)
(-0.21017 0.383142 -0.0242029)
(-0.270608 0.424605 -0.0236164)
(-0.328419 0.466068 -0.0189096)
(-0.380293 0.506904 -0.00980372)
(-0.424614 0.54493 0.000476503)
(-0.460866 0.578724 0.0100785)
(-0.488681 0.608529 0.0187745)
(-0.506705 0.63798 0.0327714)
(-0.511099 0.671938 0.049459)
(-0.499294 0.710145 0.0650994)
(-0.47124 0.743287 0.0754887)
(-0.434909 0.755702 0.0783888)
(-0.401687 0.737457 0.0754828)
(-0.375273 0.695415 0.0717726)
(-0.353665 0.64021 0.0689885)
(-0.337478 0.580505 0.0660436)
(-0.325998 0.520689 0.0607582)
(-0.315176 0.461607 0.0528417)
(-0.302384 0.406691 0.0428234)
(-0.287608 0.359182 0.0252453)
(-0.26581 0.317709 0.0115214)
(-0.229867 0.28066 0.00234048)
(-0.183665 0.251288 -0.00619822)
(-0.135544 0.228592 -0.0115016)
(-0.0906493 0.210946 -0.013665)
(-0.051108 0.194579 -0.0134384)
(-0.0196967 0.17553 -0.0111876)
(0.00232686 0.144736 -0.00574259)
(0.00567016 0.0804202 0.00263187)
(0.00277101 -0.0212366 0.000390815)
(0.0236236 -0.000988856 -0.0136247)
(0.0486011 0.0276017 -0.0159979)
(0.0564344 0.0653448 -0.0137402)
(0.0488996 0.110562 -0.00887711)
(0.0287741 0.160632 -0.0057364)
(0.00724808 0.213592 -0.00628301)
(-0.0178662 0.265668 -0.00983143)
(-0.0519881 0.318151 -0.0125465)
(-0.091458 0.367605 -0.0135629)
(-0.133986 0.411731 -0.0133023)
(-0.179497 0.448921 -0.0126569)
(-0.222943 0.486496 -0.00875031)
(-0.261292 0.523329 -0.00436136)
(-0.298296 0.558834 0.00184483)
(-0.333761 0.58831 0.0120563)
(-0.364429 0.608154 0.0239077)
(-0.383978 0.624154 0.0369968)
(-0.387302 0.646122 0.05197)
(-0.377255 0.674856 0.0660172)
(-0.365459 0.701374 0.0750144)
(-0.360151 0.713422 0.0778093)
(-0.360634 0.703093 0.0756596)
(-0.363812 0.67117 0.0699744)
(-0.366991 0.624244 0.0632975)
(-0.368175 0.568094 0.0573636)
(-0.368356 0.50815 0.0526494)
(-0.370201 0.449185 0.0480729)
(-0.371034 0.392871 0.0432299)
(-0.364404 0.340298 0.0347306)
(-0.350501 0.295943 0.0214782)
(-0.328283 0.264942 0.00875765)
(-0.290819 0.243075 0.000289092)
(-0.239962 0.228537 -0.00773188)
(-0.18278 0.219269 -0.0149738)
(-0.125329 0.212806 -0.0181018)
(-0.0732916 0.20511 -0.0173006)
(-0.0319907 0.191952 -0.0136709)
(-0.00224043 0.161638 -0.00726971)
(0.00529958 0.0914047 0.00269268)
(0.00138875 -0.0103218 -0.00295336)
(0.0246107 0.025491 -0.0203541)
(0.0555334 0.0652839 -0.0222734)
(0.0673467 0.110757 -0.0185295)
(0.0626298 0.162535 -0.0113283)
(0.0439423 0.220256 -0.00558139)
(0.0215365 0.279874 -0.00424647)
(-0.000352385 0.333477 -0.0046304)
(-0.0274648 0.382596 -0.00671682)
(-0.0597889 0.428493 -0.00685266)
(-0.0954986 0.468247 -0.00667947)
(-0.128975 0.50127 -0.00350166)
(-0.156959 0.531489 0.0014211)
(-0.183572 0.554787 0.00720712)
(-0.210648 0.573879 0.0125225)
(-0.241482 0.588344 0.018425)
(-0.266924 0.596361 0.0285339)
(-0.274707 0.60804 0.040888)
(-0.269363 0.624261 0.0517216)
(-0.266424 0.635479 0.0579063)
(-0.276264 0.63418 0.0597717)
(-0.297373 0.621098 0.058753)
(-0.323911 0.598825 0.0552209)
(-0.351566 0.5686 0.0498976)
(-0.376789 0.531019 0.0439627)
(-0.396782 0.486094 0.0386962)
(-0.411244 0.434865 0.0347619)
(-0.421831 0.380405 0.0325283)
(-0.427592 0.328985 0.0305563)
(-0.423433 0.283561 0.0254385)
(-0.406138 0.246085 0.0160704)
(-0.378075 0.220737 0.0058053)
(-0.337557 0.208017 -0.00149113)
(-0.283442 0.203099 -0.00830972)
(-0.220474 0.204922 -0.0148112)
(-0.154296 0.209392 -0.0200376)
(-0.0911439 0.210554 -0.020334)
(-0.0407622 0.20282 -0.0162196)
(-0.004805 0.173476 -0.00891992)
(0.00549407 0.0973136 0.00277542)
(-0.000256983 0.00410657 -0.00659695)
(0.0268163 0.0624129 -0.0268461)
(0.0666021 0.112505 -0.0283655)
(0.0842433 0.163185 -0.0225868)
(0.0849378 0.217183 -0.0148002)
(0.0714602 0.276737 -0.00792679)
(0.0512677 0.337982 -0.00230619)
(0.0288403 0.394238 -8.79108e-05)
(0.00693701 0.439976 0.000892584)
(-0.0168741 0.478221 -5.0895e-05)
(-0.043483 0.508197 0.00094488)
(-0.0678364 0.533888 0.00389932)
(-0.0900691 0.55038 0.00788967)
(-0.109671 0.559338 0.0128439)
(-0.129143 0.563775 0.0161656)
(-0.155075 0.56384 0.0192775)
(-0.174946 0.564929 0.0277111)
(-0.180585 0.569319 0.0358688)
(-0.186593 0.567718 0.0401456)
(-0.20373 0.556135 0.0410306)
(-0.232245 0.538438 0.040036)
(-0.268705 0.519527 0.0377192)
(-0.309939 0.500259 0.0344509)
(-0.352715 0.478978 0.0308879)
(-0.393463 0.452567 0.027588)
(-0.428402 0.41776 0.0249013)
(-0.454967 0.373045 0.0231297)
(-0.471187 0.323168 0.0229844)
(-0.475842 0.27639 0.021662)
(-0.468486 0.238326 0.0174158)
(-0.449243 0.208912 0.0105816)
(-0.418158 0.187956 0.00341346)
(-0.375102 0.177756 -0.00328152)
(-0.319537 0.175988 -0.0089069)
(-0.251953 0.183416 -0.0146333)
(-0.178514 0.197457 -0.0193983)
(-0.106246 0.208553 -0.0215541)
(-0.0478779 0.207395 -0.0180283)
(-0.00671 0.180314 -0.0102165)
(0.00567306 0.098791 0.00299191)
(-0.000748094 0.0226827 -0.00907991)
(0.0318539 0.106481 -0.0324049)
(0.0815904 0.166146 -0.0332689)
(0.105883 0.219468 -0.0249489)
(0.113061 0.27266 -0.0181225)
(0.106605 0.328275 -0.0101632)
(0.09207 0.384998 -0.0036863)
(0.0724058 0.438231 0.00297987)
(0.050233 0.483407 0.00545294)
(0.0284812 0.516099 0.00755386)
(0.00840697 0.538334 0.00900176)
(-0.00998012 0.550439 0.0105517)
(-0.0269782 0.552916 0.0129046)
(-0.0413649 0.54947 0.0154949)
(-0.0591375 0.542173 0.0167982)
(-0.0827965 0.529513 0.0198107)
(-0.101772 0.521783 0.0250651)
(-0.118218 0.510696 0.027307)
(-0.141781 0.49359 0.0275523)
(-0.173111 0.47417 0.0265463)
(-0.21144 0.456454 0.0245948)
(-0.255784 0.441389 0.0221737)
(-0.30459 0.42762 0.0198719)
(-0.355864 0.412305 0.018383)
(-0.40693 0.39177 0.0177995)
(-0.453776 0.362902 0.0176645)
(-0.489483 0.324012 0.0176587)
(-0.507842 0.279419 0.0181807)
(-0.509111 0.238156 0.016653)
(-0.498145 0.205435 0.0122696)
(-0.478394 0.181057 0.00589479)
(-0.449559 0.161547 0.00334317)
(-0.409873 0.147947 -0.00132874)
(-0.354779 0.146275 -0.00920218)
(-0.282334 0.156214 -0.0176796)
(-0.200853 0.175362 -0.0203972)
(-0.119923 0.197005 -0.022505)
(-0.0539557 0.204926 -0.0195858)
(-0.00838158 0.182449 -0.011199)
(0.0055176 0.097261 0.00316514)
(-0.000779444 0.0452329 -0.0108666)
(0.0386862 0.154488 -0.036987)
(0.099732 0.222067 -0.0365779)
(0.131703 0.276074 -0.0251642)
(0.14452 0.326988 -0.0175459)
(0.144104 0.376349 -0.0117397)
(0.135823 0.423942 -0.00459419)
(0.121308 0.467662 0.00199107)
(0.102105 0.506299 0.00895875)
(0.080757 0.535632 0.0128106)
(0.0599321 0.553401 0.0143704)
(0.04165 0.556745 0.014907)
(0.0268596 0.549861 0.0157816)
(0.0148504 0.538263 0.0173255)
(-0.0041986 0.522298 0.0177035)
(-0.029723 0.49316 0.0199236)
(-0.0555851 0.471508 0.0204054)
(-0.0848598 0.4486 0.0199525)
(-0.117784 0.427819 0.0186292)
(-0.155632 0.410519 0.0167864)
(-0.198572 0.396408 0.0146991)
(-0.246304 0.384102 0.0127895)
(-0.298249 0.371543 0.0115841)
(-0.353462 0.356388 0.011685)
(-0.40967 0.337125 0.0128552)
(-0.462858 0.312264 0.0141279)
(-0.5051 0.281663 0.0151211)
(-0.525694 0.245656 0.0156782)
(-0.524263 0.209115 0.0136842)
(-0.510951 0.178613 0.00961126)
(-0.49542 0.149168 0.0151301)
(-0.476425 0.121595 0.0189037)
(-0.442283 0.102297 0.0174036)
(-0.388942 0.0991334 0.00849653)
(-0.316811 0.112943 -0.00419695)
(-0.227605 0.141611 -0.0222016)
(-0.134629 0.174269 -0.0239059)
(-0.0600509 0.195139 -0.0212383)
(-0.0101188 0.180847 -0.0119906)
(0.00513233 0.0948117 0.00306238)
(-0.000723342 0.0693194 -0.0125143)
(0.0459089 0.20315 -0.0410351)
(0.119383 0.27667 -0.0394459)
(0.160758 0.328733 -0.0243244)
(0.179327 0.375362 -0.0133185)
(0.181946 0.418886 -0.00706032)
(0.177063 0.457715 -0.0037605)
(0.167728 0.490216 0.00145682)
(0.153311 0.516865 0.00822369)
(0.134241 0.536968 0.0140246)
(0.112003 0.549351 0.0191196)
(0.0911884 0.549528 0.0185968)
(0.0771338 0.539065 0.0174567)
(0.0643471 0.521764 0.0163508)
(0.0309271 0.494535 0.0133132)
(-0.00516932 0.456037 0.018211)
(-0.0315565 0.421888 0.0171876)
(-0.0647313 0.396707 0.0154704)
(-0.100931 0.377331 0.0132228)
(-0.141337 0.361992 0.0110086)
(-0.185739 0.348304 0.00909188)
(-0.234145 0.334437 0.00780875)
(-0.286517 0.318918 0.00762054)
(-0.341749 0.301749 0.00898041)
(-0.398101 0.283198 0.0109202)
(-0.452013 0.262975 0.0123033)
(-0.496326 0.240864 0.0139071)
(-0.521277 0.214349 0.0145647)
(-0.522267 0.181073 0.0124345)
(-0.51551 0.143216 0.0195678)
(-0.511666 0.103536 0.0213745)
(-0.499844 0.0691359 0.0184889)
(-0.470181 0.0467578 0.0130879)
(-0.419083 0.0394995 0.00493681)
(-0.344974 0.0528881 -0.00248519)
(-0.25335 0.0896217 -0.0111937)
(-0.152826 0.13943 -0.0271678)
(-0.0667195 0.177135 -0.022561)
(-0.01188 0.176232 -0.0129788)
(0.00456164 0.0934662 0.00242975)
(-0.000863884 0.0935075 -0.0142336)
(0.0521747 0.250268 -0.0446036)
(0.137609 0.32801 -0.0429731)
(0.189628 0.375463 -0.0245944)
(0.215681 0.414289 -0.00956426)
(0.221474 0.4502 -0.000752216)
(0.216903 0.481296 0.00382199)
(0.208101 0.505083 0.00678058)
(0.196776 0.521709 0.00886924)
(0.182547 0.531828 0.011349)
(0.162857 0.535551 0.0188786)
(0.140214 0.532769 0.0204623)
(0.12087 0.518027 0.0168551)
(0.0968926 0.489916 0.0137034)
(0.0528325 0.451736 0.0103142)
(0.00913129 0.41762 0.0143601)
(-0.0191564 0.380035 0.0151174)
(-0.0498569 0.355544 0.0127364)
(-0.0862523 0.335884 0.0102034)
(-0.126513 0.318874 0.00789405)
(-0.170322 0.301783 0.00625208)
(-0.217419 0.283627 0.00563011)
(-0.267076 0.264998 0.00650407)
(-0.318324 0.247374 0.00871248)
(-0.370584 0.231062 0.0112817)
(-0.421401 0.21611 0.013108)
(-0.465947 0.200495 0.0147068)
(-0.496658 0.179299 0.0159634)
(-0.509901 0.146439 0.0203559)
(-0.512704 0.101627 0.0183268)
(-0.512154 0.0591816 0.0150599)
(-0.505106 0.0245616 0.0107567)
(-0.484518 0.00060153 0.00410221)
(-0.444833 -0.0117631 -0.00424577)
(-0.37777 -0.00471694 -0.0115427)
(-0.281122 0.0282782 -0.0169477)
(-0.172239 0.0873464 -0.0198255)
(-0.0767222 0.148982 -0.0264075)
(-0.013748 0.168003 -0.0151274)
(0.00422719 0.0940118 0.00108634)
(-0.00114236 0.117164 -0.0157133)
(0.056485 0.294264 -0.0472082)
(0.152047 0.375886 -0.0463337)
(0.214523 0.417109 -0.0265387)
(0.248862 0.445109 -0.00818276)
(0.25863 0.46944 0.00369828)
(0.255074 0.490892 0.0100853)
(0.246992 0.508412 0.0137258)
(0.236781 0.519703 0.0146298)
(0.223964 0.523767 0.0152566)
(0.207233 0.520097 0.0168341)
(0.182944 0.509542 0.0186962)
(0.15224 0.486605 0.0144977)
(0.116447 0.448416 0.0112091)
(0.0696689 0.407434 0.00792019)
(0.0213723 0.377943 0.0101281)
(-0.00975025 0.344645 0.0136291)
(-0.0368227 0.319112 0.0110784)
(-0.0722088 0.297053 0.00863575)
(-0.110903 0.275727 0.00643978)
(-0.152584 0.253783 0.00524688)
(-0.195777 0.232086 0.00546164)
(-0.239634 0.212889 0.00708329)
(-0.284412 0.196755 0.00960518)
(-0.330362 0.183434 0.0122119)
(-0.376537 0.172193 0.0147736)
(-0.42109 0.160379 0.0168656)
(-0.459088 0.142419 0.0180631)
(-0.482856 0.111093 0.0187806)
(-0.490733 0.0680247 0.0164621)
(-0.491035 0.0251658 0.0119453)
(-0.488156 -0.0107168 0.00576363)
(-0.479891 -0.0436342 -0.0038623)
(-0.457262 -0.0676242 -0.0144731)
(-0.407048 -0.0690735 -0.0243272)
(-0.321908 -0.0346536 -0.0298893)
(-0.20291 0.0266357 -0.028021)
(-0.0884732 0.108532 -0.0265769)
(-0.016248 0.153837 -0.0172709)
(0.0043585 0.0960384 -0.000588625)
(-0.00170246 0.139311 -0.0164743)
(0.0588014 0.333688 -0.0476839)
(0.161606 0.419761 -0.0481021)
(0.232749 0.455178 -0.0283519)
(0.274737 0.471766 -0.00800895)
(0.289821 0.482653 0.00649383)
(0.290165 0.492577 0.0146474)
(0.284091 0.502432 0.0189437)
(0.274681 0.509148 0.0189646)
(0.262376 0.509897 0.017538)
(0.244039 0.500451 0.0166897)
(0.214193 0.479261 0.0170684)
(0.172678 0.447865 0.0170979)
(0.128369 0.408291 0.00856955)
(0.0842144 0.367109 0.00603208)
(0.036173 0.338436 0.00637626)
(0.000728685 0.312345 0.0112954)
(-0.0254657 0.283891 0.0100535)
(-0.0587284 0.259104 0.00791856)
(-0.0952837 0.233542 0.00609641)
(-0.133094 0.208378 0.00554328)
(-0.170002 0.186002 0.00639923)
(-0.206519 0.167803 0.00820481)
(-0.244407 0.153391 0.0106539)
(-0.284223 0.141995 0.0131973)
(-0.325667 0.132283 0.0159526)
(-0.368697 0.122239 0.018322)
(-0.410765 0.108735 0.0188584)
(-0.442409 0.0843117 0.0193351)
(-0.454118 0.0443311 0.017701)
(-0.452117 0.00119043 0.0133803)
(-0.455093 -0.0435875 0.0051263)
(-0.463246 -0.0912284 -0.00429816)
(-0.456954 -0.129604 -0.0154574)
(-0.416938 -0.145615 -0.0280329)
(-0.348668 -0.12011 -0.0455047)
(-0.243151 -0.0444951 -0.0431171)
(-0.114713 0.0508427 -0.0310042)
(-0.0208943 0.131679 -0.0247357)
(0.00579605 0.0981621 -0.00310098)
(-0.00201981 0.158747 -0.0156832)
(0.0596039 0.367598 -0.0459299)
(0.166538 0.459217 -0.0473041)
(0.244279 0.49066 -0.0279849)
(0.292782 0.496853 -0.00676763)
(0.313041 0.49496 0.00880874)
(0.318478 0.492166 0.0175237)
(0.31712 0.492107 0.0210075)
(0.31052 0.493129 0.0205334)
(0.296137 0.488819 0.018901)
(0.271263 0.472537 0.0170674)
(0.234836 0.443686 0.0156928)
(0.189116 0.407525 0.0144862)
(0.139976 0.370235 0.0125103)
(0.0954605 0.332988 0.0042282)
(0.052225 0.301344 0.00429256)
(0.0137632 0.279857 0.00817092)
(-0.0147256 0.250619 0.00961312)
(-0.0452014 0.223834 0.00776271)
(-0.079409 0.196335 0.00647408)
(-0.112042 0.170835 0.00635143)
(-0.142432 0.149185 0.00717202)
(-0.172662 0.131506 0.00869805)
(-0.204775 0.117435 0.0109692)
(-0.239405 0.106325 0.0135268)
(-0.276305 0.0968139 0.015949)
(-0.315038 0.0874721 0.0164869)
(-0.356101 0.0766741 0.0174809)
(-0.394083 0.0569063 0.018206)
(-0.409632 0.0203998 0.0188208)
(-0.409215 -0.0263991 0.013452)
(-0.417987 -0.0809569 0.00692964)
(-0.432534 -0.139634 -0.000859279)
(-0.438714 -0.193666 -0.0131455)
(-0.418717 -0.228734 -0.0284247)
(-0.360539 -0.225764 -0.0466372)
(-0.272957 -0.150112 -0.059836)
(-0.147022 -0.0184424 -0.0401971)
(-0.0268321 0.0921471 -0.0217427)
(0.00746309 0.0975224 -0.00430238)
(-0.00120332 0.178017 -0.0123389)
(0.0606053 0.397243 -0.0422035)
(0.167819 0.494835 -0.0450391)
(0.249145 0.524067 -0.0268031)
(0.302682 0.521506 -0.00529654)
(0.327886 0.507624 0.0109709)
(0.338837 0.492614 0.0202083)
(0.343693 0.481502 0.0228929)
(0.340043 0.473686 0.021526)
(0.322716 0.461399 0.0195278)
(0.291696 0.439434 0.0176408)
(0.250175 0.407811 0.0149111)
(0.202496 0.371184 0.0124306)
(0.153356 0.334492 0.0105873)
(0.107278 0.301716 0.0083369)
(0.067224 0.270592 0.00327416)
(0.0294222 0.246642 0.00569002)
(-0.00258662 0.221156 0.00893781)
(-0.0314366 0.192923 0.00784037)
(-0.0628093 0.165858 0.00701452)
(-0.0909823 0.141492 0.00689144)
(-0.116691 0.1202 0.00739287)
(-0.142273 0.102069 0.00855345)
(-0.169609 0.0872497 0.0104711)
(-0.199579 0.0756016 0.0129647)
(-0.232021 0.0659242 0.0148762)
(-0.26656 0.0558897 0.0158196)
(-0.306293 0.0412265 0.0158867)
(-0.347937 0.0213656 0.0176612)
(-0.369208 -0.00592182 0.0211612)
(-0.369526 -0.058417 0.0172799)
(-0.377168 -0.121574 0.0101144)
(-0.396873 -0.188007 0.00336639)
(-0.412559 -0.255648 -0.00634514)
(-0.406456 -0.309932 -0.0211291)
(-0.361525 -0.32727 -0.0389726)
(-0.275677 -0.276663 -0.0601558)
(-0.1712 -0.119071 -0.0565213)
(-0.0433216 0.0355954 -0.0242585)
(0.0141996 0.0878616 -0.00664156)
(0.000441413 0.203503 -0.00783567)
(0.061205 0.425338 -0.0372185)
(0.1654 0.526917 -0.0421473)
(0.247798 0.555195 -0.0259689)
(0.304408 0.545927 -0.00462822)
(0.334057 0.521626 0.0124932)
(0.350613 0.495155 0.0223205)
(0.361095 0.472222 0.0247672)
(0.360624 0.453218 0.0224789)
(0.342068 0.432593 0.0196025)
(0.307981 0.406247 0.0173789)
(0.263999 0.374348 0.0151223)
(0.215152 0.339343 0.0122125)
(0.166657 0.30486 0.00921074)
(0.121556 0.273257 0.00778951)
(0.0812905 0.245107 0.00586906)
(0.0453796 0.217874 0.00574308)
(0.0126399 0.19343 0.00776925)
(-0.0176291 0.165242 0.00797299)
(-0.0460077 0.140338 0.00744846)
(-0.0714373 0.117373 0.00710496)
(-0.0944718 0.0963421 0.00726936)
(-0.116788 0.0776048 0.00815003)
(-0.139979 0.0618272 0.00987625)
(-0.16541 0.0494555 0.0121016)
(-0.194418 0.0394255 0.0145847)
(-0.228967 0.0273 0.015866)
(-0.267071 0.0108913 0.0182181)
(-0.300733 -0.0052011 0.0213481)
(-0.328083 -0.0277252 0.0218669)
(-0.340884 -0.0769726 0.0216105)
(-0.344576 -0.149647 0.0162728)
(-0.358716 -0.225146 0.00968385)
(-0.378146 -0.302406 0.00136152)
(-0.383254 -0.373923 -0.0115698)
(-0.35606 -0.415843 -0.0287476)
(-0.275336 -0.394619 -0.0488237)
(-0.178874 -0.25571 -0.0605658)
(-0.0519384 -0.0328296 -0.0353032)
(0.0158829 0.0694116 -0.00973961)
(0.000284095 0.22928 -0.00508458)
(0.057591 0.446233 -0.0327273)
(0.157885 0.550173 -0.0391809)
(0.240341 0.57918 -0.0254948)
(0.299125 0.566508 -0.00502746)
(0.332193 0.535533 0.0120153)
(0.353001 0.499853 0.0222799)
(0.368286 0.465366 0.0251552)
(0.371781 0.434834 0.0226922)
(0.354808 0.406308 0.0194076)
(0.321029 0.376462 0.0168539)
(0.277199 0.344531 0.0147065)
(0.229011 0.311552 0.0122814)
(0.181005 0.279647 0.00969197)
(0.136553 0.249581 0.0073032)
(0.0964087 0.221915 0.00668146)
(0.0599048 0.194792 0.00651538)
(0.0265076 0.167486 0.00784553)
(-0.00249706 0.13999 0.0087243)
(-0.0286495 0.11712 0.00778376)
(-0.0534306 0.0961554 0.00715326)
(-0.0753755 0.076004 0.00705663)
(-0.0954921 0.0572667 0.00776853)
(-0.115015 0.0409861 0.00947907)
(-0.136074 0.0284793 0.0117744)
(-0.162879 0.0179751 0.0148718)
(-0.195519 0.00647369 0.0172832)
(-0.227189 -0.00622643 0.0200656)
(-0.258239 -0.0212123 0.0208591)
(-0.290796 -0.0464345 0.021202)
(-0.315006 -0.0876886 0.021794)
(-0.321932 -0.157233 0.020571)
(-0.327399 -0.241429 0.0152729)
(-0.344544 -0.3306 0.008347)
(-0.35671 -0.419927 -0.00228845)
(-0.345181 -0.489541 -0.0178904)
(-0.27831 -0.500089 -0.0360336)
(-0.174409 -0.395815 -0.0519242)
(-0.0504127 -0.144802 -0.0473154)
(0.0112651 0.0352271 0.00026366)
(-0.00177434 0.241146 -0.00482568)
(0.0501562 0.450624 -0.0288554)
(0.14662 0.557498 -0.0361148)
(0.229164 0.589866 -0.0251207)
(0.289969 0.577422 -0.00617669)
(0.325642 0.543391 0.0102474)
(0.348235 0.503297 0.0197976)
(0.365812 0.460774 0.0234199)
(0.373966 0.419889 0.0217103)
(0.36159 0.384024 0.0187304)
(0.331067 0.350866 0.0162701)
(0.289692 0.318552 0.0142)
(0.243319 0.286907 0.0119981)
(0.196557 0.256563 0.00990391)
(0.152316 0.22789 0.00806022)
(0.111501 0.200238 0.00683465)
(0.0736295 0.17287 0.00707986)
(0.0392329 0.145016 0.00837537)
(0.0122599 0.118786 0.0097491)
(-0.0111181 0.0946059 0.00853545)
(-0.0355678 0.076663 0.00732834)
(-0.0577455 0.0582449 0.00695822)
(-0.076631 0.0404235 0.00749801)
(-0.0927011 0.0244022 0.00918209)
(-0.109802 0.0118173 0.0134939)
(-0.133179 0.00234602 0.0150085)
(-0.162608 -0.00835254 0.0168067)
(-0.193264 -0.0205111 0.0187153)
(-0.223752 -0.038706 0.0197182)
(-0.255811 -0.0638247 0.0199897)
(-0.285311 -0.100306 0.0204706)
(-0.30028 -0.158314 0.0211036)
(-0.305063 -0.2419 0.0189226)
(-0.31791 -0.340717 0.014251)
(-0.334188 -0.447713 0.00636843)
(-0.335191 -0.545978 -0.00665379)
(-0.285989 -0.592988 -0.0240121)
(-0.188398 -0.52549 -0.0391738)
(-0.0542187 -0.28246 -0.0416691)
(0.0159147 -0.0043915 0.015712)
(-0.00373459 0.237068 -0.00480695)
(0.0423379 0.437942 -0.0251191)
(0.134021 0.548349 -0.0328545)
(0.215968 0.586181 -0.0245736)
(0.278299 0.576664 -0.00758495)
(0.317308 0.542436 0.00812115)
(0.341251 0.50105 0.0162532)
(0.357483 0.455315 0.0200732)
(0.368571 0.40782 0.0196455)
(0.362729 0.365599 0.0174326)
(0.337902 0.328842 0.0153401)
(0.300726 0.295373 0.0135461)
(0.257344 0.263962 0.0117466)
(0.212213 0.234213 0.0100447)
(0.168286 0.205785 0.00848725)
(0.126679 0.178156 0.0075952)
(0.087558 0.150783 0.00773593)
(0.053204 0.1244 0.00864167)
(0.0256322 0.100416 0.00931044)
(0.00524059 0.0768181 0.0106596)
(-0.0162233 0.0574186 0.00797047)
(-0.0398625 0.0427036 0.00718846)
(-0.0583376 0.0262895 0.00749657)
(-0.072063 0.0114513 0.00854194)
(-0.0844892 -0.000879395 0.0122747)
(-0.105493 -0.0144495 0.0123833)
(-0.134472 -0.0273047 0.0143959)
(-0.163931 -0.0400148 0.0164492)
(-0.193585 -0.0573189 0.01789)
(-0.223962 -0.081505 0.0185598)
(-0.253441 -0.115019 0.0190714)
(-0.273334 -0.164329 0.0201063)
(-0.283551 -0.239309 0.0198313)
(-0.298305 -0.339693 0.0185413)
(-0.31877 -0.459967 0.0144578)
(-0.330089 -0.584596 0.00471264)
(-0.298133 -0.669573 -0.0118206)
(-0.21078 -0.641982 -0.0285214)
(-0.0595453 -0.411334 -0.0367943)
(0.0252648 -0.0539571 0.00517556)
(-0.00473972 0.221447 -0.00385913)
(0.0358686 0.412349 -0.0213546)
(0.121636 0.525732 -0.0295385)
(0.202143 0.570229 -0.0239555)
(0.265654 0.565786 -0.0092542)
(0.307958 0.534009 0.00561843)
(0.333697 0.492158 0.012719)
(0.347641 0.446098 0.0165277)
(0.359136 0.39692 0.0170998)
(0.359038 0.350092 0.0157234)
(0.341061 0.309564 0.0141218)
(0.309431 0.273899 0.012723)
(0.269876 0.241571 0.011361)
(0.226962 0.211324 0.0100552)
(0.183777 0.182454 0.00895308)
(0.141936 0.154546 0.00837734)
(0.102897 0.127899 0.00851817)
(0.069272 0.103945 0.00916504)
(0.0421705 0.0825946 0.00951074)
(0.0203016 0.0630118 0.00912198)
(0.00194775 0.042925 0.0108813)
(-0.0192569 0.0278367 0.00767524)
(-0.0392001 0.0140598 0.0080035)
(-0.0508885 0.00167158 0.00989813)
(-0.0650871 -0.0135577 0.00985732)
(-0.0857563 -0.0338056 0.0109242)
(-0.108949 -0.0510281 0.0126047)
(-0.13562 -0.0657299 0.0141496)
(-0.164727 -0.081126 0.0157033)
(-0.193991 -0.102188 0.0169278)
(-0.221797 -0.132537 0.0179394)
(-0.243039 -0.176536 0.0193395)
(-0.257954 -0.243756 0.020416)
(-0.278923 -0.341063 0.0216748)
(-0.308402 -0.467938 0.022034)
(-0.331375 -0.612852 0.0168235)
(-0.316188 -0.732195 0.00246774)
(-0.242695 -0.746533 -0.0174477)
(-0.0848634 -0.533991 -0.0293009)
(0.0209448 -0.12183 -0.00191043)
(-0.00370338 0.200462 -0.00122529)
(0.0323766 0.378576 -0.0175168)
(0.110462 0.493156 -0.0262611)
(0.188507 0.54453 -0.0232685)
(0.252811 0.54644 -0.0110317)
(0.297848 0.518789 0.00277062)
(0.326016 0.477602 0.00912639)
(0.339125 0.432789 0.0130874)
(0.348947 0.385152 0.0142797)
(0.351825 0.336282 0.0138108)
(0.340368 0.292111 0.0127456)
(0.314847 0.253303 0.0117914)
(0.279972 0.218838 0.0108432)
(0.239912 0.1873 0.00996469)
(0.19826 0.157541 0.00930637)
(0.157546 0.129527 0.00910044)
(0.120227 0.104271 0.00941659)
(0.088419 0.0829562 0.00986658)
(0.0620387 0.0647686 0.00996254)
(0.0396363 0.0484301 0.00974071)
(0.0197607 0.0325899 0.00943891)
(0.000316914 0.0163573 0.00925304)
(-0.0165439 0.00402069 0.00825963)
(-0.031708 -0.00961675 0.00919113)
(-0.050821 -0.0294609 0.00814628)
(-0.0712657 -0.051169 0.00952718)
(-0.0902941 -0.0729581 0.0115223)
(-0.110769 -0.0931338 0.0131077)
(-0.135481 -0.110941 0.014142)