/*--------------------------------*- C++ -*----------------------------------*\
| =========                 |                                                 |
| \\      /  F ield         | OpenFOAM: The Open Source CFD Toolbox           |
|  \\    /   O peration     | Version:  v1806                                 |
|   \\  /    A nd           | Web:      www.OpenFOAM.com                      |
|    \\/     M anipulation  |                                                 |
\*---------------------------------------------------------------------------*/
FoamFile
{
    version     2.0;
    format      ascii;
    class       vectorField;
    location    "0.024";
    object      currentcloudofpoints;
}
// * * * * * * * * * * * * * * * * * * * * * * * * * * * * * * * * * * * * * //


2409
(
(0.720082 1.16353 0.999979)
(0.914221 0.755888 0.99999)
(1.12816 1.34917 0.999849)
(1.00568 1.04219 0.722009)
(1.00577 1.0421 1.27805)
(1.03671 1.06048 1.00001)
(0.517037 1.25837 0.999809)
(0.80774 0.570587 1.00007)
(1.17713 1.54024 0.999984)
(0.977191 1.02589 0.533669)
(0.97707 1.02618 1.46614)
(1.12305 1.33296 1.08997)
(1.10538 1.28822 1.17044)
(1.07724 1.21969 1.23228)
(1.04302 1.13384 1.2696)
(1.12596 1.34172 1.04487)
(1.11488 1.31095 1.13046)
(1.09158 1.25439 1.20148)
(1.06033 1.17711 1.25141)
(1.02454 1.08755 1.27423)
(0.91864 0.770124 1.0762)
(0.929538 0.813045 1.14821)
(0.94853 0.876948 1.21145)
(0.974959 0.954888 1.2563)
(0.916869 0.763032 1.03785)
(0.92481 0.791975 1.11125)
(0.938916 0.845609 1.17953)
(0.962413 0.916536 1.2336)
(0.990095 0.998541 1.26723)
(1.1229 1.33305 0.909983)
(1.10538 1.28802 0.829796)
(1.07721 1.21922 0.768156)
(1.04309 1.13364 0.730617)
(1.12584 1.34173 0.954915)
(1.11483 1.31101 0.869647)
(1.09156 1.25396 0.798883)
(1.06032 1.17674 0.748964)
(1.02453 1.08754 0.725837)
(0.974971 0.954898 0.743748)
(0.948674 0.876889 0.788518)
(0.929106 0.812729 0.851671)
(0.918761 0.770319 0.923475)
(0.990093 0.998648 0.73298)
(0.962388 0.916361 0.766111)
(0.938939 0.84558 0.820705)
(0.924346 0.791688 0.888307)
(0.917361 0.763554 0.96205)
(0.922525 1.07683 1.25628)
(0.844729 1.10922 1.21096)
(0.780661 1.13599 1.14659)
(0.735909 1.15561 1.07645)
(0.965074 1.05924 1.26556)
(0.883735 1.09335 1.23476)
(0.813682 1.12252 1.17759)
(0.758352 1.14552 1.11045)
(0.72747 1.15971 1.03818)
(0.736044 1.15584 0.923601)
(0.779828 1.13643 0.853079)
(0.844048 1.10936 0.788374)
(0.922285 1.07677 0.744159)
(0.727896 1.15963 0.961926)
(0.757765 1.14609 0.889264)
(0.813073 1.12255 0.822144)
(0.883202 1.09343 0.76493)
(0.964984 1.05931 0.734915)
(0.829853 0.809176 0.999981)
(0.761777 0.884948 0.99955)
(0.717393 0.974848 0.999956)
(0.70042 1.07032 0.999997)
(0.873429 0.782981 1.00007)
(0.796686 0.84748 0.99966)
(0.740501 0.930599 0.999692)
(0.708874 1.02258 1.00003)
(0.709799 1.11661 0.999987)
(0.76787 1.24656 0.999724)
(0.83896 1.31181 0.99978)
(0.930314 1.35147 0.999974)
(1.03003 1.36274 0.999926)
(0.744314 1.20422 0.999897)
(0.803629 1.27892 0.999692)
(0.884557 1.33222 0.999946)
(0.981882 1.35636 0.999982)
(1.07889 1.35715 0.999844)
(0.811946 0.579249 1.08853)
(0.824349 0.602129 1.17475)
(0.847085 0.640091 1.25241)
(0.872139 0.695089 1.32055)
(0.896749 0.763245 1.37857)
(0.918639 0.84318 1.42503)
(0.946221 0.932527 1.45423)
(0.810207 0.574493 1.0443)
(0.818863 0.590753 1.13169)
(0.836169 0.621012 1.21392)
(0.86086 0.667241 1.28626)
(0.88554 0.729303 1.34934)
(0.90843 0.802989 1.40179)
(0.932562 0.887861 1.43936)
(0.962073 0.979377 1.4604)
(1.01066 1.12021 1.46123)
(1.04927 1.21115 1.43747)
(1.08956 1.29708 1.39653)
(1.12344 1.37598 1.3397)
(1.15088 1.44316 1.26664)
(1.16585 1.49602 1.18298)
(1.17428 1.52931 1.09335)
(0.993768 1.07335 1.4635)
(1.02993 1.1657 1.44936)
(1.07025 1.25368 1.41703)
(1.10703 1.33649 1.36831)
(1.13835 1.40935 1.30363)
(1.15914 1.46977 1.22465)
(1.17036 1.51309 1.13826)
(1.1759 1.53515 1.04675)
(0.812022 0.579607 0.91112)
(0.824035 0.601898 0.82543)
(0.847132 0.639359 0.747044)
(0.871283 0.693669 0.677838)
(0.895956 0.762186 0.620234)
(0.91839 0.843009 0.575118)
(0.946192 0.932527 0.546047)
(0.810985 0.575147 0.955673)
(0.818218 0.590687 0.868097)
(0.836346 0.620474 0.786009)
(0.860469 0.666367 0.712721)
(0.884623 0.727886 0.649136)
(0.907814 0.802325 0.597563)
(0.932539 0.887858 0.561097)
(0.962018 0.979237 0.539627)
(1.17428 1.5294 0.906625)
(1.16592 1.49614 0.816992)
(1.15088 1.44284 0.733506)
(1.12346 1.37575 0.660323)
(1.08961 1.29723 0.603116)
(1.04917 1.21123 0.562512)
(1.01082 1.12009 0.538665)
(1.17588 1.53519 0.953217)
(1.17039 1.51323 0.861708)
(1.15921 1.46971 0.775381)
(1.13833 1.40893 0.696574)
(1.10708 1.33653 0.631419)
(1.07024 1.25376 0.582862)
(1.02987 1.16575 0.55059)
(0.994029 1.07308 0.536263)
(0.525662 1.25172 1.08585)
(0.554762 1.23309 1.16843)
(0.601954 1.20681 1.24542)
(0.662937 1.17485 1.3142)
(0.73104 1.13989 1.37284)
(0.806042 1.10349 1.4198)
(0.890952 1.06595 1.44876)
(0.52123 1.25554 1.043)
(0.540387 1.24234 1.12758)
(0.578432 1.21971 1.20715)
(0.633721 1.19038 1.27942)
(0.697445 1.15728 1.34355)
(0.768997 1.12154 1.39613)
(0.847504 1.0848 1.43336)
(0.935467 1.04657 1.45918)
(0.526786 1.25107 0.914378)
(0.553057 1.23399 0.831094)
(0.603269 1.20642 0.755368)
(0.662091 1.17508 0.684931)
(0.731382 1.13978 0.627457)
(0.806609 1.10313 0.581784)
(0.890819 1.06572 0.550979)
(0.522832 1.25458 0.956888)
(0.539652 1.24268 0.87239)
(0.578116 1.22005 0.792818)
(0.633965 1.19028 0.720645)
(0.697178 1.15739 0.656027)
(0.769482 1.1213 0.604784)
(0.847697 1.08446 0.567618)
(0.935476 1.04628 0.540256)
(0.713405 0.620825 1.0001)
(0.637249 0.684915 1.0001)
(0.576271 0.763346 0.99997)
(0.531194 0.853339 0.999908)
(0.503849 0.951653 0.999958)
(0.493092 1.05451 1.00004)
(0.498561 1.15841 0.999942)
(0.760473 0.59588 1.00008)
(0.675114 0.652298 1.00012)
(0.607192 0.723509 1.00003)
(0.553896 0.807493 0.99991)
(0.517749 0.901644 0.999901)
(0.49885 1.00218 1.00001)
(0.49657 1.10574 1)
(0.508591 1.20799 0.999869)
(0.5535 1.34755 0.99987)
(0.610036 1.42152 0.999932)
(0.685564 1.48013 1.00006)
(0.777179 1.52274 1.00019)
(0.876922 1.55023 1.00015)
(0.978101 1.56444 1.00001)
(1.07887 1.56159 0.999978)
(0.535222 1.30313 0.999842)
(0.581635 1.38468 0.999925)
(0.647585 1.45091 0.999966)
(0.731429 1.5014 1.00016)
(0.82752 1.53617 1.00017)
(0.927846 1.55612 1.00007)
(1.02901 1.5639 0.999981)
(1.12805 1.54942 0.99998)
(0.989592 1.03417 0.630744)
(0.985416 1.02959 0.580609)
(0.996824 1.03823 0.677714)
(0.98995 1.03414 1.36932)
(0.997196 1.03805 1.32243)
(0.985409 1.02988 1.41925)
(0.864124 0.660699 0.999819)
(0.889413 0.709059 0.999848)
(0.839188 0.609448 1.00004)
(1.1555 1.44156 0.999923)
(1.14124 1.39446 0.999878)
(1.16787 1.49036 0.999954)
(0.713974 1.38292 1.24484)
(0.704417 1.43714 1.17355)
(0.882047 1.2601 1.40556)
(0.883662 1.51661 1.16101)
(0.580187 1.3705 1.07992)
(0.955219 1.19868 1.44255)
(1.07575 1.53864 1.13615)
(0.986115 1.50779 1.21485)
(0.625951 1.36926 1.16986)
(0.794914 1.45842 1.21583)
(0.762504 1.49463 1.11904)
(0.655847 1.28743 1.26541)
(0.893355 1.45049 1.27068)
(0.974113 1.54229 1.1328)
(0.811943 1.38837 1.30131)
(1.02145 1.56111 1.06639)
(0.978719 1.28929 1.41447)
(0.929901 1.55075 1.07616)
(0.560947 1.31227 1.12176)
(0.87159 1.15444 1.43366)
(0.789383 1.22291 1.38494)
(0.907642 1.364 1.3549)
(1.07358 1.48484 1.2403)
(0.661323 1.44907 1.08653)
(0.591862 1.28781 1.19416)
(0.825107 1.31407 1.35878)
(1.06488 1.42582 1.31159)
(0.98701 1.44291 1.30029)
(0.541767 1.31566 1.05749)
(0.941236 1.11431 1.45693)
(1.10653 1.55204 1.05967)
(0.745005 1.31538 1.31721)
(0.713463 1.23137 1.33688)
(1.02507 1.37337 1.36272)
(0.717638 1.49274 1.0527)
(0.843556 1.5339 1.07297)
(0.982762 1.15986 1.4528)
(1.00095 1.20598 1.44211)
(0.95936 1.07051 1.46238)
(0.975716 1.11775 1.46023)
(0.94839 1.1564 1.44941)
(1.01378 1.25083 1.42703)
(1.0337 1.2931 1.40654)
(0.967111 1.24426 1.42857)
(1.05726 1.33508 1.37986)
(1.07367 1.37356 1.35078)
(1.00276 1.33148 1.38934)
(1.0941 1.40027 1.32534)
(1.10833 1.43306 1.28872)
(1.04491 1.3996 1.33733)
(1.11257 1.4627 1.2529)
(1.11944 1.4889 1.2111)
(1.07061 1.45498 1.27607)
(1.12067 1.51636 1.15972)
(1.12485 1.53234 1.1148)
(1.07461 1.51274 1.18867)
(1.14042 1.54009 1.07646)
(1.14213 1.54539 1.03004)
(1.09102 1.54529 1.09787)
(1.09278 1.55683 1.02978)
(0.595475 1.3963 1.04002)
(0.566607 1.35956 1.04011)
(0.560786 1.34334 1.06889)
(0.547611 1.33195 1.0287)
(0.529318 1.28726 1.02881)
(0.673555 1.46499 1.04344)
(0.635864 1.43528 1.0433)
(0.620952 1.40951 1.08344)
(0.747565 1.50774 1.02668)
(0.701576 1.48657 1.02638)
(0.689365 1.47118 1.06976)
(0.860184 1.54197 1.03671)
(0.810551 1.52832 1.03653)
(0.781306 1.51293 1.06307)
(0.953855 1.55733 1.03833)
(0.9036 1.54989 1.038)
(0.887215 1.54162 1.07466)
(1.05033 1.56171 1.03347)
(0.999844 1.56285 1.03302)
(0.975716 1.55551 1.07142)
(1.06413 1.55691 1.06324)
(0.670271 1.3761 1.20741)
(0.664999 1.40334 1.17216)
(0.709399 1.41052 1.20949)
(0.749985 1.44775 1.19475)
(0.754255 1.42114 1.23104)
(0.643773 1.4099 1.12856)
(0.682825 1.44342 1.12989)
(0.733391 1.46646 1.14653)
(0.779101 1.47689 1.16718)
(0.711538 1.47221 1.103)
(0.919962 1.22952 1.42295)
(0.931117 1.27508 1.4094)
(0.914511 1.17637 1.4365)
(0.876976 1.2072 1.4193)
(0.895553 1.31231 1.38059)
(0.944508 1.32715 1.38471)
(0.835538 1.24141 1.39508)
(0.83061 1.18853 1.40986)
(0.854015 1.28689 1.38211)
(0.807263 1.26871 1.37199)
(0.866377 1.33888 1.35662)
(0.863857 1.52495 1.11665)
(0.90684 1.5334 1.11874)
(0.824236 1.50456 1.14008)
(0.80353 1.51386 1.09637)
(0.940149 1.47788 1.2434)
(0.889037 1.48443 1.21641)
(0.934766 1.51156 1.18772)
(0.928969 1.52864 1.14733)
(0.980117 1.5256 1.17384)
(0.951945 1.5463 1.10424)
(0.83987 1.4872 1.189)
(0.84484 1.45448 1.24351)
(0.593386 1.34066 1.146)
(0.570446 1.34176 1.10094)
(0.60318 1.36981 1.12494)
(0.551383 1.31407 1.08978)
(0.543293 1.2821 1.10412)
(0.558199 1.27282 1.14554)
(0.533694 1.28388 1.07183)
(0.573332 1.26036 1.18135)
(0.597325 1.24737 1.22047)
(0.576522 1.29998 1.1581)
(0.629115 1.2472 1.25563)
(0.660393 1.23102 1.29003)
(0.62411 1.28761 1.22993)
(0.722613 1.1855 1.35504)
(0.688143 1.20319 1.32554)
(0.686038 1.25921 1.30115)
(0.760169 1.18143 1.37854)
(0.798182 1.16297 1.40219)
(0.751847 1.22702 1.36078)
(0.838159 1.12907 1.42687)
(0.881393 1.11037 1.44064)
(0.916549 1.09017 1.45247)
(0.907603 1.13451 1.44379)
(0.68494 1.33533 1.25572)
(0.730339 1.34936 1.28154)
(0.700935 1.30143 1.2912)
(0.778401 1.35198 1.30958)
(0.763665 1.38571 1.27325)
(0.641852 1.32865 1.21835)
(0.804013 1.424 1.25915)
(1.0487 1.55035 1.10113)
(0.729353 1.27352 1.32714)
(0.768245 1.269 1.35114)
(0.78544 1.31471 1.33796)
(0.819161 1.35135 1.33044)
(0.740141 1.49373 1.08579)
(1.02549 1.54146 1.13508)
(1.03152 1.52403 1.1765)
(1.03044 1.49764 1.22884)
(0.997788 1.55143 1.09971)
(0.987562 1.47516 1.25821)
(0.940122 1.44616 1.28535)
(1.03167 1.46408 1.2717)
(0.609018 1.32885 1.1825)
(0.852772 1.41955 1.28635)
(0.860579 1.3758 1.328)
(0.901377 1.40735 1.31339)
(0.947757 1.40327 1.32799)
(0.967802 1.36957 1.35965)
(1.00708 1.40852 1.33191)
(1.02664 1.43506 1.30693)
(0.65156 0.896299 1.29782)
(0.530785 0.964553 1.15485)
(0.628481 0.738444 1.15432)
(0.681926 0.685804 1.16456)
(0.554335 1.01428 1.20952)
(0.692521 0.971063 1.34875)
(0.746906 0.625733 1.13459)
(0.522058 1.17454 1.12593)
(0.857461 0.927288 1.42851)
(0.575892 0.929501 1.22167)
(0.694255 0.737095 1.24521)
(0.513151 1.06805 1.12782)
(0.622157 1.00524 1.29042)
(0.817175 0.836481 1.38583)
(0.670846 1.07997 1.33518)
(0.600007 1.09428 1.26681)
(0.754512 0.662088 1.21528)
(0.825101 1.01524 1.42773)
(0.666449 0.668757 1.08516)
(0.513698 0.943649 1.0849)
(0.772442 0.939788 1.39642)
(0.547676 1.12648 1.19332)
(0.744312 1.04837 1.38951)
(0.540905 0.850224 1.07858)
(0.753498 0.784511 1.32379)
(0.789093 0.706792 1.28949)
(0.610434 0.822936 1.21472)
(0.685337 0.814626 1.29307)
(0.824178 0.753675 1.34379)
(0.724357 0.870209 1.34607)
(0.57113 0.814721 1.12969)
(0.548994 0.885074 1.14903)
(0.745243 0.60662 1.06233)
(0.899662 0.993328 1.45075)
(0.583475 0.762573 1.06643)
(0.501942 1.14861 1.05887)
(0.498206 1.03214 1.05619)
(0.706448 0.646763 1.10983)
(0.674691 0.677202 1.12502)
(0.714323 0.655598 1.14985)
(0.746665 0.616376 1.09848)
(0.705495 0.63737 1.07397)
(0.717716 0.673728 1.19011)
(0.750888 0.643678 1.17545)
(0.780036 0.602774 1.1118)
(0.786175 0.614112 1.15481)
(0.779081 0.593048 1.07544)
(0.790307 0.632432 1.19555)
(0.889393 0.885145 1.4274)
(0.90363 0.93011 1.44155)
(0.858301 0.800035 1.38228)
(0.870564 0.83974 1.40549)
(0.837601 0.881509 1.40777)
(0.923581 0.962939 1.45327)
(0.93921 1.0099 1.46007)
(0.879045 0.960426 1.4391)
(0.522182 1.01549 1.14161)
(0.533853 1.04067 1.16915)
(0.542904 0.989004 1.18227)
(0.530632 1.09685 1.16086)
(0.551886 1.06988 1.20163)
(0.588408 1.00932 1.25008)
(0.57745 1.05394 1.23822)
(0.611447 1.04947 1.27871)
(0.565331 0.971406 1.21567)
(0.599286 0.966756 1.2562)
(0.573925 1.10995 1.23016)
(0.553709 0.946601 1.1882)
(0.65521 0.711688 1.1595)
(0.64796 0.703202 1.12013)
(0.62547 0.714868 1.07586)
(0.606472 0.75032 1.11052)
(0.652051 0.676878 1.04276)
(0.689807 0.644378 1.04291)
(0.729158 0.613435 1.03127)
(0.610971 0.723431 1.03349)
(0.518669 1.12072 1.12712)
(0.535159 1.15031 1.16001)
(0.508417 1.10792 1.09365)
(0.512235 1.16148 1.09263)
(0.514315 0.997798 1.10613)
(0.505918 1.04986 1.09236)
(0.501005 1.08943 1.0577)
(0.647227 1.04257 1.3124)
(0.636263 1.08683 1.30061)
(0.682154 1.02545 1.3415)
(0.658309 0.98799 1.31905)
(0.637475 0.950501 1.29375)
(0.673063 0.933607 1.32257)
(0.614057 0.912423 1.25987)
(0.861885 0.758441 1.36128)
(0.821422 0.795252 1.36451)
(0.794174 0.888031 1.39115)
(0.814328 0.933627 1.41218)
(0.770375 0.853496 1.36589)
(0.748864 0.904852 1.3713)
(0.7862 0.810786 1.35445)
(0.788407 0.769318 1.33351)
(0.739114 0.827414 1.33455)
(0.667289 1.12726 1.32475)
(0.632648 1.1343 1.28991)
(0.701374 1.11004 1.35379)
(0.737968 1.09412 1.381)
(0.708434 1.06399 1.36189)
(0.719003 1.00971 1.36873)
(0.602246 1.15018 1.2562)
(0.57535 1.16617 1.21941)
(0.857765 1.04073 1.43784)
(0.815669 1.05949 1.42362)
(0.785025 1.03173 1.40921)
(0.775435 1.07605 1.40467)
(0.895475 1.02974 1.44974)
(0.862358 1.00447 1.43814)
(0.840986 0.971361 1.4276)
(0.799163 0.977519 1.412)
(0.758528 0.994057 1.39262)
(0.661263 0.737319 1.19986)
(0.688009 0.711361 1.20515)
(0.620117 0.780483 1.1848)
(0.652232 0.779327 1.23033)
(0.57747 0.788423 1.09825)
(0.600356 0.776093 1.14203)
(0.591328 0.818533 1.17222)
(0.72418 0.699567 1.2303)
(0.538716 1.20362 1.14746)
(0.524522 1.21293 1.10617)
(0.514715 1.19969 1.07266)
(0.510329 1.20328 1.0295)
(0.552384 1.17944 1.18136)
(0.708442 0.920353 1.34756)
(0.688451 0.883131 1.32144)
(0.630881 0.858825 1.25696)
(0.593965 0.875724 1.21831)
(0.668421 0.855282 1.29552)
(0.647388 0.818039 1.25464)
(0.705924 0.842503 1.3187)
(0.776695 0.588491 1.03125)
(0.580078 0.763019 1.03335)
(0.557793 0.807002 1.03322)
(0.509487 0.947625 1.04239)
(0.523532 0.89797 1.04256)
(0.536452 0.851742 1.03934)
(0.562443 0.80568 1.07258)
(0.527664 0.89619 1.08187)
(0.495902 1.04331 1.02814)
(0.501507 0.991374 1.02811)
(0.506303 0.987223 1.07059)
(0.500369 1.15362 1.0295)
(0.498465 1.10096 1.02958)
(0.801559 0.651497 1.23389)
(0.831859 0.700895 1.30514)
(0.81899 0.673704 1.2712)
(0.772471 0.684381 1.25234)
(0.848922 0.724322 1.33252)
(0.807526 0.730134 1.3164)
(0.732733 0.955436 1.37247)
(0.741343 0.721912 1.26724)
(0.540151 0.924323 1.15205)
(0.56289 0.906847 1.18537)
(0.580524 0.853529 1.1817)
(0.771432 0.745571 1.30676)
(0.724855 0.760019 1.28473)
(0.690175 0.775408 1.26961)
(0.719827 0.799551 1.30812)
(0.53114 0.913843 1.1174)
(0.522025 0.953846 1.12031)
(0.556007 0.832264 1.10422)
(0.545126 0.867485 1.11415)
(0.560431 0.849579 1.13946)
(0.662342 0.790002 0.745739)
(0.592528 0.991442 0.743082)
(0.668354 0.735541 0.787688)
(0.677742 0.686592 0.842212)
(0.516258 1.02223 0.866625)
(0.748508 0.945597 0.616823)
(0.517414 1.12124 0.86521)
(0.817828 1.00931 0.574388)
(0.617027 0.807228 0.787999)
(0.549671 0.957429 0.811397)
(0.777227 0.788275 0.659207)
(0.603066 1.0944 0.731284)
(0.668455 0.955265 0.674257)
(0.610883 0.881042 0.75029)
(0.725631 0.8801 0.651146)
(0.545479 1.05146 0.803805)
(0.731699 1.03744 0.617784)
(0.744582 0.66281 0.79511)
(0.857107 0.927866 0.570885)
(0.741452 0.62518 0.874093)
(0.599234 0.734717 0.943424)
(0.519394 0.930705 0.903165)
(0.555518 0.815777 0.918519)
(0.665983 0.66571 0.924233)
(0.557785 1.14025 0.794115)
(0.565835 0.856471 0.836109)
(0.742874 0.727544 0.724028)
(0.612552 0.750959 0.85916)
(0.665122 1.07015 0.667426)
(0.497161 1.06406 0.93949)
(0.812595 0.851224 0.61003)
(0.743922 0.608092 0.941409)
(0.509856 1.18402 0.922567)
(0.687574 0.832026 0.695393)
(0.628986 1.02691 0.70165)
(0.898075 0.992364 0.549421)
(0.61433 0.843816 0.769124)
(0.636609 0.835077 0.747814)
(0.639882 0.79843 0.767057)
(0.665877 0.762712 0.766873)
(0.642944 0.771097 0.787778)
(0.674844 0.810671 0.720209)
(0.649218 0.855982 0.722704)
(0.706028 0.731145 0.756019)
(0.702578 0.758532 0.7348)
(0.715245 0.779649 0.709476)
(0.802074 0.936594 0.593581)
(0.783522 0.977233 0.595111)
(0.83709 0.968751 0.573144)
(0.740022 0.991446 0.617215)
(0.775122 1.02318 0.59562)
(0.834861 0.889147 0.589592)
(0.780216 0.898415 0.613668)
(0.737647 0.912913 0.634234)
(0.697257 0.917646 0.662953)
(0.70929 0.950523 0.64582)
(0.700665 0.996295 0.645854)
(0.769129 0.865834 0.631073)
(0.894493 1.02914 0.549954)
(0.938491 1.00927 0.539883)
(0.922825 0.962473 0.547042)
(0.531878 1.08608 0.834029)
(0.530863 1.03659 0.834887)
(0.517534 1.07111 0.8657)
(0.552376 1.09553 0.798858)
(0.537484 1.13069 0.829072)
(0.507747 1.09223 0.901963)
(0.506929 1.04293 0.902794)
(0.55602 1.18699 0.811995)
(0.536226 1.17719 0.847534)
(0.513769 1.15253 0.893626)
(0.531288 1.20874 0.876434)
(0.504508 1.12317 0.930667)
(0.857707 1.00105 0.563069)
(0.878099 0.960288 0.560823)
(0.769369 1.07029 0.59969)
(0.812153 1.05625 0.578116)
(0.853873 1.0377 0.563382)
(0.591503 0.831427 0.811892)
(0.588845 0.868248 0.793264)
(0.640356 0.74293 0.823153)
(0.615057 0.778931 0.823115)
(0.589739 0.803081 0.847274)
(0.889111 0.885389 0.572534)
(0.903504 0.930469 0.558553)
(0.867694 0.846825 0.591939)
(0.602233 0.935804 0.746649)
(0.580835 0.918727 0.780882)
(0.571026 0.97393 0.777042)
(0.558419 0.906303 0.82366)
(0.54793 1.00387 0.807437)
(0.533138 0.989403 0.83871)
(0.569172 1.02093 0.773346)
(0.534556 0.943717 0.856742)
(0.518313 0.975683 0.884696)
(0.542998 0.892993 0.869405)
(0.707177 0.856107 0.673829)
(0.751145 0.833988 0.65528)
(0.732545 0.810265 0.677708)
(0.795967 0.819844 0.635367)
(0.838359 0.775598 0.640004)
(0.825338 0.741578 0.668358)
(0.76057 0.757937 0.691456)
(0.808442 0.711687 0.701552)
(0.855479 0.806863 0.615077)
(0.598365 1.04267 0.737162)
(0.574576 1.07247 0.767651)
(0.581223 1.11681 0.762989)
(0.633576 1.13452 0.708678)
(0.604653 1.14996 0.743444)
(0.581015 1.17304 0.774854)
(0.634619 1.08212 0.699519)
(0.664158 1.12247 0.676252)
(0.616248 1.06042 0.716305)
(0.611357 1.00901 0.722625)
(0.647317 1.04853 0.684638)
(0.631422 0.973063 0.709207)
(0.640395 0.917693 0.712606)
(0.678791 0.893658 0.685662)
(0.699035 1.05365 0.642854)
(0.667116 1.01247 0.670815)
(0.649055 0.990902 0.68799)
(0.731816 1.08857 0.62292)
(0.698639 1.10509 0.64759)
(0.706495 0.698912 0.791265)
(0.710964 0.674566 0.818639)
(0.673229 0.710947 0.81465)
(0.709391 0.655654 0.857978)
(0.743021 0.643875 0.834303)
(0.784977 0.632691 0.809847)
(0.796743 0.65155 0.771068)
(0.783217 0.613703 0.849724)
(0.744717 0.694876 0.759459)
(0.795953 0.684495 0.735527)
(0.509068 0.995853 0.921225)
(0.645334 0.718219 0.850582)
(0.703584 0.645263 0.899181)
(0.671977 0.676033 0.882895)
(0.639644 0.707541 0.89121)
(0.51862 1.21741 0.918339)
(0.514716 1.22092 0.961067)
(0.651741 0.674931 0.96211)
(0.690081 0.643337 0.962072)
(0.728848 0.614433 0.970771)
(0.776433 0.589518 0.970705)
(0.704595 0.636706 0.93274)
(0.587801 0.748821 0.971639)
(0.6185 0.709456 0.971652)
(0.632757 0.699417 0.93376)
(0.543213 0.834169 0.959124)
(0.565699 0.78886 0.9589)
(0.577441 0.774523 0.930746)
(0.525556 0.891504 0.951245)
(0.511722 0.941005 0.951506)
(0.538217 0.8724 0.910737)
(0.495223 1.05933 0.969732)
(0.501118 1.00683 0.96973)
(0.498609 1.11075 0.969574)
(0.504729 1.17118 0.961039)
(0.77854 0.594021 0.92621)
(0.77715 0.602654 0.892318)
(0.742973 0.61669 0.907593)
(0.606086 0.742595 0.900982)
(0.584343 0.782715 0.888668)
(0.561217 0.836055 0.876925)
(0.736392 1.45142 0.819279)
(0.689289 1.38696 0.780395)
(0.987343 1.53531 0.843691)
(0.805772 1.30752 0.643712)
(0.568921 1.33068 0.884548)
(1.08673 1.53718 0.865659)
(0.946801 1.20532 0.559811)
(0.912648 1.31649 0.614398)
(0.637946 1.40843 0.866274)
(0.773795 1.39536 0.726319)
(0.700892 1.31087 0.709782)
(0.718917 1.48623 0.917005)
(0.877146 1.40851 0.689945)
(0.859928 1.24253 0.593539)
(0.840984 1.46735 0.773714)
(0.867618 1.15562 0.56886)
(1.06322 1.50264 0.783407)
(0.801153 1.20149 0.604061)
(0.581447 1.37753 0.937682)
(1.02669 1.56083 0.932877)
(0.907995 1.54589 0.911511)
(0.952471 1.48027 0.750229)
(1.00155 1.30666 0.59468)
(0.619171 1.31205 0.787708)
(0.63748 1.4392 0.942845)
(0.898667 1.5137 0.825229)
(1.04261 1.37497 0.640822)
(0.968595 1.39772 0.65872)
(0.544496 1.31607 0.944187)
(1.10957 1.55141 0.940452)
(0.939113 1.11534 0.543598)
(0.81049 1.50407 0.858551)
(0.815707 1.5292 0.935976)
(1.05272 1.43711 0.696236)
(0.643231 1.25439 0.730846)
(0.735827 1.23112 0.647505)
(1.09429 1.55644 0.970272)
(1.14365 1.54517 0.970015)
(1.14194 1.53991 0.923594)
(0.686945 1.43003 0.842461)
(0.66357 1.39807 0.823201)
(0.712803 1.4195 0.799438)
(0.732158 1.39115 0.753213)
(0.756021 1.42376 0.77257)
(0.727692 1.46925 0.86813)
(0.678526 1.44778 0.891189)
(0.807624 1.43135 0.749585)
(0.789341 1.45923 0.796258)
(0.773559 1.47785 0.838416)
(0.765009 1.49487 0.887743)
(0.826001 1.48638 0.81606)
(0.567865 1.36252 0.968639)
(0.595821 1.3999 0.96871)
(0.531087 1.28725 0.971797)
(0.549282 1.33191 0.971955)
(0.56299 1.34689 0.940831)
(0.623792 1.43053 0.971341)
(0.661504 1.45996 0.9713)
(0.609272 1.40858 0.940147)
(0.702275 1.48345 0.958607)
(0.748047 1.50481 0.958304)
(0.678021 1.46278 0.929876)
(0.846345 1.54002 0.96786)
(0.796407 1.52622 0.968129)
(0.76764 1.50745 0.926212)
(0.892375 1.54824 0.955924)
(0.943049 1.55457 0.955464)
(0.862349 1.53703 0.92367)
(1.00255 1.56268 0.96667)
(1.0529 1.56138 0.966199)
(0.96762 1.55244 0.921893)
(1.06819 1.55627 0.936456)
(0.958377 1.07089 0.537374)
(0.91542 1.09053 0.547699)
(0.974846 1.11821 0.539664)
(0.561272 1.28274 0.85722)
(0.548117 1.2909 0.89907)
(0.55696 1.32331 0.91431)
(0.536055 1.28355 0.92915)
(0.58624 1.27292 0.809066)
(0.593495 1.32173 0.835652)
(0.609615 1.3929 0.90202)
(0.575444 1.35419 0.91111)
(0.603207 1.3697 0.875026)
(0.62856 1.36109 0.826184)
(1.03755 1.53699 0.853864)
(1.02552 1.52011 0.812865)
(1.07485 1.52006 0.824482)
(1.1142 1.49754 0.800586)
(1.12631 1.51593 0.8413)
(1.05679 1.54962 0.899256)
(1.09808 1.54437 0.903087)
(1.00707 1.5482 0.888181)
(1.13045 1.532 0.886149)
(0.611571 1.25948 0.770659)
(0.653312 1.21457 0.707802)
(0.623586 1.23032 0.743127)
(0.631835 1.28322 0.75901)
(0.734077 1.18528 0.637788)
(0.698772 1.20332 0.666065)
(0.690029 1.24292 0.688361)
(0.804215 1.15228 0.593033)
(0.76653 1.17059 0.616433)
(0.76942 1.21595 0.626595)
(0.879488 1.11068 0.561061)
(0.836743 1.12947 0.575667)
(0.834164 1.1786 0.585807)
(0.904553 1.13549 0.557994)
(0.895489 1.36241 0.651846)
(0.84167 1.35819 0.666517)
(0.859053 1.31184 0.629233)
(0.833757 1.27493 0.618832)
(0.886189 1.27978 0.604006)
(0.830405 1.22212 0.598761)
(0.803949 1.25463 0.623953)
(0.770746 1.26952 0.645785)
(0.737247 1.35343 0.717587)
(0.754046 1.30914 0.676575)
(0.790791 1.35161 0.684435)
(0.82613 1.40148 0.70834)
(0.718621 1.27129 0.677596)
(0.654148 1.34966 0.783672)
(0.696037 1.34906 0.744719)
(0.661259 1.31116 0.748968)
(0.904034 1.22377 0.577877)
(0.930979 1.26171 0.586773)
(0.974316 1.25695 0.575999)
(0.958451 1.31227 0.604364)
(0.863794 1.19913 0.580846)
(0.90807 1.18012 0.565806)
(0.943379 1.16009 0.552534)
(0.996847 1.20965 0.558464)
(1.02543 1.25937 0.577803)
(0.979065 1.16317 0.548209)
(0.941205 1.35673 0.636508)
(0.922759 1.40287 0.674447)
(0.986451 1.35222 0.626398)
(0.638028 1.4239 0.904622)
(0.85999 1.43786 0.73181)
(0.671895 1.28276 0.720155)
(0.813165 1.51642 0.897271)
(0.896858 1.4725 0.762163)
(0.91522 1.44418 0.719564)
(0.961899 1.44023 0.703188)
(0.925592 1.49666 0.788089)
(0.869999 1.49047 0.799095)
(0.855098 1.50859 0.841827)
(1.00429 1.46099 0.721317)
(1.05966 1.46987 0.739284)
(1.00906 1.49249 0.765155)
(1.10201 1.43801 0.715404)
(1.10778 1.4715 0.758743)
(0.970182 1.50767 0.796596)
(1.01121 1.41826 0.676176)
(1.04789 1.40587 0.668462)
(1.00647 1.38701 0.6489)
(1.08805 1.40519 0.678698)
(1.0827 1.37443 0.651036)
(0.947698 1.54025 0.877981)
(0.903293 1.52996 0.868332)
(0.859698 1.52426 0.884447)
(0.943005 1.52373 0.83414)
(1.02252 1.34078 0.617318)
(1.04507 1.30154 0.598715)
(1.06619 1.33591 0.621937)
(0.889764 0.952481 1.22626)
(0.839991 0.839087 1.10675)
(0.753855 0.930912 1.07784)
(0.861669 1.02607 1.2286)
(0.715034 1.03017 1.06319)
(0.824112 0.976206 1.19089)
(0.873197 0.886548 1.17927)
(0.796345 0.927713 1.13844)
(0.758685 1.02199 1.1348)
(0.927526 1.00806 1.25472)
(0.80254 0.842583 1.04709)
(0.805856 1.05464 1.18602)
(0.740062 1.08576 1.11107)
(0.856731 0.794594 1.04698)
(0.711677 1.10346 1.05188)
(0.715376 1.13343 1.02596)
(0.723849 1.1294 1.06397)
(0.737941 1.12034 1.09336)
(0.760414 1.11071 1.12829)
(0.72601 1.09447 1.08109)
(0.857583 0.863327 1.14146)
(0.835594 0.907124 1.15886)
(0.818711 0.884097 1.12235)
(0.797989 0.885308 1.09204)
(0.775613 0.929262 1.10741)
(0.779228 0.887336 1.06224)
(0.821563 0.840581 1.07663)
(0.848761 0.816878 1.07648)
(0.829949 0.818586 1.04703)
(0.902027 0.850619 1.1627)
(0.886544 0.82656 1.12588)
(0.880331 0.80512 1.09068)
(0.888458 0.782382 1.06107)
(0.756495 0.977077 1.10551)
(0.737341 1.02621 1.09792)
(0.735299 0.981078 1.06992)
(0.716312 1.00307 1.03114)
(0.736714 0.953809 1.03838)
(0.74941 1.05386 1.12261)
(0.727469 1.05803 1.08662)
(0.707514 1.05045 1.03152)
(0.713097 1.06671 1.05737)
(0.705621 1.08707 1.02573)
(0.933503 0.954371 1.23952)
(0.951575 0.98181 1.25478)
(0.908836 0.980532 1.24055)
(0.966922 1.02488 1.2652)
(0.894955 1.01733 1.24218)
(0.875672 0.989372 1.22788)
(0.92512 1.04243 1.25552)
(0.89231 1.05168 1.24254)
(0.848988 0.931928 1.1858)
(0.810588 0.952315 1.164)
(0.777957 0.97521 1.13654)
(0.792498 0.999205 1.16176)
(0.81667 0.826032 1.02342)
(0.783168 0.864326 1.02307)
(0.843687 0.802055 1.02337)
(0.758916 0.908925 1.03837)
(0.920223 0.915961 1.21777)
(0.881565 0.920114 1.20268)
(0.857009 0.964404 1.2091)
(0.911548 0.8825 1.19458)
(0.842982 1.00117 1.20977)
(0.853595 1.06764 1.22)
(0.793865 1.09517 1.16562)
(0.825622 1.08178 1.19817)
(0.834303 1.04037 1.20733)
(0.773773 1.07012 1.14672)
(0.886469 0.77561 1.02347)
(0.782727 1.03832 1.15962)
(0.814931 1.01551 1.18853)
(0.791048 1.21764 1.10959)
(1.0271 1.33095 1.11871)
(0.974643 1.35062 1.06162)
(0.988775 1.28503 1.1717)
(0.913415 1.24755 1.18435)
(0.985312 1.19783 1.23434)
(0.935749 1.31132 1.1283)
(0.888695 1.32563 1.06808)
(0.911872 1.16177 1.23196)
(1.05773 1.35578 1.05595)
(0.860883 1.27477 1.12615)
(0.848967 1.20338 1.17635)
(0.806672 1.27349 1.0603)
(0.755497 1.21671 1.05059)
(0.973125 1.12321 1.26234)
(0.931772 1.33857 1.06487)
(0.955761 1.33153 1.095)
(0.912559 1.31889 1.09795)
(0.875127 1.30035 1.09716)
(0.898025 1.29362 1.12739)
(0.982833 1.32056 1.12285)
(1.00826 1.3081 1.14527)
(0.963217 1.2984 1.14971)
(1.00185 1.34084 1.08985)
(0.951735 1.26628 1.17758)
(0.925034 1.28005 1.15614)
(0.88752 1.26204 1.15517)
(0.745674 1.18588 1.06341)
(0.73766 1.18979 1.02495)
(0.785975 1.17652 1.12765)
(0.763508 1.18622 1.09233)
(0.773278 1.21708 1.07973)
(1.06595 1.31017 1.14396)
(1.07477 1.33292 1.10487)
(1.04281 1.3436 1.0877)
(1.09078 1.34527 1.07276)
(1.09315 1.35374 1.02813)
(1.01354 1.16598 1.25268)
(1.02992 1.20852 1.2336)
(1.03228 1.25183 1.20026)
(1.04574 1.28654 1.17093)
(0.987562 1.24126 1.20169)
(1.00714 1.12805 1.26603)
(0.989361 1.08273 1.27039)
(0.97944 1.16044 1.24888)
(0.878047 1.13566 1.22211)
(0.917546 1.1192 1.24503)
(0.943459 1.14216 1.24689)
(0.94814 1.09981 1.25911)
(0.880782 1.18275 1.20378)
(0.847279 1.15597 1.19335)
(0.949361 1.17926 1.23262)
(0.913163 1.20428 1.20712)
(0.880965 1.22579 1.1806)
(0.950811 1.2218 1.20753)
(0.76149 1.23173 1.02524)
(0.815242 1.16923 1.16079)
(0.820665 1.21032 1.14179)
(0.799154 1.24538 1.08488)
(0.781284 1.24485 1.05514)
(0.834304 1.2738 1.09236)
(0.826306 1.24587 1.11718)
(0.855388 1.23939 1.15091)
(1.04397 1.35962 1.02781)
(1.01695 1.35242 1.05867)
(1.003 1.35664 1.03101)
(0.787025 1.26024 1.02966)
(0.822685 1.29303 1.03028)
(0.909528 1.33917 1.03434)
(0.863824 1.31929 1.03353)
(0.847793 1.29959 1.06385)
(0.95271 1.3513 1.03064)
(0.908854 1.17569 0.774789)
(1.04863 1.32545 0.87026)
(0.841957 1.28594 0.912632)
(0.995315 1.20074 0.763381)
(0.865906 1.2486 0.846288)
(0.955459 1.31533 0.869963)
(0.84377 1.16895 0.81081)
(0.942951 1.25241 0.809057)
(0.792959 1.2078 0.880297)
(1.01314 1.27671 0.814219)
(1.02135 1.35394 0.93725)
(0.974508 1.12652 0.73858)
(0.911001 1.338 0.94258)
(0.77183 1.23843 0.949575)
(0.764202 1.18176 0.902553)
(0.786383 1.17198 0.866984)
(0.745972 1.20039 0.975336)
(0.754068 1.19662 0.93691)
(0.782534 1.22296 0.915364)
(0.819104 1.18809 0.847113)
(0.812328 1.15237 0.83278)
(0.844036 1.13911 0.799614)
(0.915911 1.1261 0.758374)
(0.942681 1.15091 0.756787)
(0.948759 1.10141 0.741751)
(0.985116 1.16342 0.750514)
(0.953171 1.18774 0.769844)
(0.904198 1.25124 0.827496)
(0.926238 1.21386 0.792503)
(0.888486 1.21224 0.811565)
(0.970247 1.22622 0.787377)
(0.876383 1.14241 0.781009)
(0.876412 1.17236 0.792651)
(0.855464 1.20847 0.829146)
(0.769757 1.24257 0.974629)
(0.830228 1.2274 0.864241)
(0.81822 1.24634 0.896884)
(0.854664 1.26728 0.880118)
(0.807295 1.26175 0.931833)
(0.990061 1.08442 0.73017)
(1.00788 1.12971 0.734453)
(1.01868 1.16721 0.746534)
(0.985771 1.29595 0.843035)
(0.97886 1.26424 0.812223)
(0.949745 1.28439 0.839809)
(1.00446 1.23889 0.789322)
(0.910239 1.28304 0.857892)