/*--------------------------------*- C++ -*----------------------------------*\
| =========                 |                                                 |
| \\      /  F ield         | OpenFOAM: The Open Source CFD Toolbox           |
|  \\    /   O peration     | Version:  v1806                                 |
|   \\  /    A nd           | Web:      www.OpenFOAM.com                      |
|    \\/     M anipulation  |                                                 |
\*---------------------------------------------------------------------------*/
FoamFile
{
    version     2.0;
    format      ascii;
    class       volVectorField;
    location    "0.024";
    object      U;
}
// * * * * * * * * * * * * * * * * * * * * * * * * * * * * * * * * * * * * * //

dimensions      [0 1 -1 0 0 0 0];


internalField   nonuniform List<vector> 
64000
(
(-0.00366869 -0.00628968 -0.00099322)
(0.0124249 -0.00776178 -0.000486803)
(0.0269448 -0.00516309 0.00230923)
(0.0351861 -0.00491745 0.00290141)
(0.0286986 -0.00352378 0.00361138)
(0.0208706 -0.00219239 0.00483998)
(0.0195311 -0.00269213 0.00473342)
(0.0158016 -0.00340071 0.00453822)
(0.0127096 -0.00535912 0.00542105)
(0.00757656 -0.00619026 0.00488815)
(-0.00222798 -0.00981349 0.0055806)
(-0.0209879 -0.0109007 0.00673849)
(-0.0437136 -0.012782 0.00574478)
(-0.0727533 -0.0130929 0.00431223)
(-0.107358 -0.00998734 0.00516028)
(-0.144001 -0.00161784 0.00391933)
(-0.185862 0.00699859 0.00389116)
(-0.222301 0.00139647 0.00599876)
(-0.262352 -0.00907796 0.00478022)
(-0.274201 -0.0176547 -0.00560481)
(-0.301161 -0.0384983 -0.0418269)
(-0.187824 -0.0218417 -0.0344782)
(-0.0820715 -0.0237439 -0.0376315)
(-0.0976756 -0.0072076 -0.0372256)
(-0.0792031 -0.00201372 -0.0505489)
(-0.0811294 0.00818437 -0.0590083)
(-0.062772 0.0175785 -0.0656558)
(-0.0391052 0.0293006 -0.0611551)
(-0.00618368 0.0401129 -0.0494124)
(0.038283 0.0543048 -0.0304568)
(0.0831996 0.0414695 -0.0315113)
(0.116804 0.0349256 -0.0213069)
(0.130677 0.0232616 -0.00917268)
(0.126279 0.0100618 -0.00199434)
(0.108186 0.00200164 0.00336795)
(0.0841185 -0.00482543 0.0053594)
(0.0600997 -0.00783057 0.00745712)
(0.0384583 -0.00655496 0.00823015)
(0.0198738 -0.00493671 0.00841131)
(0.0045905 -0.00378103 0.0071501)
(-0.00245696 -0.00909339 0.000434798)
(0.0138092 -0.0189958 -0.00012396)
(0.0370052 -0.0160374 0.000680756)
(0.0511506 -0.0125886 0.000850008)
(0.0494388 -0.00631682 0.00103915)
(0.0410356 -0.00235751 5.38874e-06)
(0.0369608 0.00027844 -0.00175982)
(0.0285586 0.00343143 -0.00167798)
(0.0191907 0.00728685 -0.00626861)
(0.00261768 0.0192898 -0.00323681)
(-0.0217508 0.0276657 -0.00669717)
(-0.0584175 0.0395582 0.000740358)
(-0.105645 0.0527609 -0.00224321)
(-0.160635 0.0709709 -0.00489954)
(-0.222412 0.07878 -0.0081369)
(-0.293268 0.0849927 -0.0211146)
(-0.390571 0.0906237 -0.0411613)
(-0.485764 0.0961522 -0.0550959)
(-0.56424 0.0996604 -0.072375)
(-0.615472 0.108707 -0.0934804)
(-0.636791 0.10507 -0.119676)
(-0.5069 0.142437 -0.127217)
(-0.391684 0.161485 -0.149713)
(-0.384546 0.203125 -0.154735)
(-0.346383 0.225012 -0.164517)
(-0.31148 0.24876 -0.171296)
(-0.252963 0.266472 -0.173828)
(-0.185284 0.280984 -0.165537)
(-0.105548 0.291622 -0.142926)
(-0.0412811 0.295667 -0.117294)
(0.0240515 0.282075 -0.075424)
(0.0935752 0.250993 -0.0497873)
(0.126219 0.199968 -0.0390443)
(0.139588 0.152914 -0.0278273)
(0.131201 0.106147 -0.0140194)
(0.107975 0.0680639 -0.0061864)
(0.0845126 0.0414059 -0.0014576)
(0.0599412 0.0262026 0.000104421)
(0.0350424 0.0165411 0.0018339)
(0.0105373 0.00665538 0.00382603)
(-1.93657e-05 -0.0192126 0.00224001)
(0.0179655 -0.0291282 -0.000633363)
(0.0439151 -0.0234876 -0.0008097)
(0.0601041 -0.0129006 0.00044507)
(0.0558626 -0.000744978 -0.00223703)
(0.042579 0.018558 -0.00250326)
(0.0344037 0.031351 -0.00366549)
(0.0204002 0.0488309 -0.00710212)
(0.00828094 0.075334 -0.000478648)
(-0.0175484 0.100419 -0.00443856)
(-0.0609811 0.124508 -0.00867274)
(-0.116761 0.150884 -0.0126325)
(-0.182243 0.174911 -0.0178374)
(-0.271473 0.195037 -0.0291231)
(-0.374986 0.214846 -0.0336203)
(-0.46969 0.22781 -0.0449899)
(-0.563425 0.240824 -0.0572949)
(-0.645179 0.267771 -0.0706432)
(-0.714603 0.29664 -0.0866385)
(-0.755015 0.331857 -0.105136)
(-0.759266 0.361478 -0.122517)
(-0.608431 0.39611 -0.12028)
(-0.470323 0.433351 -0.133044)
(-0.448476 0.476241 -0.126899)
(-0.404922 0.503765 -0.125924)
(-0.365727 0.524727 -0.124043)
(-0.308544 0.534436 -0.120352)
(-0.243433 0.532718 -0.110547)
(-0.173314 0.521747 -0.0912878)
(-0.10581 0.496571 -0.0678623)
(-0.0505182 0.476865 -0.0449403)
(-0.0120239 0.431765 -0.0266075)
(0.0235254 0.372052 -0.0109776)
(0.051123 0.302648 -0.00607976)
(0.0570524 0.230613 -0.00930491)
(0.0564924 0.168955 -0.00866261)
(0.0517577 0.118078 -0.00680481)
(0.0424041 0.0798957 -0.00394059)
(0.0289622 0.0522709 -0.000374027)
(0.00983191 0.022721 0.00348885)
(0.000108159 -0.0266797 0.00151124)
(0.0208304 -0.0345784 -0.00222083)
(0.0501295 -0.0220453 -0.00213035)
(0.0641923 -0.00211389 -0.0018648)
(0.0646569 0.019782 -0.00479642)
(0.0475977 0.0598081 -0.00684549)
(0.0276245 0.0944249 -0.00677082)
(0.0129694 0.129883 -0.00309471)
(-0.0149498 0.163431 -0.00845772)
(-0.0654033 0.187335 -0.0110252)
(-0.123339 0.213282 -0.0148504)
(-0.195498 0.239659 -0.0217961)
(-0.281647 0.271625 -0.0255295)
(-0.366922 0.292271 -0.0271363)
(-0.452895 0.326831 -0.0328636)
(-0.537862 0.360206 -0.0419483)
(-0.618348 0.394915 -0.0490467)
(-0.685906 0.430811 -0.0542992)
(-0.737915 0.465429 -0.0599775)
(-0.764825 0.505889 -0.0664636)
(-0.757001 0.53663 -0.0673994)
(-0.590292 0.561643 -0.0490498)
(-0.439121 0.587517 -0.0510397)
(-0.414679 0.608715 -0.0354132)
(-0.377688 0.617692 -0.0269993)
(-0.348249 0.618005 -0.020964)
(-0.305915 0.606329 -0.0174013)
(-0.258396 0.583401 -0.0132133)
(-0.20637 0.554585 -0.00330822)
(-0.156941 0.516763 0.00439628)
(-0.11578 0.47428 0.00984238)
(-0.0837302 0.429986 0.0113507)
(-0.0648778 0.385995 0.00869334)
(-0.046486 0.333257 0.00340646)
(-0.0273455 0.273512 -0.0012353)
(-0.0125509 0.213212 -0.00615059)
(0.000207874 0.150205 -0.00716155)
(0.0113712 0.109147 -0.00633661)
(0.017021 0.0755239 -0.00211079)
(0.00804264 0.0307523 0.00303552)
(0.00127636 -0.0313565 0.000779279)
(0.0264937 -0.0317654 -0.0039884)
(0.0598418 -0.012504 -0.000963206)
(0.0729119 0.0166149 -0.00316471)
(0.0767757 0.0519003 -0.00270287)
(0.061599 0.100762 -0.0135976)
(0.0299338 0.14374 -0.00497768)
(-0.00817055 0.188871 -0.00371764)
(-0.0568283 0.220856 -0.00566114)
(-0.114145 0.254038 -0.00963355)
(-0.17446 0.290022 -0.0133987)
(-0.235553 0.323186 -0.0167549)
(-0.308396 0.3626 -0.021054)
(-0.38627 0.402482 -0.0191897)
(-0.459492 0.444444 -0.0210454)
(-0.529478 0.481555 -0.0211897)
(-0.591626 0.518354 -0.0179878)
(-0.642179 0.556595 -0.0122814)
(-0.676896 0.593871 -0.00660797)
(-0.692216 0.633119 -0.0100189)
(-0.682883 0.660487 -0.0082526)
(-0.514694 0.675314 0.0150207)
(-0.363951 0.676377 0.0161979)
(-0.344823 0.669243 0.0338182)
(-0.320276 0.64918 0.0385675)
(-0.309949 0.623623 0.0436357)
(-0.290444 0.589706 0.0463417)
(-0.263066 0.549308 0.0459448)
(-0.233311 0.506803 0.0418201)
(-0.206051 0.462728 0.0347364)
(-0.181037 0.417226 0.0255058)
(-0.160602 0.371201 0.0181742)
(-0.139299 0.330311 0.0128185)
(-0.121287 0.292008 0.00493335)
(-0.108161 0.253534 -0.00326498)
(-0.0937719 0.205632 -0.00951019)
(-0.0603461 0.154333 -0.0096861)
(-0.0176024 0.121749 -0.00808299)
(0.00423666 0.089699 -0.00329325)
(0.00484814 0.0346146 0.00336987)
(0.0039738 -0.0348053 0.000661665)
(0.0329056 -0.0272544 -0.00425084)
(0.0683313 0.00313878 -0.0045726)
(0.0829725 0.0407351 -0.00425528)
(0.0883241 0.0883591 -0.00614804)
(0.0624029 0.137688 -0.0104171)
(0.0204576 0.174619 0.00249233)
(-0.0226692 0.224776 -0.000704844)
(-0.075939 0.270179 -0.00387739)
(-0.128865 0.318901 -0.00739234)
(-0.184215 0.366239 -0.00942096)
(-0.241 0.409119 -0.0096431)
(-0.299652 0.446135 -0.00685535)
(-0.354776 0.483663 -0.00237502)
(-0.411588 0.520282 -0.00201103)
(-0.467705 0.557647 0.000925269)
(-0.513128 0.597511 0.00585805)
(-0.547856 0.64046 0.0120356)
(-0.572101 0.67611 0.0148464)
(-0.585368 0.706751 0.0136579)
(-0.578343 0.725393 0.0200733)
(-0.424402 0.728514 0.0451418)
(-0.289864 0.677198 0.0458906)
(-0.285825 0.634235 0.061883)
(-0.280894 0.588297 0.0691467)
(-0.287658 0.543815 0.0712914)
(-0.287581 0.498626 0.0685502)
(-0.280767 0.452848 0.0645974)
(-0.266409 0.405372 0.0606203)
(-0.252855 0.363795 0.0480474)
(-0.242693 0.32453 0.0356806)
(-0.227873 0.289392 0.0215282)
(-0.212591 0.25994 0.00997626)
(-0.190702 0.229837 0.00450197)
(-0.168985 0.204776 -0.0041796)
(-0.147879 0.181579 -0.0117936)
(-0.0968712 0.154069 -0.0119945)
(-0.0366257 0.128311 -0.00954364)
(-0.00201678 0.0954103 -0.00559642)
(0.00398014 0.0356465 0.00333185)
(0.00448009 -0.0305939 -0.00104576)
(0.0419623 -0.00931415 -0.00573529)
(0.0837996 0.0261191 -0.00977443)
(0.0991222 0.0734384 -0.00717864)
(0.100425 0.126959 -0.0104831)
(0.0606671 0.170436 -0.00430681)
(0.0181134 0.21768 0.00425199)
(-0.0178885 0.268621 -0.000494873)
(-0.0666938 0.326613 -0.00166932)
(-0.112403 0.379824 -0.00349841)
(-0.160386 0.430255 -0.00338948)
(-0.20653 0.472845 -0.0017618)
(-0.254276 0.509681 0.00192038)
(-0.299021 0.544001 0.00705669)
(-0.338139 0.572016 0.00965918)
(-0.371751 0.601472 0.0168547)
(-0.397332 0.629211 0.0231108)
(-0.425149 0.661865 0.0253131)
(-0.451797 0.685329 0.0286931)
(-0.466831 0.703047 0.0267676)
(-0.470308 0.712786 0.0308254)
(-0.372361 0.712691 0.0503298)
(-0.275043 0.627968 0.0487713)
(-0.263493 0.556049 0.0563302)
(-0.265775 0.497808 0.0599548)
(-0.285522 0.452141 0.0605096)
(-0.300279 0.410032 0.0577672)
(-0.309012 0.371227 0.0537573)
(-0.307447 0.331059 0.0460369)
(-0.302158 0.295754 0.0349814)
(-0.296835 0.262971 0.0217898)
(-0.285918 0.236064 0.0120765)
(-0.271095 0.216309 0.00138746)
(-0.249713 0.203933 -0.00327458)
(-0.219255 0.190336 -0.00795859)
(-0.187012 0.179652 -0.0172025)
(-0.129297 0.164447 -0.0184808)
(-0.0562607 0.1403 -0.0139983)
(-0.00795329 0.104174 -0.00735769)
(0.00508103 0.038987 0.00239445)
(0.00770878 -0.0248091 -0.0003756)
(0.0461809 0.0160077 -0.0152238)
(0.094223 0.0584688 -0.0150255)
(0.116527 0.110967 -0.0116387)
(0.107817 0.160162 -0.0119809)
(0.0678159 0.204237 -0.00324753)
(0.0304649 0.264288 0.00195389)
(0.00305087 0.314853 0.00333452)
(-0.0348999 0.369958 0.00190842)
(-0.0755768 0.42316 0.00258457)
(-0.115838 0.466696 0.00432437)
(-0.155858 0.501148 0.00941583)
(-0.19008 0.53175 0.0156918)
(-0.221092 0.556904 0.0191902)
(-0.251007 0.574388 0.0238743)
(-0.278424 0.585929 0.0279246)
(-0.296377 0.590525 0.0317589)
(-0.317399 0.598437 0.0282038)
(-0.345803 0.603174 0.0249686)
(-0.36798 0.605216 0.0216143)
(-0.380747 0.609204 0.0257277)
(-0.334477 0.617501 0.0380863)
(-0.28815 0.550721 0.0360223)
(-0.281206 0.477929 0.0366778)
(-0.280071 0.41013 0.036555)
(-0.30098 0.370009 0.0380392)
(-0.322783 0.337104 0.0387761)
(-0.340258 0.304995 0.0380776)
(-0.345906 0.271865 0.0333111)
(-0.346397 0.23954 0.0178176)
(-0.346724 0.208391 0.012494)
(-0.334641 0.182742 0.00247164)
(-0.316741 0.16879 -0.00360415)
(-0.293112 0.164367 -0.00793007)
(-0.26279 0.169622 -0.0129991)
(-0.223428 0.174217 -0.0180301)
(-0.155555 0.170174 -0.0224329)
(-0.0746947 0.149546 -0.0171942)
(-0.0128938 0.113017 -0.00916657)
(0.00601318 0.0414574 0.00201218)
(0.0103571 -0.00987932 -0.00237386)
(0.0568346 0.0463141 -0.0224722)
(0.11158 0.0994461 -0.0233119)
(0.13136 0.147941 -0.0158687)
(0.120436 0.191882 -0.0140733)
(0.0906749 0.242889 -0.00542177)
(0.0599226 0.302936 0.00218091)
(0.0318485 0.357303 0.00641737)
(0.00572225 0.401145 0.0106742)
(-0.0269134 0.440694 0.0115908)
(-0.065354 0.475421 0.0144326)
(-0.0938698 0.502197 0.0219516)
(-0.1202 0.521558 0.0261754)
(-0.148103 0.529587 0.0287036)
(-0.173836 0.528847 0.0302922)
(-0.1989 0.519548 0.0302163)
(-0.214809 0.506855 0.0288804)
(-0.237379 0.498024 0.0195808)
(-0.271935 0.483392 0.0137731)
(-0.296049 0.483875 0.0140366)
(-0.307615 0.500146 0.0202744)
(-0.300742 0.518143 0.0264946)
(-0.307207 0.482224 0.0236377)
(-0.321882 0.42416 0.0204013)
(-0.315736 0.351622 0.0162309)
(-0.321826 0.310605 0.0180423)
(-0.345985 0.284982 0.0221325)
(-0.369805 0.257505 0.0253473)
(-0.382183 0.228846 0.0214465)
(-0.388473 0.193503 0.0107415)
(-0.390693 0.166116 0.000671251)
(-0.377876 0.145714 -0.00380998)
(-0.356302 0.130785 -0.0111314)
(-0.325643 0.132257 -0.0161882)
(-0.285194 0.139573 -0.0167316)
(-0.245417 0.160818 -0.020897)
(-0.180383 0.16926 -0.0241715)
(-0.0923694 0.159396 -0.0221079)
(-0.0185794 0.123119 -0.0112637)
(0.00656667 0.0464557 0.00104763)
(0.00824462 0.0107683 -0.00896732)
(0.0592045 0.0877015 -0.0306108)
(0.121131 0.142809 -0.0291958)
(0.142788 0.18612 -0.0199054)
(0.139969 0.229874 -0.017916)
(0.121327 0.279172 -0.00784697)
(0.0985372 0.333737 -0.00237355)
(0.0723395 0.381374 0.0103423)
(0.041777 0.419418 0.0193689)
(0.0181679 0.445724 0.0240153)
(-0.00644639 0.46679 0.0265569)
(-0.0335262 0.478971 0.0329385)
(-0.0587272 0.483777 0.0359442)
(-0.0851635 0.476945 0.0350926)
(-0.113669 0.4607 0.0321031)
(-0.142015 0.435443 0.0271021)
(-0.157883 0.413521 0.0205822)
(-0.187102 0.389508 0.00539352)
(-0.218672 0.375224 0.0046595)
(-0.227354 0.395596 0.00982567)
(-0.242777 0.422566 0.0159633)
(-0.270191 0.441028 0.0189032)
(-0.320184 0.430182 0.0155007)
(-0.36683 0.392938 0.011519)
(-0.361659 0.3335 0.00735271)
(-0.344965 0.271697 0.00673345)
(-0.360008 0.247273 0.0121461)
(-0.38668 0.221481 0.0160105)
(-0.407553 0.193295 0.0163154)
(-0.416836 0.161609 0.00775492)
(-0.416229 0.131001 0.0127222)
(-0.409714 0.108693 0.0163558)
(-0.389725 0.092505 0.0157943)
(-0.360679 0.0909979 0.00867123)
(-0.317598 0.104816 -0.0117785)
(-0.265435 0.128928 -0.0203858)
(-0.195577 0.161701 -0.0232446)
(-0.105868 0.159137 -0.02164)
(-0.0248554 0.13146 -0.0125457)
(0.00692791 0.0494524 0.00129111)
(0.00866448 0.0260985 -0.0113588)
(0.0630017 0.127201 -0.0357939)
(0.130059 0.186384 -0.0345334)
(0.159193 0.227781 -0.0227329)
(0.16448 0.269738 -0.0175197)
(0.155564 0.311887 -0.0103239)
(0.137407 0.356579 -0.00129506)
(0.112038 0.392369 0.00724766)
(0.0875379 0.42096 0.0144664)
(0.0625691 0.442096 0.0306582)
(0.0359701 0.449645 0.0379993)
(0.0175375 0.449287 0.0462743)
(-0.00422202 0.435729 0.0446885)
(-0.0355635 0.415413 0.038637)
(-0.0698206 0.391023 0.0300392)
(-0.0996705 0.359917 0.0206459)
(-0.122387 0.33823 0.0077159)
(-0.151425 0.306712 -0.00442803)
(-0.160057 0.321647 0.00225008)
(-0.162686 0.346174 0.00697472)
(-0.194298 0.364977 0.0135655)
(-0.240762 0.3789 0.0168889)
(-0.313886 0.382528 0.0124608)
(-0.382858 0.363328 0.00822601)
(-0.403872 0.331605 0.00450218)
(-0.375121 0.25806 0.00315258)
(-0.363662 0.212099 0.00412925)
(-0.392929 0.187285 0.00841966)
(-0.416275 0.161318 0.00616518)
(-0.434849 0.129053 0.0263225)
(-0.443982 0.093837 0.0311544)
(-0.439624 0.063124 0.0243222)
(-0.424069 0.0490354 0.0138039)
(-0.3895 0.0467494 0.00960112)
(-0.340295 0.0617522 0.00185179)
(-0.278449 0.0890945 -0.0159603)
(-0.207993 0.133369 -0.0248235)
(-0.120146 0.155611 -0.0220425)
(-0.0284123 0.135574 -0.014557)
(0.00491378 0.0538861 0.000827908)
(0.00691382 0.0458863 -0.0133358)
(0.0634816 0.169063 -0.0408513)
(0.1377 0.232856 -0.0398126)
(0.175769 0.270873 -0.024547)
(0.190076 0.305943 -0.0142894)
(0.187058 0.33918 -0.00728735)
(0.173375 0.371204 -0.00428246)
(0.150119 0.395215 0.00878972)
(0.126886 0.413717 0.0149046)
(0.105617 0.424965 0.0255952)
(0.0832132 0.427645 0.0342762)
(0.0569103 0.419422 0.0512058)
(0.0298178 0.395198 0.0505552)
(0.00399549 0.363109 0.0418309)
(-0.0333858 0.331958 0.0253595)
(-0.0661432 0.304395 0.011663)
(-0.096165 0.282101 -0.0051392)
(-0.106212 0.276908 -0.00399266)
(-0.100126 0.297574 -0.000564542)
(-0.120095 0.306282 0.00626113)
(-0.156949 0.313107 0.0156698)
(-0.205697 0.321906 0.0200201)
(-0.289931 0.331415 0.0134529)
(-0.369266 0.322293 0.0100276)
(-0.414442 0.306053 0.0043452)
(-0.407881 0.262937 0.00473042)
(-0.370984 0.182669 0.00459063)
(-0.377938 0.150295 0.00468377)
(-0.410434 0.122461 0.020676)
(-0.439487 0.0879657 0.0310574)
(-0.455963 0.0553024 0.0394005)
(-0.454985 0.0288792 0.0546109)
(-0.441014 0.0049825 0.049551)
(-0.420478 -0.00332185 0.0348761)
(-0.378374 0.00998229 0.0238104)
(-0.306948 0.0470591 0.00334248)
(-0.215487 0.0893667 -0.0218652)
(-0.122839 0.139794 -0.022977)
(-0.0342082 0.133386 -0.015117)
(0.00577644 0.0564162 -0.000248245)
(0.00552459 0.0607329 -0.0153864)
(0.0636734 0.206939 -0.0464567)
(0.14386 0.276613 -0.0456347)
(0.190956 0.310767 -0.0262539)
(0.213529 0.335601 -0.0115726)
(0.215936 0.356818 -0.00198571)
(0.203525 0.378999 0.00233127)
(0.182548 0.392651 0.00502072)
(0.165533 0.404323 0.0110633)
(0.146168 0.407625 0.0240471)
(0.121254 0.401871 0.0307112)
(0.0944681 0.385827 0.0368574)
(0.0616513 0.361144 0.0415758)
(0.027971 0.327841 0.0369576)
(-0.00550042 0.291161 0.0193218)
(-0.0378117 0.270315 0.00111857)
(-0.0540202 0.259614 -0.00771557)
(-0.0562844 0.270733 -0.00563623)
(-0.0641425 0.271449 0.00048774)
(-0.0882915 0.267396 0.00944304)
(-0.122338 0.265562 0.020668)
(-0.164228 0.266352 0.0257932)
(-0.249988 0.274856 0.0166983)
(-0.337869 0.274784 0.0125988)
(-0.385984 0.264525 0.00658579)
(-0.415102 0.250204 0.0044054)
(-0.387985 0.190375 0.00592727)
(-0.363059 0.119393 0.0072231)
(-0.391616 0.0882058 0.0188499)
(-0.424425 0.0475001 0.0311877)
(-0.443715 0.0168909 0.0534099)
(-0.460899 -0.022747 0.0417283)
(-0.468201 -0.0618659 0.0311405)
(-0.445172 -0.0842334 0.0188642)
(-0.399318 -0.0734416 0.00460399)
(-0.337608 -0.025628 0.0102836)
(-0.240122 0.0456774 -0.00137893)
(-0.129527 0.105553 -0.0300724)
(-0.0362718 0.127051 -0.014293)
(0.00515833 0.0564147 -0.00202961)
(0.00412585 0.0734265 -0.0160467)
(0.0636259 0.23906 -0.0498384)
(0.148714 0.313526 -0.0505551)
(0.201646 0.343418 -0.0303647)
(0.230399 0.358605 -0.0109328)
(0.239733 0.368327 0.00286521)
(0.232199 0.377938 0.00838536)
(0.214321 0.387593 0.0123748)
(0.198954 0.393757 0.0144527)
(0.179778 0.390849 0.0168779)
(0.156503 0.378501 0.0163294)
(0.126203 0.355889 0.0247923)
(0.0904329 0.326424 0.0231403)
(0.0526775 0.29724 0.0242969)
(0.0201767 0.276308 0.00782556)
(0.000748512 0.265064 -0.00485238)
(-0.0117907 0.266924 -0.00668768)
(-0.0222931 0.263808 -0.00180736)
(-0.0377098 0.251382 0.0053529)
(-0.0610192 0.236997 0.0152225)
(-0.0894398 0.225334 0.0247959)
(-0.121698 0.21486 0.0306129)
(-0.19905 0.214357 0.0215629)
(-0.289249 0.223961 0.0149031)
(-0.340834 0.216993 0.00983896)
(-0.376011 0.209968 0.00831992)
(-0.389519 0.185088 0.0138962)
(-0.362595 0.1083 0.0185318)
(-0.364521 0.050887 0.0267515)
(-0.39812 0.0134676 0.0412)
(-0.428639 -0.0346363 0.0326954)
(-0.46479 -0.0894215 0.0286928)
(-0.477372 -0.135387 0.0198228)
(-0.465551 -0.165565 0.00831913)
(-0.421273 -0.170157 -0.00298358)
(-0.346885 -0.126904 -0.00911081)
(-0.253953 -0.0332421 -0.0012293)
(-0.143766 0.0624868 -0.0150547)
(-0.0375536 0.113851 -0.0183602)
(0.00410717 0.0570638 -0.00315752)
(0.00173639 0.0752796 -0.014774)
(0.0602364 0.259033 -0.0491844)
(0.14908 0.338213 -0.050719)
(0.209273 0.364629 -0.0303005)
(0.244666 0.371512 -0.00966651)
(0.257306 0.372147 0.00484289)
(0.256743 0.373454 0.0106323)
(0.245505 0.378459 0.0136464)
(0.231523 0.379845 0.0143283)
(0.211082 0.373008 0.0145625)
(0.182796 0.35746 0.0131717)
(0.150813 0.331857 0.0113415)
(0.116518 0.311003 0.0090663)
(0.0886314 0.296775 0.00996878)
(0.0642137 0.294304 -0.00229697)
(0.0427648 0.285505 -0.00594361)
(0.02343 0.281355 -0.00452225)
(0.000205681 0.270268 0.00122275)
(-0.0199197 0.245919 0.0101225)
(-0.0396438 0.221883 0.0187701)
(-0.0637566 0.19854 0.02538)
(-0.087648 0.176587 0.0314618)
(-0.145928 0.161219 0.0268571)
(-0.233002 0.174046 0.0165987)
(-0.290055 0.169177 0.0119549)
(-0.328431 0.163563 0.0116705)
(-0.362505 0.149503 0.00439425)
(-0.362009 0.114135 0.00816721)
(-0.343856 0.027839 0.013251)
(-0.36593 -0.0241174 0.0187302)
(-0.409129 -0.086084 0.0218824)
(-0.444055 -0.141275 0.0185041)
(-0.467708 -0.195239 0.0109574)
(-0.468025 -0.237609 -0.000757658)
(-0.432844 -0.254814 -0.0130038)
(-0.362974 -0.224427 -0.0211072)
(-0.263162 -0.138415 -0.0224868)
(-0.146855 -0.000654395 9.84324e-05)
(-0.0414244 0.0819107 -0.0252591)
(0.00278333 0.055387 -0.00561063)
(0.00140528 0.0910326 -0.0104177)
(0.0581608 0.282308 -0.0474174)
(0.147123 0.364597 -0.0500586)
(0.212036 0.387152 -0.0302894)
(0.254028 0.385087 -0.0077208)
(0.275278 0.378878 0.00491494)
(0.282306 0.373267 0.00956666)
(0.274522 0.37074 0.0104458)
(0.260279 0.366341 0.00874183)
(0.239205 0.35908 0.00700858)
(0.211083 0.35215 0.006171)
(0.185186 0.347843 0.00553438)
(0.163759 0.345107 0.00638524)
(0.140204 0.342761 0.00663242)
(0.104536 0.332852 -0.00839933)
(0.0734682 0.313319 -0.00703326)
(0.0508469 0.295122 -0.00562448)
(0.0175556 0.274315 -0.000978977)
(-0.00875721 0.248538 0.00955243)
(-0.0261783 0.21602 0.0175133)
(-0.0470148 0.185703 0.0223182)
(-0.0659164 0.15632 0.02746)
(-0.102928 0.128937 0.0281755)
(-0.176946 0.131395 0.0180284)
(-0.240295 0.13006 0.01269)
(-0.27628 0.121584 0.00527251)
(-0.309384 0.110344 -0.00183628)
(-0.343729 0.0923533 -0.000325104)
(-0.349688 0.0405986 0.00385742)
(-0.34818 -0.0417157 0.00372817)
(-0.377066 -0.108172 0.00957762)
(-0.412852 -0.178507 0.00931709)
(-0.44229 -0.244321 0.00475229)
(-0.454065 -0.301128 -0.005402)
(-0.430178 -0.335992 -0.0189925)
(-0.36932 -0.323801 -0.0340086)
(-0.269404 -0.245008 -0.0418185)
(-0.156903 -0.0917221 -0.0264951)
(-0.0442607 0.0428343 -0.0182577)
(0.00912934 0.0511047 -0.00981468)
(-0.00752922 0.0923844 -0.0204269)
(0.0430456 0.294515 -0.0512979)
(0.13685 0.384761 -0.0544065)
(0.20806 0.40777 -0.0354118)
(0.260261 0.402393 -0.0106944)
(0.289183 0.389856 -0.00165818)
(0.301474 0.373679 0.00483118)
(0.298618 0.369723 0.00454747)
(0.289653 0.382642 0.00312513)
(0.279073 0.400027 0.00268676)
(0.265622 0.414927 0.00351472)
(0.245762 0.418096 0.00263589)
(0.215125 0.406753 0.00273112)
(0.175601 0.382478 0.00397108)
(0.126428 0.352761 -0.00654488)
(0.0890304 0.329005 -0.00792886)
(0.0635686 0.295697 -0.00771544)
(0.0324243 0.267463 -0.00313118)
(0.00326961 0.242562 0.00460933)
(-0.0171548 0.20851 0.0138372)
(-0.0345547 0.177138 0.0175775)
(-0.0524326 0.146857 0.021494)
(-0.0756068 0.115643 0.0246647)
(-0.132792 0.102645 0.0195954)
(-0.195459 0.0979774 0.014393)
(-0.236396 0.0876207 0.00550223)
(-0.269676 0.0736877 0.000751254)
(-0.296463 0.0585723 0.00374578)
(-0.327652 0.0368254 0.000735681)
(-0.346415 -0.0218054 -0.00278494)
(-0.362958 -0.110987 -0.00598988)
(-0.390514 -0.180871 0.000528437)
(-0.412886 -0.257606 -0.0001547)
(-0.428186 -0.333214 -0.00708652)
(-0.414644 -0.388314 -0.0196597)
(-0.363071 -0.398501 -0.0374594)
(-0.269155 -0.34057 -0.0550517)
(-0.155727 -0.197936 -0.0456488)
(-0.041048 -0.00728612 -0.00957478)
(0.00893625 0.0438824 -0.0109573)
(-0.00680784 0.18135 -0.0180081)
(0.0412641 0.387212 -0.0428803)
(0.131052 0.482128 -0.0483387)
(0.204911 0.504653 -0.0315332)
(0.263559 0.495902 -0.0107928)
(0.297509 0.47504 -0.00178899)
(0.322511 0.453436 0.00598396)
(0.348799 0.468767 0.00701267)
(0.362913 0.491501 0.00300863)
(0.353371 0.501612 -0.00109785)
(0.320671 0.494896 -0.00434917)
(0.27519 0.469058 -0.00378777)
(0.227724 0.431257 -0.00194257)
(0.181941 0.386995 0.00107756)
(0.140491 0.347079 0.00124036)
(0.100127 0.317963 -0.00377047)
(0.0699872 0.286568 -0.0067711)
(0.0453331 0.251395 -0.00371169)
(0.0150123 0.223892 0.000629244)
(-0.00695609 0.194881 0.00988132)
(-0.0227203 0.162818 0.0136749)
(-0.0405302 0.135233 0.0165059)
(-0.0588825 0.105999 0.0195622)
(-0.103989 0.0843211 0.0175442)
(-0.16068 0.0731709 0.0125986)
(-0.199636 0.0588001 0.00154143)
(-0.22805 0.0501544 0.00358727)
(-0.256815 0.0377768 0.00487728)
(-0.289164 0.0155224 0.0052573)
(-0.334635 -0.0148892 0.000869)
(-0.35159 -0.0755924 -0.00125922)
(-0.358067 -0.178177 -0.0169033)
(-0.389596 -0.28008 -0.0191656)
(-0.405825 -0.360685 -0.0222256)
(-0.392377 -0.432717 -0.0344129)
(-0.353174 -0.470951 -0.0579575)
(-0.279271 -0.442369 -0.0774156)
(-0.165438 -0.290632 -0.0673449)
(-0.0375459 -0.0860804 -0.0347894)
(0.0117441 0.035615 -0.00992023)
(-0.0193355 0.30251 -0.0279164)
(0.0192458 0.528057 -0.0463607)
(0.112304 0.632609 -0.0527839)
(0.191021 0.665138 -0.0373994)
(0.258206 0.658437 -0.0216611)
(0.301471 0.635193 -0.0114149)
(0.360083 0.605789 -0.00118991)
(0.405628 0.598897 -0.00227466)
(0.396322 0.583 -0.00491516)
(0.363245 0.551293 -0.00548113)
(0.321585 0.508641 -0.00464717)
(0.276645 0.463688 -0.00326751)
(0.229365 0.417352 -0.00161055)
(0.184914 0.372762 0.00106296)
(0.145767 0.332146 0.00292109)
(0.112431 0.295132 0.00509051)
(0.0786876 0.265369 -0.000776002)
(0.0511433 0.234177 -0.00296441)
(0.0285801 0.20025 0.000829734)
(0.00358952 0.175187 0.00593765)
(-0.012942 0.142911 0.0119683)
(-0.0285191 0.116835 0.0138399)
(-0.0456249 0.0902749 0.0162489)
(-0.0833304 0.0672493 0.0150359)
(-0.135613 0.051099 0.00961337)
(-0.16862 0.0372419 0.00650089)
(-0.191615 0.0279035 0.00653086)
(-0.219829 0.0128242 0.00803547)
(-0.251621 -0.00180286 0.00996809)
(-0.287093 -0.0238527 0.00847673)
(-0.348626 -0.0517829 0.00232643)
(-0.390045 -0.128851 0.0041292)
(-0.374118 -0.246712 -0.00827375)
(-0.367511 -0.387979 -0.0264315)
(-0.366998 -0.502263 -0.044156)
(-0.34113 -0.581867 -0.0674166)
(-0.255122 -0.577932 -0.0872255)
(-0.164409 -0.440307 -0.0954406)
(-0.049815 -0.176246 -0.0585075)
(0.0213741 0.0189304 -0.0161537)
(-0.00464688 0.299424 -0.00677614)
(0.0345052 0.542556 -0.0407766)
(0.114656 0.661412 -0.050312)
(0.193448 0.709788 -0.0418185)
(0.260805 0.709232 -0.0291587)
(0.303152 0.685949 -0.02047)
(0.355083 0.653806 -0.00977005)
(0.397298 0.608237 -0.00398317)
(0.390311 0.568885 -0.00197198)
(0.359063 0.528002 -7.58872e-05)
(0.319016 0.486046 0.000594661)
(0.274897 0.441153 0.00177317)
(0.229901 0.394437 0.00301168)
(0.188475 0.350327 0.00347409)
(0.150973 0.308778 0.0051071)
(0.117701 0.272262 0.00624634)
(0.0911027 0.23645 0.00937958)
(0.0611602 0.207824 0.00236629)
(0.0359397 0.178294 0.00194483)
(0.0141598 0.15142 0.00512978)
(-0.004319 0.124392 0.0110991)
(-0.017816 0.0968686 0.0127337)
(-0.033591 0.0723304 0.0145171)
(-0.0674474 0.0495932 0.0137964)
(-0.112487 0.032091 0.00719795)
(-0.139956 0.0224803 0.0086795)
(-0.162331 0.00853439 0.00946281)
(-0.185405 -0.00383312 0.0128291)
(-0.208613 -0.0158632 0.0141525)
(-0.24507 -0.0323097 0.0123747)
(-0.290311 -0.0589522 0.0106144)
(-0.353528 -0.084782 0.00362494)
(-0.418912 -0.152596 0.00028644)
(-0.421094 -0.282655 -0.00324431)
(-0.379438 -0.421467 -0.0166033)
(-0.331512 -0.548767 -0.032785)
(-0.24685 -0.614224 -0.0639242)
(-0.131149 -0.552155 -0.0743993)
(-0.0157182 -0.284165 -0.0720635)
(0.0236392 0.00767882 -0.00760718)
(0.00302273 0.292127 0.00216275)
(0.0416526 0.513152 -0.0302399)
(0.114178 0.634021 -0.0386929)
(0.191402 0.685265 -0.0334502)
(0.256961 0.685706 -0.0189323)
(0.304326 0.660209 -0.0117562)
(0.354482 0.628964 -0.00142843)
(0.394598 0.581849 0.00151714)
(0.39143 0.53993 0.00272941)
(0.359067 0.50046 0.00415442)
(0.318043 0.458588 0.00516471)
(0.272923 0.41437 0.00636421)
(0.228906 0.367834 0.00828513)
(0.189331 0.322841 0.00965727)
(0.155508 0.280555 0.0111706)
(0.124969 0.244504 0.0114524)
(0.0965138 0.211014 0.0122487)
(0.0731985 0.179048 0.0121101)
(0.0502695 0.154283 0.0111739)
(0.0253495 0.128242 0.00570477)
(0.00582267 0.106355 0.0105147)
(-0.00907096 0.079482 0.0119551)
(-0.0221616 0.0571395 0.0133139)
(-0.0522943 0.031017 0.0104479)
(-0.0893781 0.0187661 0.00936572)
(-0.114951 0.00685816 0.00971725)
(-0.134323 -0.00443527 0.0120098)
(-0.150902 -0.0146379 0.0136436)
(-0.172387 -0.0276275 0.0151902)
(-0.201387 -0.0460159 0.0157274)
(-0.243785 -0.0676465 0.0139343)
(-0.293018 -0.102193 0.0127275)
(-0.345014 -0.139215 0.00665224)
(-0.382527 -0.19222 -0.0012932)
(-0.388471 -0.290924 -0.0105651)
(-0.374193 -0.416275 -0.0200736)
(-0.302196 -0.518107 -0.0345544)
(-0.183613 -0.512624 -0.0572317)
(-0.0235346 -0.297672 -0.0577317)
(0.0457202 0.0541643 -0.0267717)
(0.00579792 0.283404 0.00425185)
(0.043995 0.488556 -0.0239515)
(0.111879 0.611312 -0.0319519)
(0.186416 0.666649 -0.0289736)
(0.251092 0.673083 -0.0128223)
(0.30119 0.648689 -0.00708365)
(0.348345 0.613757 0.00148132)
(0.383299 0.565077 0.00424344)
(0.384326 0.514537 0.00466393)
(0.355085 0.471075 0.00604044)
(0.313852 0.427512 0.00734634)
(0.269128 0.382919 0.00936751)
(0.226227 0.337107 0.0129293)
(0.189706 0.293583 0.0175252)
(0.159945 0.254997 0.0211312)
(0.1333 0.221336 0.0215604)
(0.108246 0.188581 0.0201463)
(0.0843086 0.156541 0.0174525)
(0.0621109 0.129959 0.0156611)
(0.040231 0.10877 0.0149012)
(0.0182394 0.088149 0.009635)
(0.00233472 0.0642806 0.0119663)
(-0.0136198 0.0408091 0.0118474)
(-0.0370769 0.0179262 0.0100276)
(-0.066265 0.00455856 0.00921247)
(-0.0895385 -0.00479955 0.0114886)
(-0.104802 -0.0134897 0.0117711)
(-0.121151 -0.0246479 0.0130208)
(-0.139675 -0.0384877 0.0147116)
(-0.1656 -0.0564045 0.0163914)
(-0.199433 -0.0804124 0.0178359)
(-0.24167 -0.111013 0.0178811)
(-0.284104 -0.154321 0.0181619)
(-0.311036 -0.211041 0.0165461)
(-0.331272 -0.294101 0.0110277)
(-0.346116 -0.407762 0.00165059)
(-0.319482 -0.502177 -0.01527)
(-0.227587 -0.52291 -0.0388272)
(-0.0685726 -0.320889 -0.0496455)
(0.023934 0.0621477 -0.0125556)
(0.0104494 0.256385 0.00306831)
(0.0490485 0.440227 -0.0186524)
(0.110629 0.568077 -0.0262752)
(0.183743 0.627772 -0.0249146)
(0.246979 0.640994 -0.0127818)
(0.296599 0.620117 -0.00471507)
(0.342336 0.583785 0.0026069)
(0.372069 0.53683 0.00574376)
(0.373913 0.48411 0.00616382)
(0.34878 0.436931 0.00699136)
(0.308856 0.391426 0.0085758)
(0.264812 0.347058 0.0115233)
(0.224859 0.303585 0.0170001)
(0.194015 0.262536 0.0233262)
(0.169898 0.225099 0.0247537)
(0.143774 0.188669 0.0221708)
(0.114735 0.148709 0.0188731)
(0.0947909 0.109343 0.0172172)
(0.0794917 0.0887335 0.0149626)
(0.0572638 0.0760293 0.0128876)
(0.0321837 0.0639912 0.0137287)
(0.0123629 0.0492253 0.0102836)
(-0.000794297 0.0275505 0.0141647)
(-0.0207822 0.00745849 0.00998833)
(-0.0431736 -0.00528935 0.0110325)
(-0.0614686 -0.0129071 0.0108583)
(-0.078227 -0.0232695 0.0114581)