/*--------------------------------*- C++ -*----------------------------------*\
| =========                 |                                                 |
| \\      /  F ield         | OpenFOAM: The Open Source CFD Toolbox           |
|  \\    /   O peration     | Version:  v1806                                 |
|   \\  /    A nd           | Web:      www.OpenFOAM.com                      |
|    \\/     M anipulation  |                                                 |
\*---------------------------------------------------------------------------*/
FoamFile
{
    version     2.0;
    format      ascii;
    class       volVectorField;
    location    "0.0735";
    object      U_0;
}
// * * * * * * * * * * * * * * * * * * * * * * * * * * * * * * * * * * * * * //

dimensions      [0 1 -1 0 0 0 0];


internalField   nonuniform List<vector> 
64000
(
(-0.00924328 -0.0102771 -0.00683384)
(0.0137574 -0.0105014 -0.00426119)
(0.0198894 -0.00357607 0.000849526)
(0.023732 -0.00347794 0.00134515)
(0.0244842 -0.00255541 0.00180212)
(0.0245424 -0.00278246 0.00259625)
(0.024001 -0.0034906 0.00286323)
(0.0206109 -0.00394775 0.00306576)
(0.0192512 -0.00492008 0.00451038)
(0.0120744 -0.00441142 0.00385895)
(0.00680961 -0.00529037 0.00636369)
(-0.00645308 -0.00902314 0.00619854)
(-0.026549 -0.01272 0.0064169)
(-0.0500953 -0.0178709 0.00397953)
(-0.0803666 -0.018163 0.00506063)
(-0.115815 -0.0161301 0.00265372)
(-0.14661 0.000657811 0.00198616)
(-0.190361 -0.00439002 -0.00249383)
(-0.192144 -0.00991361 0.005797)
(-0.251339 -0.0286482 -0.0157445)
(-0.217006 -0.0232434 -0.0240045)
(-0.105364 -0.024558 -0.0392832)
(-0.104248 -0.00984966 -0.0265468)
(-0.0999851 -0.00403802 -0.0372358)
(-0.115223 0.00257609 -0.047974)
(-0.109989 0.010945 -0.0571545)
(-0.0976862 0.0208443 -0.0619264)
(-0.0629099 0.0322239 -0.0573973)
(-0.0303169 0.0382912 -0.053259)
(0.0131175 0.0527248 -0.0357773)
(0.0609112 0.0456433 -0.0320708)
(0.0945364 0.0376325 -0.0234041)
(0.110538 0.0266445 -0.0118155)
(0.10626 0.0131488 -0.0043962)
(0.0923048 0.00484727 0.00167523)
(0.0729216 -0.00328125 0.00425962)
(0.0525049 -0.00688887 0.00583767)
(0.0314468 -0.00600884 0.00669587)
(0.0168112 -0.00440845 0.0070777)
(0.00235137 -0.00281107 0.00492251)
(-0.00687948 0.000429146 -0.00317237)
(0.00895834 -0.0167478 -0.00291359)
(0.0243729 -0.0114951 -0.00111818)
(0.0336068 -0.00826488 -0.000681803)
(0.0388667 -0.00336721 -0.000714621)
(0.038784 -0.000914751 -0.0014032)
(0.0371664 0.00313912 -0.00291976)
(0.0297033 0.00483637 -0.00273338)
(0.0227783 0.0105583 -0.00702148)
(0.00504775 0.0161719 -0.00438862)
(-0.019287 0.0249453 -0.00808767)
(-0.0562 0.0313069 0.00035124)
(-0.104282 0.0425513 -0.00402264)
(-0.15613 0.0632775 -0.00686578)
(-0.215442 0.0762384 -0.0110718)
(-0.273268 0.0851864 -0.0182095)
(-0.355314 0.0928984 -0.0434217)
(-0.459988 0.0951956 -0.0583974)
(-0.510549 0.100981 -0.0758625)
(-0.5935 0.09849 -0.0992228)
(-0.545899 0.12565 -0.0994493)
(-0.408083 0.140562 -0.126891)
(-0.388175 0.18581 -0.137612)
(-0.370903 0.211186 -0.146643)
(-0.358657 0.236547 -0.157956)
(-0.320765 0.258344 -0.163974)
(-0.270237 0.279084 -0.1653)
(-0.200115 0.295085 -0.153682)
(-0.123231 0.300811 -0.133655)
(-0.0530604 0.307601 -0.109799)
(0.0130535 0.289544 -0.0754591)
(0.0774268 0.259438 -0.047182)
(0.113475 0.20932 -0.0387748)
(0.125605 0.159296 -0.0266478)
(0.119982 0.108294 -0.0127852)
(0.100603 0.0686084 -0.00524624)
(0.0805364 0.0400604 -0.000821101)
(0.05521 0.0255086 0.000211042)
(0.0330249 0.0157197 0.00179117)
(0.00820068 0.00728946 0.0022447)
(-0.000626577 -0.00724576 0.00149931)
(0.0149814 -0.0230915 -0.00138581)
(0.0320214 -0.0182383 -0.00233145)
(0.0422491 -0.00592041 -0.00307233)
(0.0444989 0.00476407 -0.00501118)
(0.0418021 0.0160796 -0.00652495)
(0.0341619 0.0316046 -0.00778965)
(0.0201057 0.0457126 -0.00952426)
(0.00407198 0.06961 -0.0020082)
(-0.0262851 0.0899308 -0.00476835)
(-0.0645434 0.117268 -0.00814809)
(-0.117704 0.149905 -0.013306)
(-0.172569 0.183595 -0.0173448)
(-0.251023 0.210941 -0.032137)
(-0.350235 0.229995 -0.0349712)
(-0.446283 0.243595 -0.0423083)
(-0.53361 0.24837 -0.0587496)
(-0.62049 0.269231 -0.0767937)
(-0.665526 0.298486 -0.094511)
(-0.732865 0.33196 -0.116261)
(-0.671489 0.370299 -0.108655)
(-0.507479 0.399022 -0.123917)
(-0.463941 0.455793 -0.126447)
(-0.435933 0.488099 -0.123466)
(-0.414536 0.520206 -0.12572)
(-0.37269 0.542516 -0.123947)
(-0.321691 0.556551 -0.119439)
(-0.256984 0.560461 -0.10466)
(-0.189504 0.550424 -0.0829814)
(-0.125188 0.530957 -0.0593129)
(-0.0687876 0.501031 -0.0399546)
(-0.0264234 0.45265 -0.0277749)
(0.00805799 0.379776 -0.0158565)
(0.0306926 0.307267 -0.00810084)
(0.0422431 0.227587 -0.0110226)
(0.0481925 0.1626 -0.0108585)
(0.0478849 0.114489 -0.00706592)
(0.0387039 0.0770685 -0.00480536)
(0.0274089 0.0509865 -0.00101788)
(0.00810538 0.0241711 0.0018575)
(0.000259997 -0.0117736 0.00238073)
(0.0171155 -0.025202 -0.00112651)
(0.0385146 -0.0122591 -0.0027611)
(0.0465047 0.00588657 -0.00618649)
(0.044124 0.0296644 -0.00676781)
(0.039379 0.0548515 -0.00877514)
(0.0261902 0.0901272 -0.00871418)
(0.00678443 0.122693 -0.0054925)
(-0.0203774 0.167675 -0.0104937)
(-0.0657825 0.207982 -0.0128385)
(-0.111745 0.251969 -0.017082)
(-0.17703 0.286634 -0.024349)
(-0.263547 0.314302 -0.0267954)
(-0.354877 0.330361 -0.0287641)
(-0.441374 0.351583 -0.031007)
(-0.520216 0.37635 -0.0367371)
(-0.591665 0.406187 -0.0510173)
(-0.665211 0.435506 -0.0602688)
(-0.695936 0.475478 -0.0694541)
(-0.748496 0.518745 -0.0772808)
(-0.675657 0.552523 -0.0506526)
(-0.491104 0.5721 -0.0465402)
(-0.433447 0.614749 -0.0415449)
(-0.406002 0.623605 -0.029516)
(-0.386128 0.636624 -0.0264463)
(-0.353629 0.637835 -0.0211486)
(-0.314397 0.63019 -0.0176887)
(-0.266611 0.612149 -0.0104285)
(-0.216721 0.5868 0.00138636)
(-0.172072 0.554932 0.0085875)
(-0.140143 0.515313 0.0139167)
(-0.115957 0.471369 0.0124021)
(-0.0929242 0.415028 0.00698629)
(-0.0707854 0.350601 -0.00126993)
(-0.04844 0.271088 -0.00503874)
(-0.0196558 0.202276 -0.0101934)
(0.000302541 0.146795 -0.0103018)
(0.00918352 0.110314 -0.00769725)
(0.0172367 0.0767726 -0.00321775)
(0.00645745 0.0361079 0.00153171)
(0.000768859 -0.0123649 0.000776164)
(0.0234196 -0.0149564 -0.00448329)
(0.0469343 0.00266938 -0.00694105)
(0.0549741 0.0377261 -0.00807247)
(0.0520984 0.0764974 -0.00718575)
(0.0459984 0.122605 -0.0149)
(0.0265778 0.178558 -0.012144)
(-0.00077424 0.237362 -0.00584774)
(-0.0335998 0.292072 -0.00767421)
(-0.0877724 0.336046 -0.00974286)
(-0.151155 0.369938 -0.0124698)
(-0.231077 0.389106 -0.0151193)
(-0.304295 0.411769 -0.0160436)
(-0.37844 0.438221 -0.0212771)
(-0.45225 0.469099 -0.0196667)
(-0.519221 0.501733 -0.0211832)
(-0.577332 0.529725 -0.0243018)
(-0.631168 0.566491 -0.0211279)
(-0.642606 0.609485 -0.0173781)
(-0.681619 0.654434 -0.0260546)
(-0.609532 0.682669 0.0012903)
(-0.418485 0.688493 0.0146053)
(-0.356882 0.701963 0.0255218)
(-0.33846 0.678771 0.0364969)
(-0.330386 0.661092 0.0375778)
(-0.317264 0.635884 0.0436195)
(-0.298427 0.603613 0.0448677)
(-0.268906 0.567706 0.0489231)
(-0.239662 0.527015 0.0422958)
(-0.215187 0.488151 0.0345731)
(-0.194632 0.444023 0.0246657)
(-0.185241 0.41113 0.0172808)
(-0.177912 0.375078 0.00941875)
(-0.173334 0.344262 -0.00247164)
(-0.151682 0.279078 -0.0128154)
(-0.103446 0.208622 -0.0138964)
(-0.0520321 0.160551 -0.0133544)
(-0.0166278 0.129858 -0.0114341)
(0.0030077 0.0952137 -0.0057827)
(0.00357512 0.0453165 0.00149365)
(0.00550858 -0.00827079 -0.000300101)
(0.0289116 -1.45357e-05 -0.00564703)
(0.0613531 0.0259037 -0.00555678)
(0.0745739 0.077898 -0.0094163)
(0.068295 0.135698 -0.0142894)
(0.0638513 0.200267 -0.0183457)
(0.0457054 0.275423 -0.0136887)
(0.00788568 0.324736 -0.00362689)
(-0.0476072 0.36777 -0.00525381)
(-0.11942 0.400758 -0.00710828)
(-0.186383 0.430408 -0.00916523)
(-0.249356 0.459974 -0.00936443)
(-0.308927 0.494682 -0.00749653)
(-0.36672 0.522509 -0.0045939)
(-0.418149 0.552759 0.00166375)
(-0.469395 0.581237 0.00661029)
(-0.503648 0.611751 0.00838688)
(-0.537879 0.6437 0.00860185)
(-0.544193 0.689397 0.010546)
(-0.570824 0.723055 0.00882245)
(-0.501156 0.747663 0.0349201)
(-0.32646 0.699527 0.0498504)
(-0.281161 0.682117 0.0601094)
(-0.284086 0.628417 0.0736144)
(-0.291388 0.586671 0.0767464)
(-0.29663 0.545029 0.0770412)
(-0.294107 0.501836 0.0743834)
(-0.284834 0.461086 0.0684315)
(-0.269618 0.414036 0.0660429)
(-0.259155 0.376409 0.0456961)
(-0.249437 0.333498 0.0348554)
(-0.239015 0.30304 0.0207072)
(-0.225739 0.278215 0.00898988)
(-0.234277 0.265597 -0.00261294)
(-0.239769 0.24149 -0.0152199)
(-0.174492 0.192593 -0.0138517)
(-0.092545 0.161467 -0.0149664)
(-0.0403073 0.13494 -0.0117597)
(-0.00448039 0.103254 -0.00665062)
(0.00256687 0.0485469 0.00201433)
(0.0079996 -0.00272196 0.00069966)
(0.0387001 0.0119664 -0.00999725)
(0.0811292 0.0520348 -0.00964466)
(0.105612 0.106654 -0.0113274)
(0.101239 0.169551 -0.0148181)
(0.0980653 0.24462 -0.0177639)
(0.0525887 0.303874 -0.00936359)
(-0.0127838 0.336039 0.00255307)
(-0.0602377 0.37951 -0.00235736)
(-0.116927 0.420724 -0.00305763)
(-0.166028 0.467003 -0.00318584)
(-0.217036 0.509234 -0.00143435)
(-0.26376 0.547832 0.00173859)
(-0.310408 0.581406 0.00710115)
(-0.350861 0.613828 0.0143796)
(-0.385185 0.639083 0.0199491)
(-0.409944 0.665809 0.0258191)
(-0.426618 0.679003 0.0292626)
(-0.420556 0.703835 0.0260236)
(-0.441957 0.718929 0.0170763)
(-0.43095 0.737527 0.0317964)
(-0.290137 0.632845 0.0530255)
(-0.231144 0.583594 0.0572091)
(-0.250916 0.523486 0.0702812)
(-0.268111 0.480338 0.0712078)
(-0.289677 0.442589 0.0711039)
(-0.302951 0.406998 0.0673025)
(-0.310062 0.373123 0.0605584)
(-0.308288 0.336589 0.0478865)
(-0.309467 0.302549 0.0327003)
(-0.306749 0.269966 0.0197673)
(-0.298708 0.242193 0.00779174)
(-0.286122 0.223032 -0.00163893)
(-0.283583 0.207356 -0.00837461)
(-0.287483 0.21772 -0.0177585)
(-0.226429 0.193077 -0.0205307)
(-0.127332 0.166569 -0.0217371)
(-0.055901 0.145912 -0.0167473)
(-0.00976656 0.111879 -0.0105898)
(0.00246746 0.0530701 0.000276271)
(0.00718833 0.00469949 -0.00312842)
(0.0453591 0.0311933 -0.0133409)
(0.0996018 0.0804332 -0.013656)
(0.124821 0.13588 -0.0109281)
(0.129004 0.194389 -0.0118395)
(0.112671 0.265822 -0.0119601)
(0.0512652 0.29464 -0.000889964)
(0.00344507 0.347203 0.00529808)
(-0.0311215 0.393972 0.00147143)
(-0.0810914 0.447327 0.00286797)
(-0.123532 0.49106 0.00394165)
(-0.166212 0.528113 0.0100121)
(-0.202214 0.56105 0.0161294)
(-0.23295 0.58791 0.0235953)
(-0.261285 0.612824 0.0280695)
(-0.289419 0.628199 0.0322149)
(-0.309123 0.639274 0.0348379)
(-0.327233 0.640082 0.0341302)
(-0.326451 0.634544 0.0310563)
(-0.342416 0.615436 0.014581)
(-0.382798 0.618464 0.0155063)
(-0.293785 0.540159 0.0342382)
(-0.219758 0.457033 0.0369592)
(-0.239868 0.417695 0.0484266)
(-0.264282 0.380879 0.0524895)
(-0.295437 0.356608 0.0540062)
(-0.318956 0.330173 0.0550004)
(-0.336969 0.304802 0.0481259)
(-0.346398 0.276615 0.0392689)
(-0.354622 0.246754 0.0175183)
(-0.356228 0.215193 0.00956559)
(-0.346978 0.190755 0.000402737)
(-0.333056 0.177595 -0.00764842)
(-0.317431 0.169515 -0.0113909)
(-0.325652 0.191117 -0.0208627)
(-0.276377 0.196171 -0.0206517)
(-0.161281 0.171945 -0.0224327)
(-0.074292 0.155053 -0.0176085)
(-0.0148761 0.119116 -0.0102711)
(0.00362163 0.056683 0.00103807)
(0.00626145 0.0153143 -0.00572125)
(0.0534761 0.0616682 -0.0179491)
(0.11935 0.118053 -0.0193872)
(0.15083 0.173249 -0.0132002)
(0.158276 0.234742 -0.0141857)
(0.126034 0.283275 -0.0111323)
(0.0692822 0.321329 -0.00221176)
(0.0319699 0.377905 0.00524648)
(0.00364247 0.415833 0.0112726)
(-0.0314777 0.456333 0.0111887)
(-0.0711598 0.494577 0.0154178)
(-0.102623 0.52124 0.0209316)
(-0.128679 0.543821 0.027974)
(-0.153735 0.556365 0.0341184)
(-0.177557 0.560473 0.036226)
(-0.202738 0.557235 0.0367996)
(-0.225306 0.550276 0.0355516)
(-0.251828 0.535686 0.0309703)
(-0.272851 0.521803 0.0248879)
(-0.291963 0.491704 0.00996904)
(-0.343979 0.480689 -0.000239378)
(-0.316714 0.452014 0.0100868)
(-0.240152 0.353415 0.018664)
(-0.238677 0.336751 0.024758)
(-0.268561 0.310824 0.0326448)
(-0.303373 0.296633 0.0371308)
(-0.336413 0.278585 0.0423064)
(-0.361695 0.256641 0.0387093)
(-0.381364 0.232942 0.0240911)
(-0.3989 0.199933 0.00922423)
(-0.401906 0.175458 -0.000574212)
(-0.389424 0.152474 -0.00585047)
(-0.374457 0.138956 -0.0117512)
(-0.347748 0.140438 -0.0195436)
(-0.33826 0.153363 -0.0235223)
(-0.305608 0.190668 -0.0284378)
(-0.196904 0.174084 -0.0264692)
(-0.0896496 0.164151 -0.0245491)
(-0.0198871 0.128829 -0.0136385)
(0.00449911 0.0625092 -0.00113456)
(0.00771699 0.0320109 -0.00868456)
(0.0625173 0.100682 -0.0256637)
(0.137527 0.161274 -0.0248542)
(0.175973 0.214899 -0.0153486)
(0.176745 0.267336 -0.0147378)
(0.144313 0.299962 -0.0134734)
(0.102631 0.347982 -0.00287006)
(0.069953 0.394439 0.00915734)
(0.0391581 0.431497 0.0158703)
(0.0150427 0.45823 0.0263158)
(-0.0121035 0.48029 0.0231271)
(-0.0432342 0.493416 0.0334904)
(-0.0661634 0.501698 0.0384174)
(-0.0892514 0.492188 0.0439634)
(-0.112969 0.476895 0.0435955)
(-0.139625 0.454089 0.04044)
(-0.167219 0.430579 0.0352143)
(-0.197786 0.405403 0.0278143)
(-0.228153 0.388965 0.0194649)
(-0.261354 0.371565 0.00451529)
(-0.316408 0.357167 -0.0078646)
(-0.34007 0.356705 -0.00716159)
(-0.271032 0.291561 0.007506)
(-0.235984 0.281778 0.010327)
(-0.269815 0.264391 0.0207827)
(-0.304555 0.256538 0.0283218)
(-0.344012 0.237503 0.0373515)
(-0.376485 0.220634 0.0321503)
(-0.404786 0.190747 0.0247294)
(-0.420655 0.164374 0.0096843)
(-0.426203 0.136409 0.0110518)
(-0.422111 0.115099 0.0174554)
(-0.402589 0.0956868 0.0144563)
(-0.378656 0.0975454 0.0089302)
(-0.359048 0.111258 -0.0130427)
(-0.328323 0.159716 -0.0242797)
(-0.227266 0.171605 -0.0248541)
(-0.107012 0.164042 -0.0215062)
(-0.0257058 0.136628 -0.0126378)
(0.00561293 0.066729 6.34196e-05)
(0.00878719 0.0535093 -0.0112633)
(0.0706167 0.142866 -0.0319377)
(0.15504 0.207327 -0.0311129)
(0.197643 0.255589 -0.0179749)
(0.195019 0.292589 -0.0118268)
(0.170046 0.326981 -0.0133252)
(0.141219 0.367588 -0.00280453)
(0.110343 0.40444 0.00499572)
(0.08493 0.43264 0.0132435)
(0.0569135 0.453343 0.0288308)
(0.0285041 0.458029 0.0372366)
(0.0117468 0.458825 0.0471162)
(-0.0121706 0.445861 0.0469098)
(-0.042205 0.424821 0.0501146)
(-0.0686781 0.396232 0.0478766)
(-0.0999249 0.364704 0.0410489)
(-0.132592 0.334824 0.032711)
(-0.167337 0.308123 0.0239982)
(-0.201369 0.293102 0.0153775)
(-0.240838 0.278053 0.00239984)
(-0.293489 0.270395 -0.00723263)
(-0.332071 0.27519 -0.0113649)
(-0.27449 0.260006 0.00080736)
(-0.229584 0.245648 0.00117534)
(-0.258188 0.233675 0.013586)
(-0.296618 0.221771 0.0223683)
(-0.341177 0.206374 0.0315324)
(-0.378466 0.183774 0.0299004)
(-0.410534 0.157806 0.0194953)
(-0.433981 0.128256 0.0303504)
(-0.448311 0.0938492 0.0315881)
(-0.450324 0.0656076 0.018591)
(-0.437125 0.0516369 0.013299)
(-0.40369 0.0482695 0.00573928)
(-0.36648 0.0635746 -0.000292128)
(-0.335826 0.109697 -0.0220901)
(-0.251082 0.150917 -0.0284105)
(-0.124511 0.160095 -0.0235128)
(-0.0285642 0.140405 -0.0150079)
(0.00486947 0.070937 -0.0015625)
(0.00946065 0.0729235 -0.0118917)
(0.0766865 0.184047 -0.0357882)
(0.16771 0.251037 -0.034192)
(0.210641 0.287638 -0.0176286)
(0.214508 0.31631 -0.00986056)
(0.199363 0.348249 -0.00688769)
(0.17611 0.379576 -0.00529331)
(0.149204 0.403823 0.00810921)
(0.122546 0.423474 0.0129606)
(0.0983973 0.431831 0.02522)
(0.0754138 0.43445 0.0364778)
(0.0471076 0.423052 0.05188)
(0.0219932 0.396293 0.0554428)
(-0.00271974 0.362243 0.0548251)
(-0.0350026 0.330729 0.0481912)
(-0.06965 0.297787 0.0380353)
(-0.106953 0.270949 0.027045)
(-0.141365 0.249195 0.0181295)
(-0.179889 0.240693 0.00855839)
(-0.223686 0.228946 -0.000145444)
(-0.270448 0.227325 -0.00783473)
(-0.305606 0.229849 -0.0113388)
(-0.256769 0.242564 -0.00238696)
(-0.212795 0.223842 -0.00309603)
(-0.238987 0.206755 0.00866749)
(-0.274711 0.190024 0.0182092)
(-0.32241 0.171936 0.0255375)
(-0.363353 0.148936 0.0212074)
(-0.399913 0.121494 0.0379328)
(-0.432965 0.0868057 0.0452529)
(-0.454908 0.0537467 0.0402501)
(-0.456547 0.0281077 0.0512694)
(-0.449472 0.00477591 0.0399163)
(-0.433193 0.00116669 0.0341242)
(-0.396506 0.0108149 0.0249335)
(-0.352448 0.0574825 0.00386065)
(-0.26382 0.111961 -0.0249724)
(-0.138448 0.148433 -0.0249635)
(-0.0345868 0.138913 -0.0143038)
(0.00599535 0.0742164 -0.00152117)
(0.0101192 0.0932728 -0.0113317)
(0.080467 0.223775 -0.0385159)
(0.172081 0.291434 -0.0373068)
(0.221164 0.320139 -0.0187419)
(0.236131 0.342419 -0.00590717)
(0.228394 0.365716 0.000219469)
(0.207311 0.387265 0.00466826)
(0.18266 0.401139 0.00566174)
(0.161283 0.410338 0.0162987)
(0.137788 0.411746 0.0263793)
(0.11081 0.402008 0.0356914)
(0.0840309 0.382676 0.0426274)
(0.0508892 0.354123 0.0552919)
(0.0204606 0.317222 0.0551758)
(-0.00832546 0.277769 0.0468628)
(-0.045644 0.251386 0.0327779)
(-0.0842904 0.226679 0.0209271)
(-0.117919 0.211239 0.0126209)
(-0.156648 0.20419 0.00351935)
(-0.19902 0.198883 -0.00165535)
(-0.240103 0.19855 -0.00775801)
(-0.260244 0.204601 -0.00830709)
(-0.218852 0.235403 -0.00265305)
(-0.193788 0.209757 -0.0033985)
(-0.212842 0.181207 0.00505152)
(-0.247003 0.157998 0.0133197)
(-0.291939 0.1327 0.0181066)
(-0.334889 0.110354 0.0307836)
(-0.379206 0.0776527 0.043422)
(-0.416837 0.0465202 0.0466762)
(-0.439718 0.0137929 0.0662032)
(-0.46581 -0.0237772 0.0469616)
(-0.473234 -0.0649412 0.0353392)
(-0.455704 -0.0857155 0.0142514)
(-0.415475 -0.0731385 0.0044215)
(-0.370706 -0.0243445 0.00908705)
(-0.285022 0.0607905 -0.00236574)
(-0.152623 0.117148 -0.0310841)
(-0.0395242 0.131498 -0.0144095)
(0.0063345 0.0756593 -0.00310018)
(0.00910823 0.0997372 -0.0104012)
(0.0788791 0.247498 -0.0407146)
(0.172652 0.318859 -0.0414425)
(0.227509 0.34482 -0.0218899)
(0.253171 0.358645 -0.00348384)
(0.252589 0.36922 0.00636996)
(0.23354 0.380756 0.0125091)
(0.210674 0.38899 0.0160762)
(0.190372 0.394137 0.0190263)
(0.167553 0.388346 0.0231012)
(0.143584 0.37345 0.0292679)
(0.111893 0.34874 0.0398216)
(0.0781153 0.315877 0.0418238)
(0.0416807 0.282353 0.0495806)
(0.0112678 0.244547 0.0444905)
(-0.0209497 0.214945 0.0257657)
(-0.0624256 0.196225 0.0152194)
(-0.0924825 0.183845 0.00796799)
(-0.128558 0.177355 0.000119617)
(-0.167208 0.173545 -0.00282028)
(-0.198511 0.172616 -0.00576375)
(-0.195122 0.198786 -0.00101774)
(-0.1706 0.215893 -0.00212352)
(-0.17546 0.187675 -0.00133944)
(-0.191011 0.154531 0.00251586)
(-0.215438 0.120274 0.00940996)
(-0.25465 0.0960335 0.0139223)
(-0.296585 0.0664368 0.0318962)
(-0.34076 0.0395747 0.0396469)
(-0.378947 0.00939232 0.0607633)
(-0.427349 -0.0326102 0.0453236)
(-0.469106 -0.086046 0.0382908)
(-0.486933 -0.129682 0.0245512)
(-0.47488 -0.161895 0.0138999)
(-0.434276 -0.165034 -0.00567858)
(-0.373202 -0.123472 -0.00685125)
(-0.291055 -0.0210373 -0.000588322)
(-0.171399 0.0765434 -0.0168672)
(-0.0435713 0.117561 -0.0199262)
(0.00723628 0.0760542 -0.00206394)
(0.00789284 0.110147 -0.00891427)
(0.0771267 0.272496 -0.0405264)
(0.171583 0.348511 -0.0430577)
(0.232919 0.371925 -0.0230516)
(0.265166 0.377973 -0.00261271)
(0.270412 0.375885 0.0116332)
(0.259219 0.378509 0.0208943)
(0.241961 0.380644 0.0235704)
(0.222792 0.378526 0.0262188)
(0.198318 0.366586 0.0278758)
(0.170504 0.346764 0.0296534)
(0.138655 0.31655 0.0274699)
(0.101441 0.284821 0.029753)
(0.0629059 0.248164 0.0307546)
(0.0270611 0.221292 0.032308)
(-0.00384497 0.188317 0.0190945)
(-0.0360035 0.172254 0.00925361)
(-0.0657785 0.164319 0.00369977)
(-0.0976512 0.15198 -0.00220263)
(-0.130449 0.150747 -0.00277181)
(-0.134622 0.164681 0.000763556)
(-0.130117 0.186916 0.00199668)
(-0.135492 0.179593 0.00169904)
(-0.15254 0.154758 0.000995833)
(-0.169187 0.12637 0.00272495)
(-0.185414 0.0886533 0.00573274)
(-0.215972 0.0609967 0.0178683)
(-0.252611 0.0312131 0.0271002)
(-0.290531 0.00341958 0.0461566)
(-0.344232 -0.0363869 0.0397758)
(-0.400277 -0.0892572 0.0379313)
(-0.448661 -0.141183 0.0283194)
(-0.478964 -0.193667 0.0180726)
(-0.483318 -0.234282 0.00309211)
(-0.449601 -0.253249 -0.0110338)
(-0.384006 -0.2218 -0.0203484)
(-0.293704 -0.132174 -0.0185208)
(-0.178457 0.0145909 0.00082446)
(-0.0536704 0.0942314 -0.0269136)
(0.00644694 0.0772811 -0.00337555)
(0.00559853 0.0903319 -0.00796007)
(0.0713136 0.266706 -0.0397248)
(0.166007 0.348673 -0.0417504)
(0.232004 0.371876 -0.0222086)
(0.271271 0.372052 0.000947765)
(0.285295 0.365517 0.0149625)
(0.281001 0.36405 0.0206249)
(0.263677 0.358658 0.0238637)
(0.24297 0.351321 0.0259782)
(0.218989 0.338329 0.0265791)
(0.192095 0.318023 0.0260365)
(0.159136 0.291643 0.0224587)
(0.121853 0.258369 0.0185387)
(0.0853636 0.226084 0.0124603)
(0.0488583 0.198658 0.0169397)
(0.016261 0.174781 0.00935846)
(-0.00841302 0.157301 0.00381545)
(-0.0380043 0.14504 -0.0022993)
(-0.0654023 0.139298 -0.00262878)
(-0.0725259 0.147452 0.000631415)
(-0.0746156 0.160652 0.00314672)
(-0.0874127 0.155085 0.00522808)
(-0.10412 0.142205 0.00482424)
(-0.124841 0.120737 0.00412162)
(-0.146108 0.0999841 0.00434031)
(-0.160824 0.064655 0.00624215)
(-0.181552 0.0320956 0.0164393)
(-0.211903 0.00304825 0.0303104)
(-0.254588 -0.0326082 0.0293393)
(-0.308951 -0.0773084 0.0327542)
(-0.364484 -0.125235 0.0295354)
(-0.417123 -0.181697 0.0256102)
(-0.455145 -0.240435 0.0161324)
(-0.471355 -0.295331 0.00294761)
(-0.449943 -0.327754 -0.0138647)
(-0.391495 -0.317527 -0.0272996)
(-0.288176 -0.237549 -0.031411)
(-0.176985 -0.0847012 -0.0199178)
(-0.0571796 0.0499898 -0.0194382)
(0.00852465 0.0655255 -0.00879943)
(0.00499041 0.103991 -0.00539126)
(0.0682174 0.28627 -0.0360049)
(0.161696 0.372119 -0.0409201)
(0.233918 0.393461 -0.0199728)
(0.282612 0.388545 0.00449358)
(0.307027 0.374009 0.0144752)
(0.307213 0.362893 0.021078)
(0.292011 0.350735 0.0225527)
(0.274239 0.338941 0.0208829)
(0.249268 0.319229 0.017791)
(0.220877 0.293404 0.0146928)
(0.185061 0.262457 0.00986775)
(0.143838 0.231541 0.00606298)
(0.105726 0.201657 0.00275823)
(0.06906 0.18081 0.00216582)
(0.0394254 0.166215 -0.000195631)
(0.0134195 0.15757 -0.00333835)
(-0.00513585 0.149794 -0.00236752)
(-0.0139549 0.153225 -0.00120421)
(-0.0239963 0.15353 0.00163488)
(-0.0379711 0.141739 0.00449839)
(-0.0564119 0.125992 0.00713406)
(-0.0751517 0.109336 0.00701222)
(-0.0965089 0.0911275 0.00632864)
(-0.122032 0.0727196 0.00792707)
(-0.142185 0.0501774 0.00498628)
(-0.155941 0.0128263 0.00894679)
(-0.182623 -0.0206409 0.0120518)
(-0.221399 -0.0634526 0.0175716)
(-0.269268 -0.106802 0.01939)
(-0.323687 -0.157263 0.0208331)
(-0.377101 -0.215928 0.018591)
(-0.42 -0.279776 0.0129489)
(-0.4458 -0.345929 0.00153458)
(-0.43744 -0.395221 -0.0144475)
(-0.389251 -0.406225 -0.0313788)
(-0.297413 -0.341173 -0.0463966)
(-0.18284 -0.187284 -0.0345232)
(-0.0578658 0.00740628 -0.00886347)
(0.00636466 0.0682289 -0.0110398)
(-0.00511662 0.0765833 -0.015288)
(0.0476287 0.268307 -0.0403807)
(0.142727 0.364216 -0.0463996)
(0.222201 0.38697 -0.0271717)
(0.280329 0.383127 -0.00676774)
(0.314065 0.361217 0.005776)
(0.323284 0.343065 0.01201)
(0.309808 0.324564 0.0127528)
(0.287719 0.313864 0.0120462)
(0.259258 0.304427 0.00880653)
(0.230693 0.29324 0.00657666)
(0.199012 0.27593 0.00359815)
(0.163467 0.256806 0.0017927)
(0.132087 0.23575 0.000451724)
(0.103471 0.21628 0.00298273)
(0.0767038 0.204836 -0.00179671)
(0.0554747 0.192813 -0.00790131)
(0.0381679 0.179308 -0.00508078)
(0.0208579 0.1665 -0.00447966)
(0.000759614 0.147348 -0.000351395)
(-0.0159495 0.125032 0.00419578)
(-0.0327839 0.10362 0.00670035)
(-0.0513199 0.084405 0.00704064)
(-0.0719132 0.0664596 0.00739471)
(-0.0940072 0.0482618 0.00367654)
(-0.121281 0.0309557 0.00172635)
(-0.143064 0.00387706 0.00180864)
(-0.165883 -0.031403 0.00121549)
(-0.201256 -0.0684096 0.00448542)
(-0.242909 -0.111398 0.00919624)
(-0.29061 -0.161643 0.0127523)
(-0.339142 -0.225909 0.0134805)
(-0.381662 -0.299722 0.00973627)
(-0.411217 -0.379568 0.000418034)
(-0.411253 -0.446035 -0.013764)
(-0.371329 -0.47724 -0.0319444)
(-0.279354 -0.43938 -0.0546412)
(-0.166303 -0.307272 -0.055993)
(-0.0455024 -0.0873152 -0.0209507)
(0.0094418 0.0362421 -0.00776437)
(-0.00613999 0.167498 -0.00775269)
(0.0434006 0.377458 -0.0228468)
(0.131649 0.477252 -0.0334937)
(0.21319 0.500192 -0.0135897)
(0.278536 0.488745 -0.00547824)
(0.320007 0.458401 0.0116716)
(0.338243 0.423065 0.0150345)
(0.337128 0.408095 0.0167697)
(0.333066 0.409996 0.0120547)
(0.31295 0.407308 0.00658479)
(0.282745 0.395569 0.000785697)
(0.244232 0.371742 -0.00337802)
(0.201085 0.339995 -0.006545)
(0.159374 0.306799 -0.0065218)
(0.126232 0.272286 -0.0054616)
(0.0994407 0.241477 -0.00216599)
(0.0691566 0.213579 -0.00783044)
(0.0491766 0.187562 -0.0087276)
(0.035694 0.156573 -0.00645086)
(0.0163846 0.131965 -0.00369576)
(-0.000450352 0.110669 0.00126363)
(-0.0164623 0.0861743 0.00523524)
(-0.0319546 0.0661888 0.00628017)
(-0.0515316 0.045396 0.00868401)
(-0.0737739 0.0270957 0.00161603)
(-0.0974185 0.008576 0.00524025)
(-0.120613 -0.0054042 0.00413574)
(-0.14464 -0.0312937 -0.000444761)
(-0.173923 -0.0686175 -0.00569404)
(-0.213167 -0.11756 -0.00832233)
(-0.261644 -0.169613 -0.00731001)
(-0.311952 -0.23045 -0.00500946)
(-0.355807 -0.297804 -0.00245475)
(-0.386692 -0.382235 -0.00692951)
(-0.390633 -0.463397 -0.0200795)
(-0.366473 -0.528069 -0.048249)
(-0.301483 -0.52059 -0.0742051)
(-0.192891 -0.395666 -0.0703529)
(-0.0551616 -0.155829 -0.0424263)
(0.0103057 0.034307 -0.00628589)
(-0.0188803 0.251794 -0.0228328)
(0.0171669 0.492993 -0.044161)
(0.106418 0.603223 -0.0528562)
(0.19069 0.644441 -0.0396684)
(0.261435 0.636928 -0.0286961)
(0.307928 0.609814 -0.013457)
(0.346124 0.567281 -0.00259655)
(0.372713 0.539877 -0.00216073)
(0.366043 0.520283 -0.00684952)
(0.328612 0.491884 -0.00974762)
(0.283743 0.455579 -0.0105452)
(0.235864 0.411795 -0.0110587)
(0.192476 0.362979 -0.0102585)
(0.156699 0.31638 -0.00892729)
(0.126349 0.272372 -0.00693731)
(0.101589 0.2331 -0.00409121)
(0.0829538 0.197871 -0.000336379)
(0.0614595 0.171032 -0.00547615)
(0.0442035 0.14354 -0.0056033)
(0.0327347 0.116885 -0.00411965)
(0.0145355 0.0935845 -0.00167266)
(-0.00238149 0.0737667 0.00282026)
(-0.0178697 0.0486831 0.00570094)
(-0.036413 0.0300371 0.00639768)
(-0.0539514 0.0118038 0.00539004)
(-0.072412 -0.00410648 0.00943521)
(-0.0942123 -0.018827 0.0086228)
(-0.128965 -0.036369 0.00494407)
(-0.170785 -0.0620714 0.00435939)
(-0.204232 -0.103047 0.00396441)
(-0.235186 -0.1535 0.000635306)
(-0.263731 -0.226667 -0.00594862)
(-0.29785 -0.31769 -0.0159144)
(-0.332334 -0.440012 -0.0246259)
(-0.353154 -0.555166 -0.0341092)
(-0.345266 -0.660488 -0.0544562)
(-0.277484 -0.690938 -0.0791253)
(-0.183316 -0.582834 -0.0886771)
(-0.062599 -0.299809 -0.0631639)
(0.0106831 -0.00996989 -0.0102254)
(-0.000198621 0.217848 0.00185239)
(0.0371049 0.460186 -0.0345255)
(0.109557 0.584721 -0.0465141)
(0.192121 0.640011 -0.0420621)
(0.261028 0.643491 -0.0329568)
(0.31011 0.622813 -0.0224034)
(0.346823 0.58682 -0.0149203)
(0.370565 0.546543 -0.0069685)
(0.366092 0.505039 -0.00800919)
(0.330569 0.467085 -0.00722403)
(0.28701 0.428506 -0.00671528)
(0.238965 0.388325 -0.00545554)
(0.194801 0.344985 -0.00477242)
(0.157674 0.30345 -0.00348601)
(0.129915 0.261007 -0.00368549)
(0.109087 0.223132 -0.00170281)
(0.0883173 0.185703 -0.0017032)
(0.0740289 0.154119 0.000642577)
(0.0586747 0.130871 -5.17387e-05)
(0.0410676 0.104606 -0.00332401)
(0.0289345 0.0836938 -0.00120484)
(0.00948833 0.0608832 0.000376549)
(-0.00568119 0.0424896 0.00834745)
(-0.0181203 0.0214022 0.0067841)
(-0.0356332 0.00443912 0.00610993)
(-0.0521893 -0.0117539 0.00925658)
(-0.0705716 -0.0287506 0.010542)
(-0.0958078 -0.0457866 0.00902794)
(-0.13394 -0.0563385 0.00530868)
(-0.176392 -0.072951 0.00424234)
(-0.227571 -0.103738 0.00474092)
(-0.283198 -0.159897 0.00728718)
(-0.336651 -0.241155 0.00930765)
(-0.358593 -0.359727 0.00605716)
(-0.352449 -0.490484 -0.00325253)
(-0.335382 -0.632225 -0.0170203)
(-0.272244 -0.719994 -0.0356818)
(-0.163187 -0.702787 -0.0580774)
(-0.0319382 -0.441792 -0.0581089)
(0.0221522 -0.0781059 0.000777343)
(-9.59638e-05 0.235527 5.85254e-05)
(0.0362566 0.45294 -0.0292825)
(0.103557 0.57571 -0.0397921)
(0.17981 0.632041 -0.0374551)
(0.247374 0.637503 -0.0232228)
(0.29797 0.61556 -0.0167095)
(0.339542 0.577057 -0.00742267)
(0.36586 0.537317 -0.00166469)
(0.362496 0.491696 -0.00141164)
(0.329505 0.453091 -0.000760286)
(0.284471 0.412682 -0.000481711)
(0.235245 0.371351 -0.000127511)
(0.193342 0.329859 -0.000222935)
(0.159516 0.290287 -0.000544273)
(0.132096 0.25112 -0.000640675)
(0.110651 0.212062 0.000286601)
(0.0958342 0.174305 0.00135422)
(0.0856375 0.140804 0.0025404)
(0.0705848 0.114177 0.00235022)
(0.0585087 0.0916081 0.00473087)
(0.041194 0.072059 0.00112373)
(0.0249379 0.0527884 0.0007611)
(0.0103341 0.0344557 0.00460368)
(-0.0065092 0.017772 0.00589121)
(-0.0176017 -0.00338469 0.00695545)
(-0.0330074 -0.0195712 0.00825594)
(-0.0503696 -0.0389237 0.00979577)
(-0.0702763 -0.0592171 0.0106356)
(-0.0986697 -0.0770491 0.0106538)
(-0.13274 -0.0950204 0.00895843)
(-0.174399 -0.113845 0.00910276)
(-0.215151 -0.145534 0.0088888)
(-0.270203 -0.186242 0.0092889)
(-0.316857 -0.257601 0.00976263)
(-0.348381 -0.360314 0.00687634)
(-0.362909 -0.506511 0.00232431)
(-0.330515 -0.619726 -0.0100908)
(-0.230737 -0.653812 -0.0323002)
(-0.0606378 -0.44574 -0.0465715)
(0.0256508 -0.0425392 -0.0215183)
(0.00652171 0.207668 9.84474e-05)
(0.0440014 0.405302 -0.0240467)
(0.10431 0.535537 -0.0330607)
(0.177721 0.596789 -0.0321915)
(0.243042 0.612411 -0.0196939)
(0.293222 0.594016 -0.0123609)
(0.336783 0.558184 -0.00301306)
(0.360889 0.515029 0.00196072)
(0.358171 0.465693 0.00273537)
(0.328518 0.423537 0.00294504)
(0.283338 0.382353 0.00351178)
(0.236749 0.344523 0.00399205)
(0.197216 0.30821 0.00352688)
(0.164193 0.272279 0.00320623)
(0.13728 0.235914 0.00244454)
(0.11696 0.199919 0.00275294)
(0.099765 0.165926 0.00354534)
(0.0936887 0.131059 0.00589987)
(0.0857773 0.104022 0.00568529)
(0.0716617 0.0794856 0.00505017)
(0.0598782 0.0637614 0.00559397)
(0.0397706 0.0441985 0.00486049)
(0.0262358 0.0289548 0.00376442)
(0.0111743 0.0118997 0.00307006)
(-0.00457701 -0.00430705 0.00685166)
(-0.016883 -0.0237002 0.00735197)