/*--------------------------------*- C++ -*----------------------------------*\
| =========                 |                                                 |
| \\      /  F ield         | OpenFOAM: The Open Source CFD Toolbox           |
|  \\    /   O peration     | Version:  v1806                                 |
|   \\  /    A nd           | Web:      www.OpenFOAM.com                      |
|    \\/     M anipulation  |                                                 |
\*---------------------------------------------------------------------------*/
FoamFile
{
    version     2.0;
    format      ascii;
    class       vectorField;
    location    "0.0175";
    object      currentcloudofpoints;
}
// * * * * * * * * * * * * * * * * * * * * * * * * * * * * * * * * * * * * * //


2409
(
(0.712412 1.11961 0.999998)
(0.937532 0.739807 0.999995)
(1.0934 1.33997 0.999938)
(1.0046 1.03228 0.717212)
(1.00463 1.03225 1.2828)
(1.02437 1.04627 1)
(0.503794 1.19347 0.999939)
(0.8547 0.543323 1.00002)
(1.13013 1.53464 0.999991)
(0.980951 1.01739 0.524444)
(0.980948 1.01745 1.47555)
(1.08955 1.32427 1.09048)
(1.0768 1.27955 1.17147)
(1.05671 1.21065 1.23413)
(1.03167 1.12499 1.27236)
(1.09174 1.33255 1.0452)
(1.08361 1.3022 1.13114)
(1.06698 1.24537 1.20294)
(1.04445 1.16797 1.25351)
(1.01824 1.07855 1.2777)
(0.940573 0.754214 1.08235)
(0.948571 0.796381 1.15827)
(0.962286 0.861004 1.22142)
(0.981375 0.941859 1.26447)
(0.939401 0.747128 1.04105)
(0.945022 0.775506 1.1199)
(0.955446 0.829004 1.1896)
(0.972079 0.901773 1.24277)
(0.992882 0.987149 1.27366)
(1.08949 1.32429 0.90951)
(1.07682 1.2795 0.828615)
(1.05669 1.2105 0.765999)
(1.03168 1.12494 0.727685)
(1.09169 1.33252 0.954717)
(1.08359 1.30224 0.868897)
(1.06699 1.24523 0.797176)
(1.04443 1.16787 0.746594)
(1.01823 1.07855 0.722284)
(0.98135 0.941847 0.735534)
(0.962323 0.861001 0.778571)
(0.948451 0.796299 0.841733)
(0.940617 0.754218 0.917508)
(0.992864 0.987181 0.726435)
(0.972048 0.901694 0.75709)
(0.955467 0.829061 0.810536)
(0.944876 0.775356 0.87994)
(0.939573 0.747295 0.958907)
(0.916488 1.0586 1.26455)
(0.836321 1.08241 1.22082)
(0.771479 1.10152 1.1565)
(0.727851 1.11465 1.08139)
(0.961064 1.04556 1.27303)
(0.876531 1.07078 1.24318)
(0.804583 1.092 1.18809)
(0.749837 1.10805 1.11838)
(0.720028 1.11723 1.04058)
(0.727872 1.11477 0.918623)
(0.77105 1.10173 0.843335)
(0.835968 1.0825 0.77885)
(0.916443 1.05858 0.735639)
(0.720189 1.11724 0.959452)
(0.749538 1.10828 0.881498)
(0.804215 1.09209 0.811701)
(0.876331 1.07082 0.75671)
(0.961057 1.04559 0.727168)
(0.849593 0.780702 1.00003)
(0.777337 0.846636 0.999816)
(0.727397 0.931324 0.999955)
(0.703901 1.02513 1.00001)
(0.894331 0.760666 1.00003)
(0.813859 0.813849 0.999913)
(0.752732 0.889197 0.999834)
(0.715981 0.978442 1.00002)
(0.707971 1.0723 0.999994)
(0.750637 1.20693 0.999915)
(0.814347 1.27845 0.999878)
(0.899101 1.32674 0.999981)
(0.996566 1.34631 0.999978)
(0.731865 1.1629 0.999991)
(0.782659 1.24261 0.999866)
(0.856831 1.3027 0.999963)
(0.948691 1.3364 0.999991)
(1.04486 1.34342 0.999946)
(0.857523 0.552125 1.08954)
(0.867364 0.577062 1.1764)
(0.88506 0.618626 1.25652)
(0.904311 0.676915 1.3276)
(0.922498 0.748294 1.38815)
(0.938957 0.830891 1.43487)
(0.958417 0.922012 1.4642)
(0.856708 0.547605 1.04476)
(0.862853 0.564709 1.13292)
(0.87671 0.597669 1.2165)
(0.895668 0.647627 1.2918)
(0.914263 0.712711 1.35767)
(0.93123 0.789517 1.41154)
(0.948787 0.876465 1.44947)
(0.969765 0.969754 1.46984)
(1.00616 1.11378 1.4694)
(1.03466 1.20773 1.44487)
(1.06424 1.29576 1.40264)
(1.08993 1.37485 1.34371)
(1.11041 1.44126 1.26959)
(1.12199 1.4923 1.18499)
(1.12814 1.52409 1.0942)
(0.993512 1.06561 1.47235)
(1.02038 1.16072 1.45716)
(1.0499 1.25161 1.42387)
(1.07749 1.33529 1.37336)
(1.10096 1.40801 1.30691)
(1.11678 1.46694 1.22719)
(1.12525 1.50851 1.1396)
(1.12923 1.52963 1.04712)
(0.85755 0.552252 0.910344)
(0.867275 0.57698 0.823608)
(0.884993 0.618226 0.743175)
(0.90398 0.676167 0.671637)
(0.922241 0.747896 0.611404)
(0.938887 0.830846 0.565231)
(0.958423 0.922025 0.53592)
(0.856911 0.547826 0.955221)
(0.86269 0.564687 0.866989)
(0.876717 0.597445 0.783398)
(0.895457 0.647065 0.70765)
(0.913931 0.712097 0.64169)
(0.931039 0.789289 0.58827)
(0.948789 0.876481 0.550733)
(0.969746 0.969733 0.530201)
(1.12814 1.52414 0.905783)
(1.12201 1.49235 0.815001)
(1.11042 1.44112 0.730472)
(1.08994 1.37476 0.656279)
(1.06425 1.29579 0.597246)
(1.03461 1.20776 0.55511)
(1.00618 1.11374 0.530571)
(1.12922 1.52965 0.952859)
(1.12526 1.50858 0.860387)
(1.11681 1.46691 0.772823)
(1.10096 1.40783 0.693173)
(1.07751 1.33531 0.626512)
(1.04988 1.25161 0.576125)
(1.02035 1.16074 0.542802)
(0.993548 1.06554 0.527616)
(0.513057 1.18783 1.08767)
(0.541904 1.17312 1.17119)
(0.589798 1.15283 1.24871)
(0.652064 1.12878 1.32005)
(0.723077 1.10232 1.38241)
(0.802001 1.07475 1.43105)
(0.889839 1.0465 1.46158)
(0.50849 1.19094 1.04393)
(0.527451 1.18029 1.12955)
(0.56578 1.16273 1.2098)
(0.6218 1.1405 1.28375)
(0.688093 1.11544 1.35109)
(0.762811 1.08844 1.40694)
(0.84554 1.06066 1.44593)
(0.936109 1.03216 1.46936)
(0.51316 1.18776 0.912382)
(0.541025 1.17352 0.828475)
(0.590448 1.15264 0.751748)
(0.651743 1.12885 0.679657)
(0.723164 1.10228 0.617664)
(0.802221 1.07458 0.569474)
(0.889749 1.04647 0.538244)
(0.508941 1.19069 0.956042)
(0.526755 1.18057 0.87028)
(0.565737 1.16283 0.790254)
(0.621931 1.14044 0.716332)
(0.68797 1.11547 0.648757)
(0.762986 1.0883 0.5934)
(0.845587 1.06055 0.554261)
(0.936063 1.03211 0.530497)
(0.756726 0.582607 1.00002)
(0.673753 0.637985 1.00005)
(0.6054 0.709248 0.999996)
(0.551685 0.793808 0.999973)
(0.515106 0.888842 0.999966)
(0.495021 0.989776 1.00002)
(0.491977 1.09273 0.999995)
(0.80591 0.563045 1.00002)
(0.715122 0.609857 1.00004)
(0.639907 0.673127 1.00002)
(0.578837 0.750871 0.999981)
(0.533731 0.840746 0.999952)
(0.505485 0.938783 0.999994)
(0.493974 1.04076 1.00002)
(0.498642 1.14272 0.999961)
(0.532411 1.28615 0.999927)
(0.580473 1.36593 0.999961)
(0.647045 1.43162 1.00001)
(0.730294 1.48271 1.00006)
(0.825224 1.51977 1.00005)
(0.926642 1.54171 1.00002)
(1.02994 1.54838 0.999993)
(0.518155 1.23984 0.999933)
(0.55639 1.32622 0.999955)
(0.613613 1.39874 0.999976)
(0.688488 1.45703 1.00005)
(0.777815 1.50096 1.00005)
(0.876076 1.53015 1.00003)
(0.978802 1.5453 1)
(1.08032 1.54087 0.999989)
(0.992934 1.02435 0.622361)
(0.987944 1.02046 0.572727)
(0.998635 1.02839 0.670761)
(0.993047 1.02439 1.37765)
(0.998748 1.02836 1.32926)
(0.987982 1.02055 1.42727)
(0.901968 0.639109 0.999956)
(0.920516 0.68996 0.999955)
(0.881254 0.58815 1.00002)
(1.11317 1.43596 0.999964)
(1.10308 1.38749 0.999946)
(1.12243 1.48496 0.999978)
(0.683613 1.33778 1.24804)
(0.669537 1.38981 1.17731)
(0.861348 1.23621 1.41369)
(0.835462 1.48666 1.16392)
(0.55629 1.31217 1.08265)
(0.941083 1.18297 1.45049)
(1.02902 1.52562 1.13763)
(0.940016 1.48557 1.21604)
(0.600746 1.31512 1.17361)
(0.754277 1.41989 1.21924)
(0.718673 1.45339 1.12228)
(0.635927 1.23811 1.26879)
(0.851952 1.42294 1.27359)
(0.924846 1.51927 1.13505)
(0.777877 1.35388 1.30485)
(0.971625 1.54166 1.06745)
(0.954422 1.27349 1.41844)
(0.878766 1.52516 1.078)
(0.542769 1.25186 1.1248)
(0.862487 1.13184 1.44524)
(0.772935 1.19026 1.39345)
(0.875288 1.34033 1.3593)
(1.03009 1.47423 1.24218)
(0.62694 1.39823 1.08943)
(0.57418 1.23113 1.19735)
(0.798411 1.28348 1.36485)
(1.0264 1.41707 1.31411)
(0.946212 1.42374 1.30176)
(0.524046 1.25289 1.05918)
(0.935566 1.09914 1.4669)
(1.05887 1.54172 1.06033)
(0.719816 1.27568 1.32157)
(0.697001 1.19 1.34302)
(0.992499 1.36147 1.36547)
(0.676147 1.44727 1.05433)
(0.79345 1.50098 1.07485)
(0.973854 1.14858 1.4604)
(0.98755 1.19582 1.44852)
(0.958419 1.05841 1.47159)
(0.970882 1.10664 1.46859)
(0.938419 1.14098 1.45858)
(0.994817 1.24099 1.43225)
(1.00939 1.28491 1.41136)
(0.947862 1.22827 1.43441)
(1.02865 1.32885 1.38446)
(1.04111 1.36788 1.35471)
(0.974011 1.31774 1.39242)
(1.05827 1.39578 1.3289)
(1.0687 1.42859 1.29186)
(1.00957 1.3893 1.33992)
(1.07052 1.45728 1.25574)
(1.07611 1.48265 1.21349)
(1.02905 1.44563 1.27819)
(1.07565 1.5088 1.16139)
(1.0787 1.52419 1.11599)
(1.02975 1.5007 1.19002)
(1.09362 1.5326 1.07721)
(1.09475 1.5378 1.03031)
(1.04394 1.53371 1.09895)
(1.04447 1.54515 1.03011)
(0.568541 1.33931 1.04135)
(0.544174 1.29953 1.04139)
(0.540019 1.28271 1.07101)
(0.528177 1.26977 1.02959)
(0.514039 1.22327 1.02958)
(0.636954 1.41522 1.04483)
(0.603752 1.38209 1.04474)
(0.591744 1.35503 1.08605)
(0.703165 1.465 1.02733)
(0.661534 1.43951 1.02716)
(0.651402 1.42289 1.07196)
(0.809232 1.51041 1.03757)
(0.761776 1.49187 1.03736)
(0.734787 1.47368 1.06463)
(0.902584 1.53327 1.03915)
(0.852038 1.52229 1.0389)
(0.836284 1.5128 1.07647)
(1.00096 1.54533 1.03391)
(0.949157 1.54169 1.0336)
(0.925233 1.53282 1.07279)
(1.01563 1.54213 1.06401)
(0.642345 1.32631 1.21045)
(0.635038 1.3525 1.17555)
(0.676785 1.36404 1.21268)
(0.711963 1.40478 1.19814)
(0.718786 1.37906 1.23394)
(0.613859 1.35721 1.13178)
(0.64809 1.39417 1.13327)
(0.693924 1.42198 1.14998)
(0.736671 1.43695 1.1705)
(0.672356 1.42585 1.10585)
(0.901888 1.2095 1.43163)
(0.90805 1.25471 1.41567)
(0.902144 1.15724 1.44726)
(0.862057 1.18395 1.42939)
(0.868735 1.28845 1.3866)
(0.91561 1.30701 1.38887)
(0.817015 1.21324 1.4037)
(0.818001 1.16089 1.41981)
(0.830219 1.2598 1.38933)
(0.785621 1.23707 1.37934)
(0.836788 1.31179 1.36196)
(0.814594 1.49378 1.11911)
(0.857085 1.50607 1.1211)
(0.77748 1.46927 1.14293)
(0.756164 1.47689 1.09876)
(0.896111 1.45363 1.24504)
(0.8442 1.45555 1.2188)
(0.887699 1.48587 1.1898)
(0.880127 1.50274 1.14974)
(0.93253 1.50289 1.17545)
(0.901775 1.52214 1.10637)
(0.794959 1.45322 1.19189)
(0.80348 1.42148 1.24638)
(0.571589 1.28341 1.14914)
(0.54944 1.2823 1.10386)
(0.578403 1.31352 1.12814)
(0.533347 1.25244 1.09211)
(0.527878 1.21977 1.10627)
(0.542753 1.21245 1.14811)
(0.51867 1.22039 1.07351)
(0.558153 1.20207 1.18424)
(0.5822 1.19197 1.2232)
(0.558586 1.24138 1.16108)
(0.613123 1.19553 1.25872)
(0.644776 1.18335 1.29426)
(0.605206 1.23456 1.23285)
(0.710393 1.14606 1.36274)
(0.674621 1.15942 1.33153)
(0.667472 1.21392 1.30549)
(0.748036 1.14632 1.3878)
(0.78787 1.13232 1.4124)
(0.735337 1.19005 1.36815)
(0.831944 1.10338 1.4382)
(0.876276 1.0892 1.45316)
(0.912855 1.07282 1.46411)
(0.899611 1.1155 1.45555)
(0.659765 1.2882 1.25867)
(0.702333 1.30693 1.28476)
(0.678257 1.25687 1.29488)
(0.748715 1.31492 1.31337)
(0.731161 1.34584 1.27625)
(0.618905 1.27675 1.22115)
(0.766681 1.3873 1.26203)
(1.00057 1.53395 1.10237)
(0.708477 1.23296 1.33232)
(0.747159 1.23295 1.35752)
(0.759292 1.27957 1.34318)
(0.788643 1.31883 1.33489)
(0.697329 1.45036 1.08824)
(0.977533 1.52264 1.1366)
(0.98511 1.50612 1.17747)
(0.985636 1.48053 1.22966)
(0.948279 1.53022 1.10133)
(0.943829 1.45478 1.259)
(0.899012 1.42289 1.28752)
(0.989041 1.4492 1.2727)
(0.587584 1.27334 1.18566)
(0.814865 1.38856 1.28947)
(0.827114 1.34696 1.33201)
(0.8644 1.3819 1.31665)
(0.910933 1.38197 1.33074)
(0.934514 1.35096 1.36265)
(0.970208 1.3929 1.33378)
(0.986881 1.42078 1.30843)
(0.667222 0.852913 1.30483)
(0.54055 0.905844 1.1575)
(0.658737 0.690496 1.15702)
(0.717733 0.644337 1.16707)
(0.559216 0.958214 1.21311)
(0.700877 0.931692 1.35859)
(0.788249 0.590895 1.13606)
(0.513974 1.11171 1.12806)
(0.870062 0.906633 1.44187)
(0.588308 0.876602 1.22596)
(0.725535 0.697567 1.24943)
(0.513612 1.00586 1.12992)
(0.627242 0.95734 1.29684)
(0.838593 0.812245 1.39713)
(0.668532 1.03644 1.34337)
(0.596831 1.04233 1.27157)
(0.79307 0.62883 1.21831)
(0.829859 0.989964 1.44146)
(0.703939 0.624753 1.08616)
(0.525447 0.882353 1.0863)
(0.784497 0.910154 1.4085)
(0.542665 1.0676 1.19614)
(0.745377 1.01363 1.4011)
(0.560918 0.791695 1.07991)
(0.77951 0.752444 1.33245)
(0.82203 0.678416 1.29561)
(0.632526 0.773558 1.21891)
(0.7093 0.775274 1.29944)
(0.852222 0.729603 1.35269)
(0.742552 0.835131 1.35591)
(0.594068 0.759872 1.13197)
(0.565667 0.828267 1.15175)
(0.789555 0.57194 1.06287)
(0.905262 0.976063 1.46308)
(0.612003 0.708883 1.06736)
(0.495919 1.08353 1.05985)
(0.501778 0.968379 1.05713)
(0.745918 0.607485 1.11104)
(0.711119 0.634524 1.12666)
(0.752937 0.61755 1.1517)
(0.789271 0.58156 1.09944)
(0.746443 0.597995 1.07462)
(0.755119 0.636344 1.19268)
(0.790801 0.60969 1.1774)
(0.823406 0.571747 1.1129)
(0.828304 0.583892 1.15626)
(0.823974 0.562109 1.07619)
(0.830832 0.602951 1.1977)
(0.90506 0.868564 1.43882)
(0.915028 0.914351 1.45336)
(0.881378 0.780196 1.39282)
(0.890237 0.821456 1.41629)
(0.854672 0.859318 1.41974)
(0.932119 0.949002 1.46402)
(0.943446 0.996825 1.46995)
(0.887871 0.941429 1.4523)
(0.527383 0.955328 1.14375)
(0.536429 0.981613 1.17155)
(0.550049 0.931752 1.18529)
(0.52828 1.03638 1.16305)
(0.551515 1.01254 1.20456)
(0.593477 0.957365 1.25458)
(0.578361 0.999992 1.24211)
(0.612318 0.99962 1.28416)
(0.573991 0.917132 1.21952)
(0.608193 0.916571 1.26114)
(0.569821 1.05459 1.23354)
(0.564505 0.890869 1.19159)
(0.688283 0.667111 1.16206)
(0.681819 0.657465 1.12181)
(0.658574 0.666203 1.07675)
(0.635646 0.699553 1.11223)
(0.689194 0.631375 1.04313)
(0.730464 0.603372 1.04322)
(0.773241 0.577095 1.03145)
(0.643556 0.673214 1.0338)
(0.514445 1.05838 1.12897)
(0.528328 1.08943 1.1622)
(0.505221 1.04446 1.09499)
(0.505092 1.09756 1.09406)
(0.521104 0.936729 1.10761)
(0.507838 0.987006 1.09372)
(0.499494 1.02531 1.0585)
(0.648519 0.996893 1.31975)
(0.633387 1.0392 1.30692)
(0.685021 0.983986 1.35082)
(0.664749 0.944377 1.32723)
(0.647673 0.904933 1.30076)
(0.684876 0.892337 1.33116)
(0.627981 0.864262 1.26509)
(0.888306 0.738898 1.37048)
(0.845964 0.770972 1.37464)
(0.811149 0.861185 1.4028)
(0.826965 0.908549 1.42495)
(0.790319 0.823725 1.37647)
(0.764024 0.872592 1.38217)
(0.809891 0.782545 1.36445)
(0.815686 0.74112 1.34244)
(0.761217 0.793794 1.34401)
(0.660597 1.0825 1.3317)
(0.625314 1.08542 1.29531)
(0.696229 1.06946 1.3627)
(0.734418 1.05796 1.39174)
(0.707537 1.02493 1.37198)
(0.723575 0.972706 1.37964)
(0.594109 1.09734 1.26001)
(0.566658 1.10986 1.22214)
(0.859785 1.01834 1.45137)
(0.816013 1.03238 1.43608)
(0.7878 1.00174 1.42154)
(0.773864 1.04429 1.41612)
(0.897631 1.01134 1.46232)
(0.867672 0.983134 1.45193)
(0.849804 0.948403 1.44145)
(0.807401 0.950146 1.42491)
(0.765019 0.961828 1.40476)
(0.692113 0.693514 1.20313)
(0.721706 0.670643 1.20837)
(0.646129 0.731711 1.1881)
(0.679198 0.735024 1.23418)
(0.603146 0.734134 1.09981)
(0.626659 0.724699 1.14448)
(0.613514 0.766405 1.17539)
(0.759182 0.66305 1.23392)
(0.528104 1.14217 1.1496)
(0.514062 1.14959 1.10792)
(0.505331 1.13527 1.07376)
(0.500838 1.1382 1.02998)
(0.542993 1.12012 1.18371)
(0.721749 0.883273 1.35739)
(0.705368 0.843943 1.32996)
(0.650179 0.812594 1.26191)
(0.610961 0.824668 1.22251)
(0.688312 0.813942 1.30218)
(0.670868 0.773787 1.25918)
(0.726742 0.805312 1.32703)
(0.822608 0.557624 1.0315)
(0.608926 0.709136 1.03374)
(0.58235 0.750647 1.03372)
(0.520734 0.885727 1.04315)
(0.539477 0.837881 1.04328)
(0.55659 0.792804 1.04003)
(0.5867 0.749638 1.0737)
(0.543634 0.836597 1.08312)
(0.498629 0.979142 1.02858)
(0.508856 0.928387 1.02859)
(0.513863 0.924945 1.07171)
(0.494089 1.08823 1.02997)
(0.496132 1.03631 1.02998)
(0.839832 0.623702 1.23742)
(0.864142 0.677545 1.31172)
(0.854193 0.648471 1.27625)
(0.808222 0.653466 1.25674)
(0.878779 0.703136 1.34037)
(0.837829 0.703965 1.32389)
(0.742936 0.920863 1.38354)
(0.77364 0.687869 1.27225)
(0.553328 0.866743 1.15465)
(0.57717 0.852094 1.18884)
(0.599555 0.80043 1.1851)
(0.800885 0.715332 1.31406)
(0.753495 0.72461 1.29068)
(0.717845 0.736145 1.27454)
(0.744657 0.763827 1.3157)
(0.545519 0.854978 1.11917)
(0.532935 0.893957 1.12213)
(0.577555 0.775626 1.10598)
(0.563484 0.809914 1.116)
(0.580225 0.793853 1.14191)
(0.688023 0.747356 0.74064)
(0.598881 0.94028 0.738004)
(0.698774 0.692689 0.783752)
(0.713252 0.644343 0.839933)
(0.520898 0.961086 0.864398)
(0.759802 0.91287 0.605182)
(0.514117 1.05863 0.863191)
(0.823334 0.983624 0.561145)
(0.640701 0.758753 0.783859)
(0.559438 0.901101 0.807897)
(0.803456 0.758896 0.649676)
(0.599272 1.04289 0.726147)
(0.678133 0.913049 0.665564)
(0.627888 0.832719 0.745228)
(0.742499 0.844658 0.640399)
(0.546681 0.993632 0.800602)
(0.734004 1.00168 0.606599)
(0.782105 0.628204 0.79181)
(0.869816 0.907358 0.557808)
(0.783439 0.589788 0.872752)
(0.630902 0.683783 0.94284)
(0.532136 0.870054 0.901397)
(0.579383 0.759239 0.917268)
(0.704138 0.622374 0.923439)
(0.551582 1.08225 0.791089)
(0.584935 0.801421 0.83304)
(0.774315 0.693664 0.718292)
(0.641731 0.701174 0.857032)
(0.664273 1.02613 0.659827)
(0.498263 0.999821 0.938497)
(0.832878 0.826499 0.59841)
(0.787821 0.572816 0.940848)
(0.501154 1.1195 0.921184)
(0.710189 0.792936 0.688543)
(0.631867 0.979405 0.695086)
(0.903968 0.975048 0.537232)
(0.634616 0.795523 0.76457)
(0.658161 0.789668 0.742836)
(0.664503 0.752882 0.762412)
(0.693723 0.719909 0.762261)
(0.669993 0.725444 0.783794)
(0.699345 0.769991 0.714644)
(0.669231 0.812412 0.717054)
(0.736822 0.692843 0.751283)
(0.731175 0.720231 0.729479)
(0.742485 0.743143 0.703375)
(0.81439 0.910169 0.581326)
(0.79187 0.948244 0.582882)
(0.846381 0.945607 0.559706)
(0.746937 0.957237 0.605815)
(0.778925 0.992554 0.583519)
(0.851536 0.866793 0.577778)
(0.795956 0.869679 0.601817)
(0.75156 0.878837 0.62302)
(0.710524 0.878812 0.65309)
(0.719647 0.913 0.635627)
(0.706816 0.957393 0.636149)
(0.787614 0.835644 0.619597)
(0.896898 1.01082 0.537662)
(0.942805 0.996289 0.5302)
(0.931499 0.948506 0.536233)
(0.53065 1.02586 0.831842)
(0.533776 0.97714 0.832421)
(0.517972 1.00946 0.863808)
(0.549608 1.03772 0.795894)
(0.532817 1.07023 0.827059)
(0.506454 1.02898 0.90067)
(0.509772 0.980341 0.901345)
(0.546879 1.12766 0.809746)
(0.528397 1.11556 0.845902)
(0.507743 1.08894 0.892062)
(0.520948 1.14614 0.87478)
(0.500467 1.059 0.929803)
(0.863684 0.979478 0.549565)
(0.887118 0.941302 0.547749)
(0.768306 1.0382 0.587841)
(0.812768 1.02912 0.565275)
(0.856427 1.01519 0.549892)
(0.612772 0.779659 0.808421)
(0.606579 0.816577 0.789297)
(0.670179 0.696558 0.820341)
(0.641379 0.729658 0.820193)
(0.613847 0.750641 0.844853)
(0.904921 0.868929 0.561164)
(0.914949 0.914758 0.546669)
(0.887206 0.828448 0.581328)
(0.613781 0.886208 0.741577)
(0.593968 0.866389 0.776737)
(0.579176 0.920327 0.773047)
(0.57264 0.850818 0.82039)
(0.553386 0.947034 0.804258)
(0.540268 0.93078 0.83613)
(0.572839 0.966577 0.769455)
(0.545762 0.88529 0.854393)
(0.526987 0.915157 0.882823)
(0.558717 0.835248 0.867194)
(0.726801 0.818789 0.664792)
(0.772709 0.801613 0.644972)
(0.756864 0.77587 0.669356)
(0.818883 0.792779 0.624457)
(0.864235 0.753322 0.630372)
(0.854594 0.717495 0.660289)
(0.789657 0.726248 0.684183)
(0.840488 0.685097 0.695113)
(0.878382 0.787018 0.604616)
(0.599566 0.991419 0.732169)
(0.573222 1.01789 0.763743)
(0.5757 1.06222 0.758969)
(0.626328 1.08573 0.703395)
(0.595661 1.09751 0.739108)
(0.571282 1.11723 0.771649)
(0.632339 1.03437 0.693417)
(0.658382 1.07738 0.669799)
(0.61576 1.01098 0.710625)
(0.615735 0.959762 0.716839)
(0.648342 1.00277 0.677611)
(0.639202 0.926373 0.702371)
(0.653797 0.872564 0.705846)
(0.694618 0.852902 0.677307)
(0.69959 1.01381 0.633387)
(0.671544 0.969462 0.662672)
(0.655255 0.946065 0.680379)
(0.728775 1.05193 0.612213)
(0.694143 1.06429 0.638899)
(0.740442 0.660241 0.78775)
(0.747515 0.63607 0.815948)
(0.70616 0.668371 0.811688)
(0.748147 0.616849 0.856217)
(0.782782 0.608794 0.832125)
(0.825204 0.602562 0.807379)
(0.834424 0.62318 0.767517)
(0.82587 0.583281 0.8482)
(0.778874 0.660739 0.755073)
(0.830391 0.656163 0.730558)
(0.516023 0.934046 0.920003)
(0.677695 0.672376 0.848479)
(0.743665 0.605884 0.898139)
(0.708814 0.633265 0.881558)
(0.673414 0.66131 0.890006)
(0.507428 1.1535 0.91676)
(0.50329 1.15642 0.960467)
(0.689235 0.630079 0.96174)
(0.730836 0.602602 0.961673)
(0.772548 0.577756 0.970454)
(0.821808 0.558115 0.970387)
(0.745766 0.597418 0.932087)
(0.618341 0.696427 0.971393)
(0.652644 0.660702 0.971405)
(0.667724 0.652525 0.933142)
(0.565659 0.77636 0.958556)
(0.59269 0.733966 0.95847)
(0.605448 0.720962 0.929948)
(0.542313 0.831673 0.950445)
(0.523889 0.879486 0.950616)
(0.55622 0.813916 0.909277)
(0.496731 0.994898 0.969236)
(0.507345 0.943825 0.969199)
(0.495581 1.046 0.969201)
(0.496893 1.10618 0.960507)
(0.823132 0.562581 0.925591)
(0.821002 0.571293 0.891432)
(0.785909 0.581412 0.906773)
(0.636492 0.692371 0.899783)
(0.610808 0.729649 0.887107)
(0.582467 0.780231 0.87494)
(0.698406 1.40742 0.815768)
(0.659475 1.33916 0.776921)
(0.939054 1.51313 0.84179)
(0.780585 1.27447 0.638335)
(0.548788 1.2712 0.881323)
(1.04026 1.52546 0.864243)
(0.931718 1.18834 0.552341)
(0.885242 1.29465 0.608211)
(0.608655 1.35533 0.862529)
(0.739812 1.35666 0.722716)
(0.67766 1.26597 0.706089)
(0.678025 1.44078 0.914502)
(0.840375 1.38034 0.686664)
(0.841366 1.21679 0.58501)
(0.798107 1.43413 0.770302)
(0.858062 1.13258 0.55687)
(1.01867 1.48977 0.781872)
(0.786378 1.17048 0.594224)
(0.556685 1.31931 0.935522)
(0.976973 1.54195 0.93188)
(0.85709 1.51802 0.909328)
(0.908357 1.45657 0.748561)
(0.975525 1.29376 0.590676)
(0.598673 1.25806 0.784352)
(0.605047 1.38626 0.940824)
(0.851041 1.48512 0.822221)
(1.01001 1.36545 0.637794)
(0.932519 1.37835 0.656244)
(0.525578 1.25414 0.942591)
(1.06198 1.54136 0.939822)
(0.93289 1.10013 0.53368)
(0.764438 1.4674 0.855331)
(0.767064 1.49289 0.934274)
(1.01276 1.42612 0.694265)
(0.626159 1.20426 0.727205)
(0.719248 1.19222 0.64091)
(1.04604 1.54493 0.969967)
(1.0963 1.53767 0.969763)
(1.09517 1.53248 0.922855)
(0.653301 1.38129 0.839227)
(0.63402 1.34734 0.819834)
(0.678891 1.37355 0.796169)
(0.700008 1.34784 0.750041)
(0.719766 1.38235 0.769461)
(0.688148 1.42439 0.865144)
(0.643314 1.39829 0.888325)
(0.768957 1.39558 0.746248)
(0.748447 1.42062 0.793105)
(0.731338 1.43754 0.835314)
(0.721181 1.45393 0.885054)
(0.781465 1.45118 0.812924)
(0.544798 1.30277 0.967665)
(0.568578 1.34289 0.967683)
(0.514849 1.22389 0.971206)
(0.529182 1.27023 0.97119)
(0.541227 1.28677 0.939013)
(0.592749 1.37622 0.970364)
(0.625975 1.4091 0.970346)
(0.580692 1.35291 0.938145)
(0.662455 1.43636 0.957294)
(0.704002 1.46195 0.957101)
(0.641355 1.41341 0.927697)
(0.796016 1.50651 0.966983)
(0.748581 1.48791 0.967227)
(0.722483 1.46664 0.92427)
(0.841001 1.51912 0.95477)
(0.891742 1.52971 0.95446)
(0.812213 1.50517 0.921827)
(0.951877 1.54183 0.966115)
(1.00359 1.54536 0.965787)
(0.917148 1.52915 0.920423)
(1.01981 1.542 0.935729)
(0.957087 1.05889 0.528554)
(0.911448 1.0733 0.536105)
(0.969605 1.10711 0.531579)
(0.545124 1.22258 0.854614)
(0.531129 1.22939 0.89681)
(0.537288 1.26262 0.911939)
(0.519659 1.22094 0.927459)
(0.569922 1.21567 0.806533)
(0.573313 1.26458 0.832796)
(0.58246 1.33724 0.899078)
(0.552886 1.29535 0.908384)
(0.578534 1.31333 0.871875)
(0.603771 1.30719 0.823089)
(0.990261 1.51962 0.85255)
(0.97931 1.50196 0.811749)
(1.02952 1.50786 0.823071)
(1.07037 1.49039 0.798428)
(1.08128 1.50874 0.839623)
(1.00889 1.53414 0.898146)
(1.05112 1.53349 0.902066)
(0.958062 1.52762 0.886708)
(1.08431 1.52421 0.88498)
(0.594913 1.20548 0.767815)
(0.639462 1.16642 0.703568)
(0.60859 1.17842 0.739612)
(0.612795 1.23117 0.755865)
(0.721518 1.14718 0.629414)
(0.685592 1.16063 0.66029)
(0.673389 1.19822 0.684169)
(0.794538 1.12246 0.581849)
(0.754847 1.13642 0.606119)
(0.753311 1.18117 0.617927)
(0.874034 1.08951 0.547943)
(0.829991 1.10364 0.563324)
(0.822271 1.15149 0.57521)
(0.896022 1.11633 0.545852)
(0.863441 1.33764 0.64724)
(0.810512 1.32769 0.662262)
(0.832795 1.28451 0.623161)
(0.811611 1.2456 0.611721)
(0.863156 1.25591 0.596516)
(0.813852 1.19367 0.589593)
(0.7839 1.22248 0.61642)
(0.749855 1.23342 0.639724)
(0.708625 1.31157 0.714195)
(0.729619 1.27022 0.672293)
(0.761027 1.31582 0.680458)
(0.790349 1.36833 0.704797)
(0.698817 1.22923 0.673259)
(0.629016 1.29874 0.780546)
(0.669202 1.30273 0.741592)
(0.638911 1.26179 0.745876)
(0.886797 1.20243 0.569077)
(0.909249 1.24178 0.57996)
(0.95368 1.24143 0.570919)
(0.93099 1.29423 0.599519)
(0.849808 1.17464 0.570839)
(0.895114 1.16026 0.555167)
(0.93253 1.14408 0.54334)
(0.983006 1.19868 0.552539)
(1.00532 1.25106 0.572399)
(0.969438 1.15126 0.540907)
(0.90918 1.33638 0.632219)
(0.886307 1.37917 0.671494)
(0.955101 1.3362 0.623303)
(0.606936 1.37091 0.901661)
(0.820012 1.4074 0.728683)
(0.651857 1.23521 0.716641)
(0.765751 1.48012 0.894821)
(0.853342 1.44483 0.759544)
(0.874549 1.41838 0.717359)
(0.921321 1.41808 0.701947)
(0.879936 1.47083 0.785675)
(0.824625 1.45965 0.796053)
(0.807916 1.47606 0.838798)
(0.961617 1.44224 0.72074)
(1.01673 1.45816 0.737808)
(0.964274 1.47327 0.764407)
(1.06185 1.43294 0.712321)
(1.06515 1.46521 0.756128)
(0.924035 1.4849 0.795065)
(0.973111 1.4025 0.674665)
(1.01167 1.39576 0.665978)
(0.971968 1.37218 0.646666)
(1.05163 1.4001 0.675278)
(1.04989 1.36982 0.647037)
(0.898091 1.51544 0.875825)
(0.85407 1.5018 0.865805)
(0.810901 1.49231 0.88205)
(0.895008 1.49872 0.831883)
(0.993126 1.32963 0.614032)
(1.01981 1.29483 0.593621)
(1.0374 1.33072 0.617316)
(0.896239 0.930376 1.23588)
(0.856819 0.811967 1.11551)
(0.765519 0.89155 1.08482)
(0.861366 1.0016 1.23805)
(0.720639 0.987154 1.06813)
(0.829072 0.94707 1.20143)
(0.885411 0.861997 1.19004)
(0.806193 0.894263 1.149)
(0.761809 0.985051 1.14508)
(0.928367 0.990388 1.26419)
(0.820195 0.810049 1.05132)
(0.803366 1.02376 1.19719)
(0.738071 1.04654 1.1195)
(0.877293 0.770414 1.05106)
(0.71057 1.05967 1.0553)
(0.711353 1.08964 1.02764)
(0.719235 1.08712 1.06824)
(0.733071 1.08049 1.10026)
(0.754829 1.074 1.13774)
(0.724504 1.05311 1.08719)
(0.871683 0.837382 1.15199)
(0.846218 0.878314 1.16943)
(0.831792 0.853384 1.13217)
(0.811702 0.851835 1.10005)
(0.78618 0.892947 1.11655)
(0.793352 0.851034 1.06799)
(0.838764 0.810954 1.08326)
(0.867314 0.791252 1.08312)
(0.848818 0.790242 1.05117)
(0.917309 0.829678 1.17358)
(0.90363 0.804774 1.13604)
(0.899261 0.783419 1.09858)
(0.909409 0.762506 1.0664)
(0.763975 0.938815 1.11456)
(0.74145 0.986253 1.10612)
(0.743535 0.939797 1.07629)
(0.724306 0.959638 1.03388)
(0.747004 0.911939 1.04212)
(0.749999 1.01587 1.13221)
(0.729309 1.01696 1.09359)
(0.712378 1.00631 1.03399)
(0.715607 1.02345 1.06167)
(0.707114 1.04253 1.02755)
(0.939383 0.936639 1.24939)
(0.955082 0.966387 1.26402)
(0.912388 0.960588 1.25002)
(0.966599 1.01135 1.27304)
(0.895072 0.996204 1.25132)
(0.878801 0.966129 1.2372)
(0.922464 1.02455 1.2644)
(0.889021 1.03026 1.25129)
(0.857442 0.904887 1.19596)
(0.817948 0.920966 1.17487)
(0.78438 0.93997 1.14703)
(0.796104 0.966243 1.17278)
(0.835144 0.795473 1.02563)
(0.799244 0.828635 1.02545)
(0.863667 0.775632 1.02547)
(0.772063 0.869559 1.04218)
(0.929802 0.896381 1.22807)
(0.890929 0.896531 1.21284)
(0.86269 0.938876 1.21888)
(0.924239 0.862065 1.20525)
(0.845237 0.974448 1.21977)
(0.849035 1.04209 1.22961)
(0.787921 1.06265 1.1766)
(0.819982 1.05308 1.20883)
(0.832647 1.01278 1.21766)
(0.771324 1.03523 1.15753)
(0.907997 0.755498 1.02555)
(0.782871 1.00452 1.17077)
(0.816227 0.985552 1.1994)
(0.774262 1.1826 1.11596)
(0.995417 1.3159 1.12081)
(0.941597 1.3305 1.06257)
(0.961349 1.26911 1.17727)
(0.891089 1.22438 1.19124)
(0.967111 1.1843 1.24185)
(0.906732 1.28848 1.13176)
(0.860968 1.29724 1.06967)
(0.897801 1.14135 1.24034)
(1.02408 1.34131 1.05654)
(0.837451 1.24528 1.13103)
(0.832042 1.17477 1.18469)
(0.785618 1.23803 1.06285)
(0.741139 1.17659 1.05325)
(0.962468 1.10983 1.26908)
(0.901182 1.31421 1.06617)
(0.924415 1.30979 1.0972)
(0.884092 1.29304 1.10049)
(0.849507 1.2714 1.10033)
(0.872021 1.26713 1.13143)
(0.951761 1.302 1.12609)
(0.978641 1.29253 1.14905)
(0.93444 1.27906 1.15443)
(0.969196 1.32333 1.09148)
(0.926309 1.2469 1.18431)
(0.899235 1.25681 1.1615)
(0.864563 1.2352 1.16102)
(0.734559 1.14549 1.06727)
(0.726905 1.14798 1.02646)
(0.773051 1.14193 1.13609)
(0.751086 1.14845 1.0983)
(0.757726 1.17958 1.08434)
(1.03615 1.29785 1.14567)
(1.04239 1.32034 1.10589)
(1.01004 1.32882 1.08884)
(1.05689 1.33321 1.07336)
(1.05872 1.34115 1.02845)
(0.999285 1.15487 1.25732)
(1.01148 1.19727 1.23785)
(1.0092 1.23959 1.20469)
(1.01889 1.27393 1.17398)
(0.964707 1.22664 1.20905)
(0.996764 1.11731 1.27066)
(0.983585 1.07126 1.27598)
(0.964961 1.14711 1.25573)
(0.866971 1.11199 1.23081)
(0.90739 1.10002 1.25285)
(0.930586 1.12558 1.25475)
(0.939575 1.08417 1.26676)
(0.865276 1.15822 1.21232)
(0.834585 1.12849 1.20262)
(0.932684 1.16273 1.24105)
(0.894907 1.18273 1.21543)
(0.861525 1.19968 1.18805)
(0.929831 1.20419 1.216)
(0.745873 1.19179 1.02662)
(0.802068 1.138 1.17027)
(0.803614 1.17865 1.14974)
(0.780174 1.21024 1.08937)
(0.763476 1.20724 1.05793)
(0.811904 1.24152 1.09644)
(0.806126 1.21376 1.12317)
(0.835102 1.21013 1.15773)
(1.01045 1.34396 1.02816)
(0.983689 1.33549 1.0595)
(0.969632 1.33845 1.03145)
(0.768063 1.22258 1.03115)
(0.800025 1.25842 1.03148)
(0.880141 1.31229 1.03502)
(0.837778 1.28807 1.03447)
(0.823481 1.26763 1.06606)
(0.920447 1.32884 1.03113)
(0.893538 1.15446 0.7666)
(1.01769 1.31169 0.868436)
(0.817886 1.25493 0.909018)
(0.977295 1.18733 0.757034)
(0.844157 1.22096 0.839381)
(0.925733 1.29439 0.866531)
(0.829504 1.14135 0.801297)
(0.919271 1.23223 0.802053)
(0.776608 1.17357 0.873109)
(0.987159 1.26237 0.809518)
(0.988296 1.33763 0.936455)
(0.963642 1.11314 0.731634)
(0.881569 1.31139 0.941389)
(0.754427 1.20002 0.947234)
(0.752117 1.14413 0.896238)
(0.773896 1.13759 0.858321)
(0.733657 1.15954 0.973927)
(0.741252 1.15715 0.933051)
(0.765623 1.1868 0.910428)
(0.803666 1.15737 0.837921)
(0.800583 1.12148 0.822657)
(0.832829 1.11194 0.790051)
(0.90529 1.10658 0.750621)
(0.929101 1.13385 0.749009)
(0.94017 1.08581 0.733766)
(0.970642 1.15021 0.744117)
(0.935831 1.17077 0.761973)
(0.881695 1.22686 0.820708)
(0.906718 1.19324 0.784531)
(0.869639 1.18779 0.803441)
(0.948973 1.20971 0.779976)
(0.86471 1.11852 0.77248)
(0.861619 1.14799 0.783901)
(0.837259 1.18101 0.82052)
(0.752566 1.20348 0.973602)
(0.810808 1.19698 0.856687)
(0.797686 1.21403 0.891217)
(0.831455 1.23795 0.874521)
(0.786377 1.22737 0.92847)
(0.984176 1.07295 0.724386)
(0.997345 1.11899 0.729667)
(1.00437 1.15632 0.742194)
(0.957334 1.27848 0.838445)