/*--------------------------------*- C++ -*----------------------------------*\
| =========                 |                                                 |
| \\      /  F ield         | OpenFOAM: The Open Source CFD Toolbox           |
|  \\    /   O peration     | Version:  v1806                                 |
|   \\  /    A nd           | Web:      www.OpenFOAM.com                      |
|    \\/     M anipulation  |                                                 |
\*---------------------------------------------------------------------------*/
FoamFile
{
    version     2.0;
    format      ascii;
    class       volVectorField;
    location    "0.0175";
    object      U_0;
}
// * * * * * * * * * * * * * * * * * * * * * * * * * * * * * * * * * * * * * //

dimensions      [0 1 -1 0 0 0 0];


internalField   nonuniform List<vector> 
64000
(
(-0.00227516 -0.00569732 0.000545577)
(0.0114012 -0.00735918 0.000360998)
(0.0271318 -0.00573651 0.00265345)
(0.0331178 -0.00567927 0.00327531)
(0.0260491 -0.00359541 0.00430684)
(0.0193417 -0.0034273 0.00502491)
(0.0173274 -0.00458428 0.00500867)
(0.0141186 -0.00620914 0.00494988)
(0.0102852 -0.00798575 0.00528213)
(0.0058838 -0.00846453 0.00496832)
(-0.00539618 -0.00840819 0.00503718)
(-0.0248509 -0.00562207 0.00559773)
(-0.0471761 -0.00535836 0.00468049)
(-0.076714 -0.00382036 0.0046364)
(-0.10937 -0.00101118 0.00610986)
(-0.146955 0.00477595 0.00444728)
(-0.189799 0.00796999 0.00475466)
(-0.229839 0.0014805 0.00795035)
(-0.272376 -0.00775768 0.00572666)
(-0.281831 -0.0142069 -0.00335063)
(-0.317637 -0.038805 -0.0408326)
(-0.231795 -0.0208815 -0.0314173)
(-0.0991636 -0.0245695 -0.0373777)
(-0.0938844 -0.0106714 -0.0397389)
(-0.0819889 -0.00245048 -0.0513145)
(-0.0734042 0.00581396 -0.06342)
(-0.0577122 0.0155981 -0.0705785)
(-0.0343789 0.0262755 -0.066541)
(-0.000562416 0.0395479 -0.0515795)
(0.0441028 0.0530013 -0.0331073)
(0.0873405 0.0408378 -0.0324924)
(0.121783 0.0354496 -0.0219181)
(0.135834 0.0232818 -0.0102018)
(0.130935 0.0104387 -0.00173298)
(0.112071 0.00242516 0.00332469)
(0.0869016 -0.00392487 0.00524864)
(0.0621801 -0.00647614 0.00740221)
(0.0411237 -0.00560541 0.00794717)
(0.0223182 -0.00401846 0.00790649)
(0.00590971 -0.00293062 0.00671064)
(-0.00126957 -0.0118267 0.00158898)
(0.0142606 -0.0200962 0.000175374)
(0.0377915 -0.0175647 0.000677673)
(0.0503379 -0.0142748 0.00114093)
(0.04699 -0.00564568 0.001503)
(0.0384734 -0.00108001 0.000720478)
(0.0339831 0.00127447 -0.000633231)
(0.0270426 0.00556958 -0.00101971)
(0.0183308 0.0115171 -0.00506615)
(0.00612711 0.0247213 -0.00225954)
(-0.016 0.031171 -0.00547251)
(-0.0546234 0.041021 0.00151137)
(-0.103243 0.0518721 -0.00104883)
(-0.16094 0.0668447 -0.00449502)
(-0.225072 0.0750037 -0.00925796)
(-0.301811 0.080338 -0.0249115)
(-0.397959 0.087451 -0.0413359)
(-0.490041 0.093969 -0.0540682)
(-0.567973 0.100547 -0.0699556)
(-0.621528 0.112315 -0.0906202)
(-0.652803 0.103577 -0.118086)
(-0.552365 0.143465 -0.127539)
(-0.416942 0.156484 -0.149658)
(-0.384191 0.193967 -0.160132)
(-0.352813 0.219938 -0.168703)
(-0.30943 0.24075 -0.177234)
(-0.252067 0.258318 -0.18003)
(-0.181891 0.270908 -0.171268)
(-0.10037 0.282601 -0.148704)
(-0.0371175 0.285113 -0.122098)
(0.0284043 0.274054 -0.0777715)
(0.0976151 0.243468 -0.0508494)
(0.129608 0.196505 -0.0400289)
(0.143046 0.149979 -0.0283076)
(0.134173 0.104951 -0.0146049)
(0.110512 0.0681973 -0.00638018)
(0.0857677 0.0429948 -0.00196903)
(0.0615912 0.0283753 -0.000173232)
(0.0371696 0.0191773 0.00143979)
(0.0118242 0.00974024 0.00346804)
(0.000120952 -0.0226198 0.00303842)
(0.017914 -0.0315893 -0.000345647)
(0.0447084 -0.0258336 -0.000222537)
(0.0608259 -0.016341 0.000392509)
(0.0567955 0.000480266 -0.00154411)
(0.0421747 0.0196648 -0.00250453)
(0.0339144 0.0341734 -0.00398226)
(0.0229316 0.0528989 -0.00753376)
(0.0102599 0.0748251 -0.00208755)
(-0.0187698 0.0936337 -0.00449629)
(-0.0667695 0.109424 -0.00898626)
(-0.123477 0.132453 -0.0125162)
(-0.189654 0.155305 -0.0181664)
(-0.276333 0.177367 -0.0287173)
(-0.375508 0.199203 -0.0363592)
(-0.470096 0.214979 -0.0468883)
(-0.563074 0.235507 -0.0577896)
(-0.646913 0.265508 -0.0696429)
(-0.716676 0.298261 -0.083991)
(-0.761642 0.334132 -0.101587)
(-0.775181 0.36368 -0.119598)
(-0.656617 0.40008 -0.12072)
(-0.50093 0.429654 -0.131611)
(-0.448689 0.468934 -0.131845)
(-0.411532 0.498179 -0.128951)
(-0.365022 0.51732 -0.127804)
(-0.308885 0.526144 -0.124232)
(-0.242152 0.522155 -0.113875)
(-0.170054 0.508669 -0.094931)
(-0.100758 0.480516 -0.0723162)
(-0.0449418 0.460469 -0.0494751)
(-0.00377456 0.415013 -0.027254)
(0.0317337 0.360235 -0.0110416)
(0.0564973 0.296829 -0.00596527)
(0.062565 0.229462 -0.00904989)
(0.0608388 0.171047 -0.00760229)
(0.0549557 0.122842 -0.00678318)
(0.0455124 0.0878159 -0.00411004)
(0.0321522 0.0597214 -0.000636167)
(0.0117025 0.0298289 0.00308843)
(-5.87729e-06 -0.0308192 0.0018375)
(0.0206565 -0.0379695 -0.00134709)
(0.0499309 -0.0259053 -0.00180639)
(0.0669895 -0.00659024 0.000272089)
(0.0667921 0.0163215 -0.00398716)
(0.0466796 0.0491997 -0.00519268)
(0.0276921 0.0753429 -0.00703214)
(0.00820957 0.107807 -0.00126258)
(-0.0265632 0.134219 -0.0066381)
(-0.0764132 0.155983 -0.00980965)
(-0.129337 0.18352 -0.0145828)
(-0.196525 0.217051 -0.0225534)
(-0.278833 0.250473 -0.0261832)
(-0.363908 0.279008 -0.03081)
(-0.451781 0.315715 -0.0378991)
(-0.537193 0.351626 -0.0445948)
(-0.616233 0.388915 -0.0488769)
(-0.683794 0.426851 -0.0520111)
(-0.736272 0.464116 -0.0556996)
(-0.768055 0.503625 -0.0611739)
(-0.769671 0.536408 -0.0642031)
(-0.639594 0.563046 -0.0510789)
(-0.473365 0.583711 -0.0501854)
(-0.415648 0.602547 -0.0411863)
(-0.383934 0.612825 -0.0303159)
(-0.348115 0.612348 -0.0246563)
(-0.307676 0.600355 -0.0211462)
(-0.259603 0.575757 -0.0160408)
(-0.206716 0.544461 -0.00633713)
(-0.156182 0.503218 0.00121374)
(-0.112085 0.457343 0.0056767)
(-0.0752084 0.410164 0.00711389)
(-0.0505473 0.362827 0.00595368)
(-0.0322461 0.312313 0.00293916)
(-0.016464 0.260271 -0.00138912)
(-0.00414984 0.211324 -0.00398734)
(0.00723897 0.164229 -0.00533203)
(0.015669 0.12373 -0.00633718)
(0.0186117 0.0862844 -0.00236444)
(0.00927539 0.0404816 0.00338235)
(0.000851077 -0.037157 0.0011268)
(0.0255707 -0.0374917 -0.00356432)
(0.059526 -0.0189526 -0.000986021)
(0.0740363 0.010394 -0.00295482)
(0.0716122 0.0427297 -0.00371489)
(0.045581 0.0791973 -0.00567083)
(0.0179883 0.1137 0.00132422)
(-0.0156966 0.154235 -0.0029015)
(-0.0641216 0.188964 -0.00604253)
(-0.116099 0.228102 -0.0111691)
(-0.171854 0.26946 -0.0152217)
(-0.234273 0.305981 -0.0199927)
(-0.307198 0.346648 -0.0215247)
(-0.381996 0.389408 -0.0232862)
(-0.455897 0.430261 -0.0250702)
(-0.524802 0.469058 -0.0234334)
(-0.585918 0.508975 -0.0181787)
(-0.637607 0.549246 -0.0104291)
(-0.674068 0.589595 -0.00219138)
(-0.693865 0.627872 -0.00204185)
(-0.693029 0.656475 -0.00093924)
(-0.564013 0.675849 0.0175932)
(-0.399723 0.678943 0.0201248)
(-0.346269 0.665743 0.0299207)
(-0.326138 0.648794 0.0379619)
(-0.309365 0.622097 0.0423011)
(-0.292115 0.587361 0.0442797)
(-0.265736 0.545239 0.0437355)
(-0.235969 0.500089 0.0393998)
(-0.208044 0.453626 0.0327182)
(-0.181845 0.406825 0.023429)
(-0.158701 0.358622 0.016628)
(-0.132358 0.312468 0.0109402)
(-0.10614 0.270938 0.00447006)
(-0.0836664 0.235487 -0.00134489)
(-0.0621589 0.201632 -0.00567486)
(-0.0406928 0.168478 -0.00847023)
(-0.0177724 0.134624 -0.00814425)
(0.00313519 0.0981942 -0.00261081)
(0.00623968 0.0423095 0.00369066)
(0.00288955 -0.0406757 0.000320604)
(0.0310916 -0.032628 -0.00395549)
(0.0676246 -0.00239098 -0.00466649)
(0.0830374 0.0339583 -0.00360893)
(0.0751459 0.0752391 -0.00804063)
(0.0406112 0.112462 -0.0014154)
(0.00743962 0.156698 0.00208329)
(-0.0293243 0.204237 -0.00224827)
(-0.0790642 0.254039 -0.00581697)
(-0.12894 0.303613 -0.00932155)
(-0.182064 0.351588 -0.0112083)
(-0.237864 0.392327 -0.0107147)
(-0.293036 0.430776 -0.00730851)
(-0.350066 0.466749 -0.00821956)
(-0.409403 0.503534 -0.00468799)
(-0.461245 0.541542 -0.00169175)
(-0.504402 0.583822 0.00573957)
(-0.538853 0.622476 0.0139632)
(-0.565049 0.657302 0.0176547)
(-0.58482 0.683165 0.0187864)
(-0.584809 0.704579 0.026191)
(-0.466515 0.736676 0.0486324)
(-0.327654 0.708216 0.0494616)
(-0.291534 0.649108 0.0566796)
(-0.285662 0.598365 0.0644914)
(-0.288914 0.550265 0.0669805)
(-0.291351 0.502021 0.0650354)
(-0.285908 0.454134 0.0613654)
(-0.271658 0.404354 0.0566589)
(-0.256105 0.360517 0.0473148)
(-0.242898 0.322137 0.0332501)
(-0.227136 0.287264 0.0181784)
(-0.206943 0.256663 0.0080836)
(-0.176808 0.225567 0.00231806)
(-0.141102 0.198476 -0.003854)
(-0.107275 0.177731 -0.00815478)
(-0.0729576 0.156885 -0.0109356)
(-0.0379162 0.135247 -0.00966964)
(-0.0046641 0.101861 -0.00416378)
(0.00528156 0.0396106 0.0037551)
(0.00343242 -0.0370847 -0.0014581)
(0.0402767 -0.0126009 -0.00571596)
(0.0820349 0.0227557 -0.0108339)
(0.0926439 0.0660876 -0.00860051)
(0.0768378 0.107927 -0.0080846)
(0.039711 0.152556 -0.00100394)
(0.0106885 0.20573 0.00242106)
(-0.0238097 0.259113 -0.00188498)
(-0.0690048 0.317138 -0.00346661)
(-0.113049 0.370133 -0.00501949)
(-0.159392 0.419223 -0.00471794)
(-0.205978 0.459568 -0.00228548)
(-0.253076 0.495163 0.00255146)
(-0.295597 0.523404 0.00526298)
(-0.332876 0.550765 0.00814991)
(-0.362836 0.576656 0.014794)
(-0.392111 0.601665 0.0199157)
(-0.424074 0.630506 0.0260971)
(-0.451868 0.647314 0.028871)
(-0.468537 0.663298 0.029504)
(-0.450369 0.690268 0.0386151)
(-0.370439 0.727193 0.0536439)
(-0.304901 0.674243 0.0524025)
(-0.28867 0.592855 0.0535501)
(-0.28144 0.516386 0.0546484)
(-0.291875 0.460867 0.0551181)
(-0.307099 0.414699 0.0533381)
(-0.316051 0.373415 0.0506536)
(-0.314859 0.331378 0.0443286)
(-0.305696 0.293775 0.0334167)
(-0.296539 0.261706 0.0210411)
(-0.284893 0.234107 0.0113879)
(-0.266257 0.215336 0.000527497)
(-0.23762 0.200603 -0.00411485)
(-0.194281 0.186347 -0.00794157)
(-0.146181 0.172209 -0.0128836)
(-0.0987843 0.159722 -0.0158148)
(-0.0526331 0.143958 -0.0135742)
(-0.0106959 0.110756 -0.00617654)
(0.00517312 0.0413439 0.00298751)
(0.0084947 -0.0300457 -0.000574465)
(0.0461677 0.0144602 -0.0169825)
(0.0894092 0.0546839 -0.0179988)
(0.100936 0.0984656 -0.0137235)
(0.084109 0.142873 -0.00948634)
(0.0528346 0.196468 -0.00181427)
(0.025631 0.257501 0.00219837)
(-0.00129816 0.309635 0.00188171)
(-0.0384774 0.365795 0.000837678)
(-0.0772259 0.417316 0.00140904)
(-0.117029 0.458751 0.00245738)
(-0.155845 0.493011 0.00738766)
(-0.190389 0.521721 0.0116986)
(-0.222578 0.542516 0.015776)
(-0.252465 0.554718 0.0209131)
(-0.277715 0.559219 0.0257106)
(-0.293632 0.558754 0.0282715)
(-0.318255 0.567166 0.0229829)
(-0.346188 0.567654 0.0213244)
(-0.351834 0.58576 0.0253458)
(-0.33487 0.617948 0.035687)
(-0.30881 0.632791 0.0426976)
(-0.305878 0.586506 0.0408697)
(-0.317367 0.51866 0.0376796)
(-0.314218 0.438478 0.033491)
(-0.316628 0.37893 0.0328687)
(-0.333171 0.339978 0.0337398)
(-0.349608 0.306059 0.0344287)
(-0.355025 0.272279 0.0319214)
(-0.350515 0.23879 0.0203296)
(-0.346341 0.208383 0.0116717)
(-0.333289 0.183651 0.00342717)
(-0.312115 0.169985 -0.00443473)
(-0.282027 0.166043 -0.00813767)
(-0.238809 0.168794 -0.0124324)
(-0.183408 0.168816 -0.0152796)
(-0.12041 0.163269 -0.0193293)
(-0.0645282 0.151509 -0.0173558)
(-0.0152727 0.119807 -0.00902285)
(0.00455717 0.0434975 0.00233703)
(0.0112905 -0.014435 -0.00230148)
(0.0548155 0.0438324 -0.0239966)
(0.098795 0.0922687 -0.0248296)
(0.111407 0.135537 -0.0203524)
(0.101497 0.183846 -0.0131528)
(0.079934 0.240479 -0.007134)
(0.0548229 0.30074 0.0035653)
(0.0285001 0.354068 0.00672434)
(0.00266389 0.399381 0.00866139)
(-0.0312717 0.438014 0.00983935)
(-0.0663075 0.472521 0.0133263)
(-0.095039 0.49941 0.0184942)
(-0.124794 0.516234 0.0210031)
(-0.15384 0.520671 0.0236571)
(-0.18067 0.515472 0.0250957)
(-0.202448 0.502796 0.0251487)
(-0.214607 0.493404 0.0211791)
(-0.239957 0.476339 0.0102721)
(-0.259759 0.478102 0.0139812)
(-0.253768 0.503752 0.0223921)
(-0.254108 0.52624 0.0288384)
(-0.272771 0.528347 0.0308202)
(-0.313362 0.503117 0.0277846)
(-0.356032 0.456957 0.0230992)
(-0.364057 0.391249 0.0180171)
(-0.353859 0.324675 0.0159277)
(-0.360682 0.287363 0.018589)
(-0.379025 0.258253 0.0212838)
(-0.390685 0.229743 0.0214229)
(-0.391535 0.196596 0.0133923)
(-0.388184 0.166831 0.00179928)
(-0.37541 0.147698 -0.00341053)
(-0.350613 0.133698 -0.00875684)
(-0.315446 0.133649 -0.0143978)
(-0.267115 0.140654 -0.0150185)
(-0.210539 0.157052 -0.0178882)
(-0.142418 0.162144 -0.0201594)
(-0.0749319 0.158298 -0.0205251)
(-0.0194212 0.128579 -0.0118275)
(0.00367526 0.0479049 0.00183211)
(0.00901113 0.00591297 -0.00771363)
(0.0544189 0.0823949 -0.0312852)
(0.106365 0.134777 -0.0315902)
(0.126356 0.180309 -0.024365)
(0.126096 0.227936 -0.0177089)
(0.111901 0.281456 -0.00833232)
(0.0925896 0.334497 -0.00211635)
(0.0682401 0.383071 0.00762825)
(0.0389413 0.419633 0.0182679)
(0.0156674 0.446533 0.0218701)
(-0.00763923 0.468816 0.0254299)
(-0.0356585 0.480084 0.0278739)
(-0.0648353 0.486482 0.0275415)
(-0.0945539 0.477337 0.0265066)
(-0.123045 0.458446 0.0230837)
(-0.141979 0.43674 0.0176777)
(-0.16039 0.418924 0.0062664)
(-0.179597 0.399927 0.00341535)
(-0.177518 0.420085 0.0125052)
(-0.180126 0.43927 0.0175313)
(-0.207202 0.447452 0.0216118)
(-0.250479 0.448651 0.0221261)
(-0.316232 0.4386 0.0184371)
(-0.385062 0.411959 0.0144643)
(-0.414965 0.370874 0.0116519)
(-0.397869 0.302417 0.00928124)
(-0.383469 0.250577 0.00999776)
(-0.397037 0.220645 0.0121906)
(-0.413813 0.193837 0.0120647)
(-0.420924 0.166284 0.00799801)
(-0.417039 0.135108 0.0138943)
(-0.406377 0.111175 0.0161026)
(-0.386087 0.0973165 0.012986)
(-0.351732 0.096417 0.00601653)
(-0.298739 0.108048 -0.0129803)
(-0.233561 0.128764 -0.0183223)
(-0.157778 0.155239 -0.0203538)
(-0.0830294 0.15736 -0.0197282)
(-0.0226627 0.134753 -0.0134874)
(0.00343434 0.0514661 0.00160418)
(0.00670226 0.0210068 -0.0110142)
(0.055307 0.122203 -0.0370685)
(0.116748 0.182434 -0.0373965)
(0.145406 0.227336 -0.0261873)
(0.153534 0.271676 -0.019466)
(0.14717 0.316326 -0.0101631)
(0.131393 0.360886 -0.00145671)
(0.107934 0.397815 0.00624169)
(0.0835429 0.426608 0.012553)
(0.0603288 0.449706 0.0288883)
(0.035791 0.45848 0.0367047)
(0.0173266 0.457851 0.0401589)
(-0.0095832 0.445825 0.0325019)
(-0.0464208 0.426116 0.0260302)
(-0.0760631 0.402331 0.0170058)
(-0.0960058 0.381126 0.00600775)
(-0.112916 0.363053 -0.00291722)
(-0.114537 0.369186 0.0044783)
(-0.114728 0.383644 0.0086756)
(-0.140299 0.38557 0.0138613)
(-0.177236 0.386882 0.0183195)
(-0.229699 0.389755 0.0181972)
(-0.308926 0.385293 0.0141448)
(-0.388438 0.368689 0.0118487)
(-0.440453 0.348719 0.00905896)
(-0.441177 0.300404 0.00839661)
(-0.409494 0.226057 0.00772108)
(-0.404724 0.185608 0.00683278)
(-0.419408 0.159432 0.00477199)
(-0.435019 0.130889 0.0216425)
(-0.444596 0.0989564 0.0291567)
(-0.437266 0.0698453 0.0286974)
(-0.416275 0.0523114 0.0179869)
(-0.381645 0.0526503 0.0101994)
(-0.328255 0.0666505 0.00197982)
(-0.253217 0.0941457 -0.0167916)
(-0.171629 0.13014 -0.0212147)
(-0.0929304 0.153396 -0.019917)
(-0.023296 0.137985 -0.0143196)
(0.00283082 0.0550744 0.00103872)
(0.00483777 0.0388113 -0.01373)
(0.0568654 0.165395 -0.0426957)
(0.127523 0.231563 -0.0421878)
(0.16536 0.273014 -0.027145)
(0.181068 0.310581 -0.0159055)
(0.179755 0.345592 -0.00878931)
(0.168094 0.378788 -0.00357145)
(0.147206 0.403769 0.0072602)
(0.126141 0.425697 0.0142223)
(0.106196 0.440501 0.0230815)
(0.0829232 0.44428 0.0295897)
(0.0562989 0.436984 0.0396678)
(0.0260237 0.41291 0.0361248)
(-0.00451868 0.384622 0.0246831)
(-0.0326443 0.363284 0.00909307)
(-0.0526043 0.351673 -0.0017711)
(-0.0573281 0.345544 -0.00089464)
(-0.0616567 0.353224 0.0027582)
(-0.0817548 0.34776 0.00761085)
(-0.11307 0.343088 0.0133737)
(-0.15042 0.340753 0.0182587)
(-0.205315 0.341808 0.0176172)
(-0.291449 0.335844 0.0134008)
(-0.373227 0.322871 0.0127848)
(-0.430641 0.3104 0.00941823)
(-0.463769 0.289833 0.00645755)
(-0.438661 0.227357 0.00725653)
(-0.404404 0.1575 0.00629528)
(-0.414019 0.125191 0.013533)
(-0.437709 0.0904964 0.0239647)
(-0.453097 0.0587541 0.0341418)
(-0.455128 0.0339667 0.0513483)
(-0.43964 0.0123178 0.0520547)
(-0.411068 0.00226766 0.0363737)
(-0.361318 0.0164529 0.0242011)
(-0.283506 0.0495651 0.00484506)
(-0.184911 0.0933023 -0.022308)
(-0.0943977 0.136525 -0.0208535)
(-0.0264453 0.135843 -0.0145984)
(0.00321504 0.0563539 0.000264074)
(0.00367891 0.0556321 -0.0167834)
(0.0584454 0.206025 -0.0487169)
(0.13645 0.277754 -0.0479108)
(0.183358 0.314981 -0.0286303)
(0.206962 0.341919 -0.0128119)
(0.210448 0.365688 -0.00297428)
(0.199511 0.388841 0.00166326)
(0.182691 0.405677 0.00484014)
(0.168414 0.421233 0.00878639)
(0.148425 0.426921 0.0190171)
(0.122791 0.421195 0.022487)
(0.0949565 0.406331 0.0264101)
(0.0600768 0.385949 0.0294952)
(0.030664 0.364668 0.0176439)
(0.0138705 0.357569 0.0042145)
(-0.00205255 0.348681 -0.00185835)
(-0.0154988 0.344234 0.00118808)
(-0.0325083 0.330319 0.00404483)
(-0.0582443 0.318139 0.008806)
(-0.0888389 0.308493 0.0142778)
(-0.12249 0.300577 0.0194416)
(-0.176315 0.296249 0.0182896)
(-0.264159 0.286165 0.0140991)
(-0.343411 0.274759 0.0139468)
(-0.396142 0.26517 0.0101039)
(-0.440738 0.256977 0.00660742)
(-0.454085 0.231943 0.00738249)
(-0.417576 0.151272 0.0094656)
(-0.400281 0.0945975 0.0152106)
(-0.424927 0.0532016 0.0292053)
(-0.442949 0.0198454 0.0450938)
(-0.455159 -0.0167088 0.0358794)
(-0.460331 -0.0498812 0.0247746)
(-0.4389 -0.0709218 0.0149977)
(-0.391126 -0.0610443 0.00447284)
(-0.315574 -0.0172886 0.00554446)
(-0.209602 0.0477221 -0.00120046)
(-0.103739 0.106344 -0.0285623)
(-0.0258004 0.129316 -0.0136644)
(0.00274672 0.0572019 -0.000853395)
(0.00264005 0.0682498 -0.0187939)
(0.0596091 0.238995 -0.0528127)
(0.143737 0.315624 -0.0529789)
(0.196695 0.348321 -0.0323429)
(0.226311 0.365382 -0.0122334)
(0.236186 0.377358 0.00161414)
(0.231211 0.388921 0.00743369)
(0.218518 0.403163 0.0119011)
(0.204332 0.412501 0.012569)
(0.182417 0.410642 0.0135645)
(0.156962 0.400487 0.0133111)
(0.130639 0.387406 0.0179497)
(0.102583 0.376699 0.0192593)
(0.0854662 0.369495 0.00977828)
(0.0624013 0.364618 -0.00150433)
(0.0325155 0.345609 -0.000494595)
(0.00830268 0.332261 0.00136538)
(-0.0155809 0.309663 0.00649889)
(-0.0379995 0.291857 0.0102866)
(-0.0659207 0.275772 0.0152109)
(-0.0942063 0.261271 0.020325)
(-0.144773 0.249636 0.0187871)
(-0.230175 0.236001 0.0149747)
(-0.303553 0.225214 0.0148394)
(-0.350031 0.216228 0.0114837)
(-0.391155 0.210108 0.00962434)
(-0.432281 0.198993 0.0117896)
(-0.425195 0.157526 0.0119476)
(-0.394665 0.0666889 0.0203186)
(-0.400391 0.0173118 0.0262998)
(-0.425466 -0.0273823 0.0241448)
(-0.45522 -0.0783449 0.0202936)
(-0.468088 -0.122934 0.0127894)
(-0.455461 -0.14973 0.00181452)
(-0.409565 -0.152972 -0.00805925)
(-0.334599 -0.106356 -0.0143809)
(-0.231373 -0.0234364 -0.00677126)
(-0.115078 0.0656464 -0.0169897)
(-0.0274532 0.115122 -0.017221)
(0.00237495 0.058438 -0.00228742)
(0.00120454 0.0739828 -0.0164251)
(0.0584254 0.262176 -0.0517155)
(0.146749 0.343104 -0.0532207)
(0.206712 0.371349 -0.032612)
(0.242483 0.379803 -0.0112469)
(0.256358 0.38122 0.00408477)
(0.259526 0.384118 0.0106597)
(0.253467 0.392215 0.0131309)
(0.238593 0.398591 0.0128622)
(0.216286 0.399887 0.0129941)
(0.195481 0.398021 0.0124689)
(0.178965 0.394617 0.0131623)
(0.155191 0.389695 0.0149022)
(0.129121 0.378748 0.00232983)
(0.0918412 0.355424 -0.00497283)
(0.0555238 0.330815 -0.000988384)
(0.0271979 0.309738 0.000884767)
(-0.000945472 0.289728 0.00731509)
(-0.0211342 0.264067 0.0112477)
(-0.0448374 0.241718 0.0154477)
(-0.0678958 0.22044 0.0198954)
(-0.11367 0.200124 0.0182159)
(-0.193238 0.185615 0.0151811)
(-0.260511 0.176857 0.0151411)
(-0.300955 0.168416 0.0119397)
(-0.339466 0.161875 0.0114971)
(-0.379564 0.152085 0.00467509)
(-0.414741 0.140396 0.00276436)
(-0.398364 0.0744604 0.00919909)
(-0.374745 -0.0074459 0.0092516)
(-0.400568 -0.0700419 0.0121982)
(-0.432672 -0.126665 0.0112479)
(-0.454229 -0.177645 0.00471357)
(-0.456131 -0.218345 -0.00676399)
(-0.419795 -0.234702 -0.0172644)
(-0.348861 -0.206767 -0.0311191)
(-0.250799 -0.119046 -0.0283007)
(-0.129889 0.00700391 -0.00219502)
(-0.0301993 0.085778 -0.0249076)
(0.00288646 0.0581949 -0.00425639)
(0.000319101 0.0860637 -0.0127518)
(0.0561288 0.28306 -0.0493624)
(0.145703 0.367091 -0.0520844)
(0.210828 0.391418 -0.0323798)
(0.252536 0.390879 -0.0100863)
(0.274165 0.383614 0.00494648)
(0.285964 0.37822 0.00932845)
(0.286741 0.384093 0.0107685)
(0.278623 0.396045 0.0101492)
(0.263221 0.406388 0.0101064)
(0.246795 0.411944 0.0101645)
(0.227039 0.408956 0.0113037)
(0.194597 0.392309 0.0138385)
(0.155326 0.370403 0.00484835)
(0.109981 0.338571 -0.00579462)
(0.0723423 0.313744 -0.00298737)
(0.0451188 0.285886 0.000100725)
(0.0140144 0.265305 0.00537421)
(-0.00865513 0.236453 0.0116839)
(-0.027368 0.207384 0.0149903)
(-0.0480161 0.179408 0.0184449)
(-0.0861405 0.152296 0.017693)
(-0.154431 0.138494 0.0155652)
(-0.215951 0.132851 0.0155613)
(-0.253506 0.12659 0.0118367)
(-0.287855 0.118999 0.00807278)
(-0.324215 0.110171 -0.000597515)
(-0.3619 0.0959474 -9.73717e-05)
(-0.389511 0.0743325 -0.000798438)
(-0.380667 -0.00771095 -0.00143004)
(-0.375508 -0.0850709 0.00196341)
(-0.400939 -0.155063 0.00463485)
(-0.427271 -0.218344 0.00137476)
(-0.44041 -0.272976 -0.00778573)
(-0.419203 -0.305329 -0.0204796)
(-0.35786 -0.295822 -0.0361193)
(-0.257717 -0.223411 -0.0470523)
(-0.144187 -0.0769619 -0.0314996)
(-0.0365781 0.0473518 -0.0191883)
(0.00883977 0.0551503 -0.00728964)
(-0.00585017 0.0948851 -0.0182655)
(0.0450522 0.299556 -0.0505575)
(0.137984 0.389594 -0.0539742)
(0.208912 0.413517 -0.0351047)
(0.25842 0.408221 -0.0117578)
(0.286991 0.395157 0.000409632)
(0.312305 0.384254 0.00620031)
(0.330686 0.398197 0.00706024)
(0.330148 0.415039 0.00677912)
(0.313739 0.426273 0.0079284)
(0.291378 0.42802 0.00881597)
(0.260618 0.41353 0.00939061)
(0.219856 0.386134 0.0101393)
(0.174562 0.354497 0.00913325)
(0.12681 0.322778 -5.30185e-05)
(0.0867992 0.298885 -0.00564778)
(0.0580224 0.267371 -0.00139127)
(0.0284142 0.240646 0.00293662)
(0.00243209 0.213585 0.00993561)
(-0.0165528 0.179248 0.0140775)
(-0.0340347 0.148154 0.0171589)
(-0.0623633 0.118956 0.0174382)
(-0.117191 0.103699 0.0162191)
(-0.17295 0.0989447 0.0165689)
(-0.209971 0.0931641 0.0136395)
(-0.243751 0.0856345 0.00677772)
(-0.280522 0.0736011 0.00225973)
(-0.315373 0.0609512 0.00524259)
(-0.351418 0.042599 0.00386338)
(-0.365826 0.000666158 -0.000502701)
(-0.364311 -0.0930782 -0.00785813)
(-0.375573 -0.160487 -0.00162043)
(-0.393979 -0.233143 -0.00130713)
(-0.410831 -0.302623 -0.00781785)
(-0.40122 -0.357473 -0.020768)
(-0.358121 -0.371849 -0.0408863)
(-0.270776 -0.319061 -0.0560731)
(-0.156792 -0.173531 -0.0470156)
(-0.0384225 -0.00118847 -0.00790587)
(0.0111602 0.0505871 -0.0109342)
(-0.00827503 0.157502 -0.0205758)
(0.0388867 0.367304 -0.0463197)
(0.130994 0.462958 -0.0510957)
(0.205441 0.486454 -0.0343927)
(0.261994 0.476139 -0.0119559)
(0.300854 0.455025 -0.00213363)
(0.348564 0.440156 0.00492036)
(0.381867 0.452883 0.00613619)
(0.378119 0.461089 0.0064821)
(0.357274 0.458086 0.00708043)
(0.324927 0.444057 0.0073013)
(0.282854 0.41665 0.00696403)
(0.234861 0.382504 0.0069963)
(0.187753 0.345554 0.00715206)
(0.143909 0.311573 0.00564748)
(0.10076 0.28496 -0.00123772)
(0.067757 0.257274 -0.00465506)
(0.0411882 0.224713 0.00032065)
(0.0126933 0.197116 0.00574892)
(-0.00814492 0.164227 0.0123142)
(-0.0223219 0.1321 0.0152688)
(-0.043574 0.101941 0.016399)
(-0.0860113 0.0826808 0.0159578)
(-0.13559 0.0766179 0.0166762)
(-0.171804 0.0690725 0.0149609)
(-0.206123 0.0575521 0.00389415)
(-0.238361 0.0478856 0.00596532)
(-0.269279 0.0388917 0.00701539)
(-0.308938 0.0214446 0.00665302)
(-0.35492 -0.00384721 0.00461919)
(-0.35225 -0.0670498 0.00357547)
(-0.338697 -0.171654 -0.0121053)
(-0.362924 -0.261045 -0.0145997)
(-0.384017 -0.344858 -0.0192693)
(-0.383513 -0.422265 -0.0298143)
(-0.34962 -0.467353 -0.049544)
(-0.269845 -0.4374 -0.0718993)
(-0.169352 -0.290236 -0.0721345)
(-0.0459561 -0.0775709 -0.0342669)
(0.0143295 0.0366414 -0.00912083)
(-0.0148139 0.283679 -0.0239818)
(0.0252936 0.500995 -0.043744)
(0.116245 0.603208 -0.0497699)
(0.192749 0.632168 -0.0350534)
(0.255804 0.622914 -0.0152665)
(0.306055 0.597954 -0.00578973)
(0.374623 0.567769 0.00327499)
(0.419647 0.543184 0.00393116)
(0.408366 0.521878 0.00370306)
(0.376951 0.493485 0.00452016)
(0.338089 0.458168 0.00507604)
(0.293237 0.419197 0.00498916)
(0.244793 0.379107 0.00477343)
(0.19714 0.341162 0.00444297)
(0.154846 0.305622 0.00489628)
(0.116681 0.273253 0.00470981)
(0.0796844 0.246561 -0.00117451)
(0.0498235 0.216461 -0.00296842)
(0.023829 0.185824 0.00212411)
(0.00028191 0.157267 0.00828535)
(-0.0150044 0.12418 0.0126678)
(-0.030968 0.0937358 0.0148046)
(-0.0614935 0.0699536 0.0149413)
(-0.104064 0.0605224 0.0148453)
(-0.143356 0.0516871 0.0122323)
(-0.173859 0.0377514 0.0091905)
(-0.199823 0.0291204 0.00942641)
(-0.230352 0.0160723 0.00985523)
(-0.265621 0.000958337 0.0107908)
(-0.303984 -0.0164307 0.00911906)
(-0.355033 -0.0413298 0.00350613)
(-0.365493 -0.13478 0.00434867)
(-0.345773 -0.260334 -0.00711708)
(-0.357042 -0.379343 -0.0170897)
(-0.363049 -0.483588 -0.0278347)
(-0.338644 -0.559994 -0.045157)
(-0.257544 -0.564061 -0.0692124)
(-0.161438 -0.439197 -0.0791284)
(-0.0453217 -0.169572 -0.054791)
(0.0180632 0.0205581 -0.0107857)
(-0.0119758 0.314181 -0.0155657)
(0.024257 0.548176 -0.0430465)
(0.10944 0.66425 -0.0517099)
(0.188821 0.708293 -0.041695)
(0.255717 0.706623 -0.0260295)
(0.303647 0.683675 -0.0176412)
(0.362119 0.647955 -0.00655668)
(0.406612 0.592229 -0.00289735)
(0.40231 0.54622 -0.000950831)
(0.372787 0.502231 0.00160212)
(0.336228 0.457255 0.0033284)
(0.29468 0.412474 0.00446006)
(0.249939 0.369412 0.00483775)
(0.206058 0.330414 0.0042294)
(0.164259 0.295039 0.0043554)
(0.126354 0.262008 0.00489788)
(0.0933186 0.23089 0.00628438)
(0.0616125 0.203026 0.000730759)
(0.0335687 0.173755 5.3349e-05)
(0.00875777 0.146732 0.00470156)
(-0.00905072 0.116309 0.0102294)
(-0.0223837 0.0868261 0.0126873)
(-0.0442473 0.0605606 0.0136305)
(-0.0779759 0.0457273 0.0128548)
(-0.11613 0.0347039 0.00943835)
(-0.145599 0.0251379 0.0107946)
(-0.169671 0.0131258 0.011566)
(-0.196116 0.000361522 0.0131808)
(-0.224166 -0.0119375 0.0143617)
(-0.258064 -0.0287288 0.012569)
(-0.304179 -0.0534361 0.00853499)
(-0.358782 -0.0857182 0.00342672)
(-0.379521 -0.179894 0.00262059)
(-0.368717 -0.304341 -0.00311569)
(-0.357532 -0.434171 -0.0126167)
(-0.331503 -0.554284 -0.0271961)
(-0.255819 -0.617467 -0.051866)
(-0.140212 -0.551238 -0.0671384)
(-0.0211516 -0.28951 -0.0677496)
(0.0227197 0.00143332 -0.00241016)
(0.00206557 0.292656 0.00208686)
(0.0398155 0.516731 -0.0307412)
(0.112231 0.639041 -0.0404128)
(0.1893 0.691028 -0.0347646)
(0.255304 0.69191 -0.0202745)
(0.30591 0.668038 -0.0129829)
(0.354552 0.634744 -0.00380959)
(0.391264 0.582324 -0.00125093)
(0.392962 0.529315 -0.000846138)
(0.366147 0.483619 0.000903082)
(0.331511 0.43748 0.00309958)
(0.293306 0.391755 0.00519639)
(0.253194 0.348211 0.0068637)
(0.212972 0.309181 0.00746868)
(0.17437 0.273683 0.00778759)
(0.137574 0.241652 0.00765253)
(0.103264 0.209382 0.00759956)
(0.0731761 0.178982 0.00740095)
(0.0458358 0.15263 0.00587029)
(0.0186517 0.128072 0.00375878)
(-0.00150496 0.103569 0.00853516)
(-0.0151246 0.0750604 0.0109691)
(-0.0317522 0.0506444 0.01229)
(-0.058513 0.0309167 0.0116173)
(-0.0904316 0.0175494 0.0111927)
(-0.118007 0.00863917 0.0116872)
(-0.140826 -0.000352485 0.0134733)
(-0.16193 -0.0098134 0.0148386)
(-0.186788 -0.0214753 0.0157317)
(-0.216698 -0.0389167 0.0155292)
(-0.255444 -0.0635179 0.0123782)
(-0.301449 -0.0960062 0.00869367)
(-0.337272 -0.136593 0.00353872)
(-0.358336 -0.214811 -0.00180831)
(-0.369497 -0.328224 -0.00626999)
(-0.36264 -0.459806 -0.0140339)
(-0.297167 -0.561487 -0.0280428)
(-0.181662 -0.553441 -0.0493425)
(-0.0246263 -0.335976 -0.05409)
(0.0429324 0.0229282 -0.020606)
(0.00469575 0.288082 0.00381036)
(0.0414266 0.489324 -0.0240255)
(0.109689 0.611558 -0.0323801)
(0.184723 0.666853 -0.0287758)
(0.25025 0.67198 -0.0133118)
(0.302848 0.64746 -0.00686315)
(0.348527 0.610177 0.000966426)
(0.376465 0.562292 0.00261347)
(0.378899 0.506599 0.00147195)
(0.35812 0.456287 0.00163834)
(0.325285 0.408868 0.00323781)
(0.290474 0.362147 0.00576373)
(0.255311 0.31771 0.00881806)
(0.22015 0.277812 0.0114476)
(0.184166 0.241294 0.0131611)
(0.147312 0.203098 0.0133736)
(0.113413 0.164371 0.0130053)
(0.0849876 0.13545 0.0121966)
(0.059908 0.115147 0.010755)
(0.0339086 0.0982651 0.00981685)
(0.00939764 0.0830924 0.00757594)
(-0.0058318 0.0604089 0.0111452)
(-0.0198407 0.0382523 0.0113907)
(-0.0422138 0.0179687 0.0106256)
(-0.0679014 0.00378945 0.0114328)
(-0.089754 -0.0051123 0.0133527)
(-0.108993 -0.0118164 0.0140629)
(-0.129658 -0.020036 0.0149489)
(-0.152797 -0.0316494 0.0161204)
(-0.180454 -0.0483515 0.0172935)
(-0.214378 -0.0727881 0.0176997)
(-0.249499 -0.106163 0.0172981)
(-0.274865 -0.147134 0.0140677)
(-0.299713 -0.210213 0.0101268)
(-0.331126 -0.303811 0.00666433)
(-0.351536 -0.423445 -0.000732119)
(-0.323909 -0.526661 -0.0156887)
(-0.229155 -0.548531 -0.0362534)
(-0.0647773 -0.347526 -0.0479294)
(0.0285001 0.0459659 -0.0131077)
(0.00876355 0.262342 0.00493894)
(0.045653 0.44613 -0.0181761)
(0.108147 0.570788 -0.0263303)
(0.181112 0.630929 -0.0247722)
(0.245149 0.642591 -0.0120915)
(0.296848 0.620782 -0.0043479)
(0.341218 0.58216 0.00272925)
(0.364409 0.534669 0.00512023)
(0.363354 0.481778 0.00377757)
(0.345028 0.429164 0.00253937)
(0.316373 0.379234 0.00311923)
(0.284572 0.330725 0.00541095)
(0.254256 0.283383 0.0092344)
(0.223433 0.238747 0.0134168)
(0.186352 0.195215 0.0166506)
(0.145931 0.14933 0.0197472)
(0.118712 0.109476 0.0219577)
(0.10428 0.0858717 0.020696)
(0.0857933 0.0734748 0.0176224)
(0.0604932 0.0628951 0.0153112)
(0.0316459 0.0543927 0.0133673)
(0.00893915 0.0439018 0.0106637)
(-0.00635137 0.025401 0.0124379)
(-0.0251208 0.005544 0.011188)
(-0.044483 -0.00622894 0.011661)
(-0.0620038 -0.0154081 0.0125386)
(-0.0797396 -0.024647 0.0135183)