/*--------------------------------*- C++ -*----------------------------------*\
| =========                 |                                                 |
| \\      /  F ield         | OpenFOAM: The Open Source CFD Toolbox           |
|  \\    /   O peration     | Version:  v1806                                 |
|   \\  /    A nd           | Web:      www.OpenFOAM.com                      |
|    \\/     M anipulation  |                                                 |
\*---------------------------------------------------------------------------*/
FoamFile
{
    version     2.0;
    format      ascii;
    class       volScalarField;
    location    "0.0895";
    object      p;
}
// * * * * * * * * * * * * * * * * * * * * * * * * * * * * * * * * * * * * * //

dimensions      [0 2 -2 0 0 0 0];


internalField   nonuniform List<scalar> 
64000
(
-5.97174e-05
-0.110483
-0.268469
-0.370637
-0.448114
-0.512881
-0.573138
-0.627072
-0.678833
-0.73117
-0.7786
-0.823495
-0.885852
-0.961626
-0.987644
-1.07417
-1.05358
-1.17802
-1.08262
-1.33023
-1.09556
-1.35093
-1.29087
-1.36592
-1.26076
-1.23692
-1.11906
-1.07816
-1.01724
-1.01792
-1.01029
-1.05075
-1.10935
-1.15705
-1.21264
-1.2359
-1.27576
-1.2826
-1.29503
-1.28922
-0.102307
-0.213665
-0.309829
-0.385489
-0.454678
-0.510848
-0.564062
-0.614585
-0.662725
-0.70629
-0.75623
-0.807976
-0.841347
-0.90082
-0.918514
-0.986197
-1.01922
-1.13057
-1.0401
-1.24219
-1.04225
-1.26711
-1.25004
-1.30655
-1.19566
-1.17521
-1.07344
-1.04414
-0.996961
-0.998105
-1.01835
-1.01938
-1.08953
-1.12464
-1.18391
-1.20916
-1.25004
-1.26289
-1.28173
-1.28027
-0.243288
-0.289314
-0.347667
-0.409396
-0.466719
-0.513197
-0.567507
-0.611409
-0.647843
-0.705811
-0.751411
-0.814568
-0.859756
-0.959486
-1.00048
-1.09518
-1.08804
-1.21347
-1.1442
-1.38494
-1.25209
-1.51594
-1.57102
-1.6736
-1.60491
-1.61463
-1.53272
-1.50458
-1.43059
-1.3825
-1.34133
-1.30192
-1.29957
-1.26399
-1.27999
-1.27344
-1.29241
-1.29291
-1.30499
-1.30587
-0.313626
-0.335676
-0.37105
-0.422161
-0.458996
-0.50292
-0.548617
-0.591001
-0.655993
-0.718447
-0.776152
-0.866369
-0.93858
-1.03984
-1.09283
-1.19184
-1.23298
-1.38037
-1.35845
-1.6248
-1.53375
-1.81649
-1.93144
-2.05583
-2.01544
-2.03185
-1.95244
-1.90745
-1.8118
-1.7252
-1.63422
-1.53131
-1.46289
-1.39511
-1.36724
-1.3349
-1.34659
-1.32983
-1.33693
-1.34078
-0.356181
-0.353826
-0.394429
-0.423391
-0.480126
-0.514601
-0.583079
-0.630037
-0.706354
-0.787067
-0.879339
-1.0003
-1.09017
-1.21522
-1.30283
-1.43351
-1.49389
-1.65322
-1.64005
-1.92134
-1.86712
-2.15027
-2.28429
-2.42017
-2.39264
-2.40954
-2.32689
-2.27007
-2.1629
-2.05596
-1.92862
-1.80016
-1.67131
-1.56769
-1.48757
-1.42439
-1.39749
-1.38254
-1.38652
-1.38982
-0.375867
-0.381808
-0.400961
-0.446368
-0.479747
-0.536698
-0.598549
-0.693504
-0.810775
-0.941998
-1.06404
-1.17385
-1.28193
-1.40668
-1.50159
-1.64464
-1.70562
-1.85688
-1.89276
-2.13062
-2.10726
-2.38593
-2.53423
-2.64995
-2.62752
-2.63906
-2.55582
-2.50181
-2.38328
-2.28128
-2.13576
-1.9922
-1.84302
-1.7303
-1.62625
-1.50044
-1.46786
-1.44228
-1.44561
-1.45205
-0.4146
-0.398829
-0.43718
-0.485953
-0.570002
-0.62835
-0.752372
-0.877257
-0.999176
-1.11208
-1.23176
-1.36986
-1.4948
-1.63942
-1.74431
-1.87764
-1.95364
-2.09816
-2.12378
-2.35448
-2.39049
-2.55523
-2.71466
-2.81406
-2.79793
-2.80711
-2.73398
-2.6809
-2.57717
-2.47378
-2.32374
-2.17234
-1.98851
-1.84491
-1.72371
-1.58321
-1.52387
-1.50228
-1.50416
-1.5137
-0.434663
-0.428049
-0.466847
-0.536353
-0.627145
-0.717544
-0.892904
-0.953348
-1.12312
-1.259
-1.41219
-1.55884
-1.7026
-1.83581
-1.95559
-2.09
-2.16942
-2.30677
-2.36111
-2.51737
-2.61569
-2.69001
-2.84141
-2.94723
-2.9347
-2.94416
-2.87702
-2.8331
-2.73454
-2.64307
-2.50393
-2.34607
-2.16897
-1.99048
-1.87836
-1.6966
-1.61935
-1.5863
-1.58443
-1.59754
-0.465295
-0.445119
-0.507749
-0.584571
-0.707965
-0.844402
-0.992603
-1.13271
-1.2597
-1.44091
-1.587
-1.74732
-1.88589
-2.03739
-2.16321
-2.2954
-2.39117
-2.51257
-2.584
-2.67831
-2.79646
-2.84241
-2.93942
-3.06679
-3.05917
-3.07061
-3.01339
-2.96492
-2.88898
-2.7988
-2.65926
-2.49816
-2.31855
-2.11874
-1.97552
-1.82049
-1.69355
-1.66248
-1.65223
-1.66957
-0.522037
-0.509887
-0.575618
-0.676559
-0.817115
-0.974179
-1.12619
-1.27574
-1.43456
-1.58665
-1.73457
-1.9044
-2.04674
-2.19155
-2.32182
-2.45562
-2.55657
-2.67415
-2.75723
-2.84869
-2.94729
-3.02601
-3.03343
-3.18654
-3.19062
-3.20225
-3.15039
-3.11089
-3.03623
-2.94223
-2.82207
-2.6651
-2.48209
-2.28538
-2.12142
-1.96233
-1.81913
-1.76884
-1.7533
-1.77338
-0.559414
-0.544137
-0.629632
-0.739609
-0.920038
-1.06372
-1.23929
-1.40634
-1.57061
-1.74032
-1.88496
-2.04208
-2.15768
-2.32882
-2.45852
-2.59099
-2.69832
-2.80542
-2.88605
-2.98817
-3.06117
-3.16359
-3.14751
-3.30905
-3.31174
-3.33871
-3.28116
-3.25395
-3.17379
-3.09261
-2.96012
-2.81433
-2.62677
-2.40939
-2.21457
-2.0714
-1.91596
-1.84591
-1.8316
-1.85052
-0.658612
-0.648656
-0.734226
-0.872243
-1.03937
-1.205
-1.37454
-1.55034
-1.72154
-1.87862
-2.03137
-2.18371
-2.31667
-2.42506
-2.58229
-2.71091
-2.82382
-2.93486
-3.00829
-3.13841
-3.19413
-3.30127
-3.2895
-3.44802
-3.4614
-3.47474
-3.44016
-3.39799
-3.33058
-3.23847
-3.12329
-2.96298
-2.76737
-2.57042
-2.35427
-2.20906
-2.05303
-1.98621
-1.95603
-1.98105
-0.703296
-0.69171
-0.795413
-0.93545
-1.11864
-1.28558
-1.4771
-1.64306
-1.81411
-1.97419
-2.13066
-2.28031
-2.42723
-2.57213
-2.67385
-2.83041
-2.95798
-3.06862
-3.15801
-3.27913
-3.33286
-3.43271
-3.42006
-3.58133
-3.58363
-3.61547
-3.57589
-3.54106
-3.46297
-3.38062
-3.22215
-3.09723
-2.93967
-2.74548
-2.51564
-2.32217
-2.15948
-2.07088
-2.03877
-2.06119
-0.828662
-0.823758
-0.923431
-1.06893
-1.24684
-1.42172
-1.60685
-1.7751
-1.94071
-2.09778
-2.25063
-2.41036
-2.55359
-2.70489
-2.83169
-2.94346
-3.09602
-3.21103
-3.31944
-3.42839
-3.48159
-3.56634
-3.51054
-3.67836
-3.72938
-3.75547
-3.72724
-3.68271
-3.61859
-3.48789
-3.43459
-3.29523
-3.13209
-2.93314
-2.72148
-2.51752
-2.33041
-2.23949
-2.19196
-2.22039
-0.871813
-0.867107
-0.976943
-1.12476
-1.31207
-1.48546
-1.66945
-1.82444
-1.99067
-2.14558
-2.30748
-2.46786
-2.63609
-2.79331
-2.97878
-3.08193
-3.27249
-3.38074
-3.50991
-3.59259
-3.67795
-3.62787
-3.708
-3.81987
-3.86942
-3.91225
-3.88135
-3.83883
-3.70945
-3.67637
-3.56233
-3.43533
-3.27365
-3.08261
-2.86799
-2.65238
-2.47268
-2.31124
-2.27458
-2.2957
-0.999411
-0.993592
-1.09444
-1.24009
-1.41954
-1.58913
-1.7599
-1.91541
-2.08544
-2.25681
-2.44359
-2.62608
-2.81014
-2.97535
-3.14543
-3.30922
-3.42279
-3.54947
-3.72993
-3.80984
-3.79226
-3.84356
-3.9016
-3.97842
-4.00925
-4.0455
-4.01462
-3.92318
-3.90715
-3.82575
-3.74458
-3.63115
-3.49214
-3.31788
-3.11234
-2.90052
-2.69383
-2.58132
-2.46091
-2.48641
-0.99493
-1.01066
-1.12077
-1.27399
-1.45942
-1.64266
-1.80707
-1.95345
-2.11448
-2.28836
-2.47378
-2.67867
-2.87633
-3.06921
-3.25725
-3.48406
-3.64563
-3.819
-3.92014
-3.98383
-4.03412
-4.08922
-4.13597
-4.17408
-4.18953
-4.20506
-4.19479
-4.12568
-4.036
-3.93053
-3.81873
-3.69607
-3.56467
-3.39693
-3.20096
-2.99795
-2.79963
-2.65578
-2.54392
-2.58271
-1.07609
-1.07026
-1.15645
-1.28665
-1.4542
-1.61286
-1.78842
-1.94951
-2.15038
-2.36413
-2.61626
-2.85451
-3.08817
-3.27396
-3.47788
-3.69816
-3.84017
-4.10979
-4.18976
-4.27684
-4.33736
-4.36383
-4.38486
-4.39112
-4.39822
-4.34419
-4.31918
-4.24692
-4.1806
-4.09814
-4.02814
-3.94473
-3.83001
-3.69071
-3.52473
-3.29342
-3.08719
-2.90106
-2.74225
-2.73229
-0.94772
-0.954514
-1.05126
-1.18857
-1.38843
-1.57046
-1.75033
-1.89098
-2.07474
-2.32668
-2.63104
-2.9604
-3.23428
-3.47898
-3.66034
-3.89169
-4.15494
-4.4924
-4.5866
-4.6947
-4.69771
-4.6972
-4.67628
-4.63089
-4.60362
-4.58002
-4.4595
-4.37377
-4.22408
-4.05791
-3.89617
-3.8422
-3.7655
-3.63653
-3.44837
-3.25091
-3.13281
-2.9783
-2.9551
-2.94438
-1.00542
-0.948777
-0.992484
-1.05611
-1.17696
-1.27568
-1.39875
-1.6308
-2.02806
-2.43099
-2.86791
-3.28975
-3.64207
-3.88739
-4.11051
-4.32177
-4.56892
-4.8311
-5.06623
-5.09795
-5.08663
-5.04965
-4.97511
-4.91262
-4.89594
-4.77416
-4.62073
-4.45851
-4.40157
-4.35325
-4.35544
-4.16104
-4.02009
-3.8845
-3.75945
-3.55434
-3.28477
-3.12424
-2.68797
-2.80663
-1.00572
-1.01109
-1.05334
-1.14834
-1.28823
-1.42026
-1.53997
-1.72759
-2.08565
-2.48421
-2.92764
-3.39145
-3.77819
-4.08778
-4.36631
-4.61829
-4.92268
-5.20422
-5.43551
-5.52697
-5.51364
-5.34908
-5.31622
-5.21739
-5.06836
-4.89919
-4.75076
-4.58123
-4.42125
-4.2015
-4.01069
-3.85015
-3.83473
-3.88526
-3.91228
-3.77679
-3.68728
-3.49174
-3.5506
-3.33196
-1.06397
-1.05721
-1.0891
-1.15605
-1.27251
-1.39245
-1.52522
-1.70388
-2.10012
-2.55512
-3.07512
-3.60596
-4.0191
-4.362
-4.69217
-4.99251
-5.30315
-5.54672
-5.79997
-5.90114
-5.8405
-5.7026
-5.59131
-5.42367
-5.24379
-5.03853
-4.88175
-4.68924
-4.55623
-4.34808
-4.18992
-3.94791
-3.72323
-3.38153
-3.07231
-2.91724
-2.81939
-2.74041
-2.66361
-2.68802
-1.11695
-1.11727
-1.16038
-1.23076
-1.35742
-1.47699
-1.61137
-1.77878
-2.15836
-2.64322
-3.2147
-3.73198
-4.15891
-4.53369
-4.9063
-5.24457
-5.58834
-5.82921
-6.04781
-6.16187
-6.17263
-5.8814
-5.74894
-5.53773
-5.3859
-5.12867
-4.96144
-4.75619
-4.60223
-4.39543
-4.23271
-3.9973
-3.86206
-3.58423
-3.38105
-3.1393
-2.97886
-2.7764
-2.7498
-2.84683
-1.18889
-1.17549
-1.24039
-1.29456
-1.42252
-1.5443
-1.68373
-1.87068
-2.22559
-2.74073
-3.30594
-3.80572
-4.24338
-4.6392
-5.04267
-5.40806
-5.74495
-5.96697
-6.12032
-6.26889
-6.26039
-6.06994
-5.83926
-5.58737
-5.39886
-5.19812
-4.99883
-4.77058
-4.61896
-4.38077
-4.23207
-3.97308
-3.79655
-3.51338
-3.34203
-3.11846
-2.96236
-2.75071
-2.58705
-2.67028
-1.27155
-1.25572
-1.32658
-1.37946
-1.50115
-1.62521
-1.76743
-1.92842
-2.26719
-2.77588
-3.34222
-3.83874
-4.2675
-4.65967
-5.07647
-5.4336
-5.76787
-5.95503
-6.13256
-6.28882
-6.36009
-6.09034
-5.91222
-5.61405
-5.43755
-5.10513
-5.00879
-4.77658
-4.64378
-4.42777
-4.32037
-4.09588
-3.98735
-3.73749
-3.62121
-3.39456
-3.27655
-3.05588
-2.9465
-3.00563
-1.33664
-1.30808
-1.3875
-1.43896
-1.55642
-1.69227
-1.80636
-2.04059
-2.37886
-2.83012
-3.32391
-3.75735
-4.18413
-4.56101
-5.00017
-5.32449
-5.65219
-5.82197
-6.07991
-6.20681
-6.30407
-6.10037
-5.86021
-5.63295
-5.40171
-5.13994
-4.88542
-4.71358
-4.56324
-4.29458
-4.1479
-3.84651
-3.70857
-3.43554
-3.34428
-3.13162
-3.04654
-2.8653
-2.73858
-2.75491
-1.44214
-1.41645
-1.48327
-1.53895
-1.64306
-1.76955
-1.91735
-2.1458
-2.47319
-2.87593
-3.32029
-3.71718
-4.10825
-4.45115
-4.77218
-5.12016
-5.47836
-5.7217
-5.90999
-6.07429
-6.15569
-6.0325
-5.80415
-5.55189
-5.36718
-5.08386
-4.95278
-4.66453
-4.65327
-4.48316
-4.56586
-4.48225
-4.55411
-4.38004
-4.34799
-4.09669
-3.97038
-3.68449
-3.47133
-3.23819
-1.48734
-1.47186
-1.50459
-1.58416
-1.6801
-1.79634
-1.96493
-2.18344
-2.49918
-2.84852
-3.243
-3.60106
-3.9758
-4.30287
-4.6688
-4.91586
-5.27244
-5.5589
-5.81046
-5.83968
-5.95386
-5.90443
-5.72558
-5.50412
-5.31883
-5.069
-4.94854
-4.71574
-4.79595
-4.62796
-4.66589
-4.42648
-4.4199
-4.2028
-4.25875
-4.10114
-4.17266
-4.03653
-4.10873
-4.15664
-1.60699
-1.59334
-1.6229
-1.67057
-1.78294
-1.86853
-2.06455
-2.26794
-2.55716
-2.86089
-3.21011
-3.52458
-3.86913
-4.16293
-4.48218
-4.76442
-4.95241
-5.26094
-5.542
-5.62394
-5.67618
-5.65817
-5.54873
-5.37489
-5.29037
-5.08591
-4.98634
-4.83012
-4.81623
-4.64935
-4.69512
-4.44593
-4.45366
-4.20626
-4.25112
-4.05565
-4.10354
-3.88976
-3.88006
-3.72289
-1.62839
-1.61514
-1.64136
-1.67752
-1.78277
-1.89093
-2.07343
-2.25776
-2.53305
-2.78683
-3.10139
-3.37527
-3.69275
-3.94561
-4.2533
-4.4153
-4.76169
-4.92648
-5.16852
-5.32152
-5.38088
-5.34278
-5.29254
-5.15669
-5.07781
-4.96047
-4.87682
-4.74624
-4.74608
-4.54433
-4.55918
-4.26989
-4.30665
-4.01288
-4.10988
-3.83899
-3.93447
-3.64968
-3.63623
-3.50024
-1.76303
-1.75728
-1.77049
-1.77456
-1.86756
-1.98487
-2.16337
-2.32791
-2.5662
-2.78984
-3.06222
-3.29864
-3.57444
-3.81257
-4.02323
-4.303
-4.52885
-4.71647
-4.82628
-4.96646
-5.01324
-5.0418
-5.04049
-4.91967
-4.89805
-4.81743
-4.53887
-4.77594
-4.6183
-4.49955
-4.5853
-4.24245
-4.31964
-3.95612
-4.08968
-3.77241
-3.84008
-3.47078
-3.37509
-3.13623
-1.74713
-1.7363
-1.75266
-1.75335
-1.7939
-1.92796
-2.11698
-2.24946
-2.47912
-2.66313
-2.92974
-3.12243
-3.40225
-3.56098
-3.87548
-4.0648
-4.28023
-4.46641
-4.53399
-4.616
-4.6123
-4.71469
-4.72022
-4.62692
-4.62498
-4.57517
-4.28409
-4.7479
-4.51447
-4.40883
-4.42876
-4.19623
-4.24198
-3.84515
-3.97482
-3.53444
-3.68676
-3.16912
-3.06731
-2.64523
-1.90051
-1.89942
-1.90295
-1.9019
-1.91767
-1.98711
-2.19884
-2.29822
-2.49721
-2.64858
-2.87924
-3.04336
-3.27344
-3.50214
-3.7153
-3.90188
-4.07234
-4.23599
-4.28625
-4.37805
-4.28263
-4.46602
-4.44076
-4.35454
-4.3817
-4.34901
-4.04737
-4.6696
-4.40064
-4.34047
-4.40653
-4.08456
-4.28359
-3.81325
-3.99178
-3.46049
-3.56462
-2.9737
-2.76743
-2.11783
-1.83284
-1.81258
-1.84763
-1.78954
-1.84896
-1.80808
-2.08881
-2.14887
-2.34942
-2.4868
-2.69731
-2.87168
-3.13072
-3.30333
-3.52826
-3.69599
-3.84302
-4.00951
-4.02314
-4.10391
-4.03616
-4.20511
-4.15558
-4.0779
-4.12272
-4.11332
-3.8347
-4.55163
-4.27652
-4.32079
-4.30176
-4.00248
-4.18022
-3.73239
-3.93817
-3.28984
-3.42557
-2.50949
-2.39993
-1.30831
-2.00904
-2.02138
-2.00739
-1.98239
-1.99733
-1.91188
-2.12544
-2.18335
-2.35786
-2.44773
-2.66852
-2.82373
-3.05027
-3.22527
-3.43287
-3.58885
-3.72252
-3.88996
-3.89787
-3.99641
-3.84159
-4.02145
-3.95329
-3.85861
-3.90146
-3.86944
-3.66703
-4.39215
-4.2576
-4.18294
-4.34501
-3.95631
-4.23822
-3.67342
-4.01394
-3.30557
-3.49858
-2.30189
-2.09875
-0.446004
-1.91635
-1.84436
-1.90597
-1.77801
-1.85949
-1.7128
-1.91412
-1.96413
-2.13689
-2.26154
-2.47474
-2.62395
-2.85853
-3.02882
-3.23987
-3.41676
-3.55429
-3.73515
-3.72803
-3.83705
-3.6402
-3.79045
-3.70667
-3.6022
-3.64237
-3.60528
-3.53805
-4.22929
-4.21294
-4.14835
-4.31702
-3.82815
-4.20591
-3.55931
-3.8894
-3.08997
-3.3597
-1.72726
-1.53607
1.22662
-2.09403
-2.16462
-2.07144
-2.05982
-1.96496
-1.92648
-1.89602
-1.98325
-2.12824
-2.22495
-2.42154
-2.56038
-2.77446
-2.9363
-3.14338
-3.3232
-3.48981
-3.66039
-3.69975
-3.76073
-3.53603
-3.65139
-3.55107
-3.40771
-3.42896
-3.34033
-3.43333
-4.06093
-4.20212
-4.09921
-4.35353
-3.89819
-4.23393
-3.55351
-4.05028
-3.03014
-3.59418
-1.53418
-1.15014
2.9324
-2.40819
-1.95425
-2.06533
-1.71761
-1.77637
-1.59074
-1.63839
-1.73746
-1.89452
-2.00614
-2.21845
-2.35614
-2.58566
-2.7503
-2.97059
-3.16363
-3.34826
-3.55686
-3.6054
-3.6207
-3.39793
-3.42754
-3.2866
-3.13992
-3.1757
-3.07746
-3.38529
-3.89438
-4.19835
-4.078
-4.3608
-3.84024
-4.17452
-3.36417
-3.83749
-2.51112
-2.95987
-0.405321
0.367923
7.43546
-2.27276
-2.50444
-2.32464
-2.2879
-1.84438
-1.75259
-1.66511
-1.72032
-1.86206
-1.95038
-2.14011
-2.27291
-2.48761
-2.64748
-2.86009
-3.05658
-3.26569
-3.50259
-3.65687
-3.55556
-3.39643
-3.32866
-3.15148
-2.91628
-2.99633
-2.85181
-3.32844
-3.73576
-4.13326
-4.02528
-4.36806
-3.86648
-4.26307
-3.43695
-3.98927
-2.61962
-3.18982
0.351281
1.98023
11.4634
-4.80358
-1.97856
-2.29028
-1.84849
-1.73073
-1.47258
-1.52143
-1.56432
-1.73987
-1.85442
-2.06887
-2.1977
-2.41873
-2.57539
-2.78827
-2.98412
-3.24677
-3.47966
-3.64909
-3.46478
-3.26655
-3.12632
-2.87519
-2.63316
-2.83537
-2.81213
-3.46067
-3.84281
-4.26571
-4.09462
-4.37631
-3.75533
-4.10044
-3.24062
-3.59509
-1.82082
-1.50069
4.45157
9.42517
24.4394
-0.114416
-0.2231
-0.317258
-0.393812
-0.461418
-0.520668
-0.578041
-0.632364
-0.687049
-0.742033
-0.775292
-0.851574
-0.8929
-0.968475
-0.99878
-1.08399
-1.06996
-1.1955
-1.14506
-1.37527
-1.17693
-1.37459
-1.39112
-1.44254
-1.34001
-1.32071
-1.21548
-1.1858
-1.12876
-1.11464
-1.11226
-1.10597
-1.16708
-1.18928
-1.2345
-1.24773
-1.27719
-1.28297
-1.29254
-1.28536
-0.216427
-0.278075
-0.343411
-0.407906
-0.46411
-0.52059
-0.566691
-0.623617
-0.647755
-0.716639
-0.742565
-0.835665
-0.850994
-0.917241
-0.930039
-1.01261
-1.01549
-1.14016
-1.05846
-1.28452
-1.18385
-1.36633
-1.38501
-1.45205
-1.35941
-1.36354
-1.27216
-1.25362
-1.2023
-1.17833
-1.16783
-1.17181
-1.15907
-1.17783
-1.21795
-1.23457
-1.26805
-1.27217
-1.28423
-1.27455
-0.299974
-0.326279
-0.370693
-0.41781
-0.472106
-0.516804
-0.570106
-0.605892
-0.679086
-0.723044
-0.76807
-0.825315
-0.869458
-0.947547
-0.997085
-1.11668
-1.12033
-1.2457
-1.19756
-1.45595
-1.42413
-1.65472
-1.75838
-1.8736
-1.81112
-1.83171
-1.75256
-1.7267
-1.65019
-1.58016
-1.4961
-1.41101
-1.36968
-1.32773
-1.32201
-1.29477
-1.30911
-1.30262
-1.30957
-1.30486
-0.340453
-0.36094
-0.389753
-0.430513
-0.466124
-0.513485
-0.558842
-0.611693
-0.664123
-0.727782
-0.780392
-0.861324
-0.933735
-1.05246
-1.11032
-1.24071
-1.27439
-1.43046
-1.41953
-1.70295
-1.74076
-2.00973
-2.14933
-2.27499
-2.22241
-2.23687
-2.14698
-2.09009
-1.9815
-1.87091
-1.75172
-1.61888
-1.51297
-1.42265
-1.39665
-1.35446
-1.35954
-1.34005
-1.34404
-1.34253
-0.373591
-0.383013
-0.406639
-0.437618
-0.494529
-0.512857
-0.578502
-0.644448
-0.72049
-0.798144
-0.886899
-1.01112
-1.11277
-1.23219
-1.3223
-1.47625
-1.53615
-1.70228
-1.74075
-1.99445
-2.0306
-2.30079
-2.45986
-2.57262
-2.51654
-2.53292
-2.43947
-2.38276
-2.24879
-2.11523
-1.9604
-1.8267
-1.69516
-1.57707
-1.49136
-1.43378
-1.40863
-1.3918
-1.39006
-1.39301
-0.399253
-0.398872
-0.428592
-0.467714
-0.486407
-0.531385
-0.598749
-0.693337
-0.821184
-0.947005
-1.06811
-1.18181
-1.2933
-1.42948
-1.53004
-1.69666
-1.77882
-1.92223
-1.94192
-2.17497
-2.24102
-2.50639
-2.66574
-2.77619
-2.73328
-2.72173
-2.63243
-2.54892
-2.45483
-2.30859
-2.15574
-1.98538
-1.84385
-1.7317
-1.62092
-1.51849
-1.48518
-1.45879
-1.45278
-1.45856
-0.424641
-0.426939
-0.464997
-0.501211
-0.557841
-0.601012
-0.716996
-0.888775
-0.997757
-1.11274
-1.23445
-1.3766
-1.50709
-1.6473
-1.76952
-1.90026
-1.98779
-2.13057
-2.16858
-2.35291
-2.44243
-2.62922
-2.78231
-2.88804
-2.84998
-2.84542
-2.76566
-2.70247
-2.57665
-2.46153
-2.30184
-2.13521
-1.96752
-1.82053
-1.72095
-1.59222
-1.53636
-1.51439
-1.50748
-1.51666
-0.454308
-0.459112
-0.502984
-0.558641
-0.63446
-0.696473
-0.882478
-0.966228
-1.12081
-1.26288
-1.40648
-1.56384
-1.70044
-1.84692
-1.95949
-2.09751
-2.17709
-2.3087
-2.36537
-2.49765
-2.60696
-2.72619
-2.85879
-2.97922
-2.96143
-2.9633
-2.89958
-2.83795
-2.74038
-2.6114
-2.46598
-2.30953
-2.14062
-1.97476
-1.85546
-1.71988
-1.64132
-1.611
-1.59618
-1.60617
-0.482627
-0.485836
-0.545496
-0.609553
-0.717594
-0.816027
-0.984039
-1.12798
-1.27029
-1.43192
-1.58143
-1.73275
-1.88155
-2.0284
-2.14983
-2.27653
-2.36864
-2.48425
-2.55343
-2.64824
-2.74454
-2.84072
-2.9359
-3.07236
-3.07256
-3.08371
-3.02921
-2.97462
-2.85948
-2.75047
-2.61565
-2.44772
-2.29177
-2.06579
-1.94719
-1.79796
-1.71293
-1.66802
-1.66187
-1.67187
-0.544097
-0.54775
-0.620296
-0.710186
-0.823079
-0.95617
-1.10848
-1.26353
-1.41891
-1.58876
-1.72125
-1.89631
-2.03679
-2.18026
-2.30323
-2.42875
-2.52291
-2.63644
-2.71592
-2.81066
-2.88949
-2.99448
-3.03642
-3.17538
-3.20357
-3.21043
-3.17546
-3.10011
-3.01318
-2.87724
-2.77095
-2.67446
-2.50079
-2.34643
-2.115
-1.95149
-1.82577
-1.78986
-1.7639
-1.78107
-0.579317
-0.582773
-0.671974
-0.76413
-0.946478
-1.04083
-1.22864
-1.38102
-1.53479
-1.72519
-1.87845
-2.03845
-2.17369
-2.31472
-2.44635
-2.56662
-2.66493
-2.76715
-2.85043
-2.94784
-3.01725
-3.13476
-3.15306
-3.30255
-3.32539
-3.3467
-3.29155
-3.25055
-3.11206
-3.05905
-2.96095
-2.78499
-2.62234
-2.39619
-2.2284
-2.03611
-1.90025
-1.85801
-1.83854
-1.85292
-0.680551
-0.688747
-0.780385
-0.912531
-1.06113
-1.21
-1.35225
-1.52893
-1.69128
-1.83704
-1.98243
-2.17552
-2.3073
-2.43765
-2.56875
-2.69395
-2.79251
-2.89673
-2.98376
-3.08753
-3.15811
-3.27054
-3.29325
-3.43828
-3.46942
-3.47863
-3.45001
-3.35718
-3.30702
-3.2348
-3.07409
-2.96414
-2.8003
-2.66878
-2.44165
-2.24459
-2.02568
-1.97787
-1.96287
-1.98287
-0.731833
-0.737229
-0.847528
-0.981927
-1.15577
-1.29985
-1.47615
-1.61535
-1.76865
-1.94243
-2.093
-2.23329
-2.39656
-2.55404
-2.69826
-2.82606
-2.9336
-3.0354
-3.12868
-3.23508
-3.29982
-3.40879
-3.41602
-3.55886
-3.58901
-3.61736
-3.56383
-3.51585
-3.47125
-3.34461
-3.29182
-3.15323
-2.97126
-2.73427
-2.52858
-2.35849
-2.18677
-2.02697
-2.04808
-2.05597
-0.859125
-0.867989
-0.978344
-1.11802
-1.28645
-1.44347
-1.61388
-1.7662
-1.91314
-2.06158
-2.18506
-2.37716
-2.49776
-2.66258
-2.83985
-2.96874
-3.08097
-3.18551
-3.29173
-3.38791
-3.45338
-3.52312
-3.50753
-3.65399
-3.72454
-3.7565
-3.68267
-3.68147
-3.5936
-3.56507
-3.45889
-3.32323
-3.14001
-2.94982
-2.69833
-2.52447
-2.37114
-2.22909
-2.17324
-2.22722
-0.910874
-0.917421
-1.03433
-1.17904
-1.35831
-1.52115
-1.69812
-1.83407
-1.98419
-2.13333
-2.28101
-2.43121
-2.57466
-2.71431
-3.00887
-3.12898
-3.26034
-3.36829
-3.47826
-3.56507
-3.62597
-3.59985
-3.68453
-3.80782
-3.87302
-3.91068
-3.89241
-3.82944
-3.76327
-3.69751
-3.59442
-3.45901
-3.29093
-3.082
-2.84388
-2.63183
-2.45276
-2.36905
-2.21894
-2.2989
-1.02246
-1.03016
-1.14544
-1.29007
-1.47013
-1.62893
-1.78833
-1.9335
-2.09104
-2.25041
-2.42175
-2.60734
-2.7826
-2.91722
-3.11573
-3.31845
-3.43939
-3.55674
-3.68685
-3.76735
-3.75062
-3.8118
-3.88778
-3.97809
-3.99924
-4.05036
-3.95269
-3.95533
-3.92679
-3.85745
-3.7646
-3.65263
-3.50423
-3.32271
-3.09304
-2.87234
-2.6568
-2.58119
-2.44208
-2.48675
-1.05565
-1.07091
-1.18704
-1.34331
-1.53349
-1.67863
-1.8485
-1.98142
-2.1326
-2.29368
-2.46789
-2.66401
-2.86045
-3.048
-3.20244
-3.52283
-3.65266
-3.80773
-3.90918
-3.95793
-4.0111
-4.07157
-4.13901
-4.1826
-4.18394
-4.20122
-4.27307
-4.16483
-4.08321
-3.96839
-3.86371
-3.74023
-3.60462
-3.42738
-3.21609
-2.9941
-2.78437
-2.64404
-2.55046
-2.53654
-1.08707
-1.09964
-1.19331
-1.34353
-1.51459
-1.67246
-1.82723
-1.97464
-2.15488
-2.35663
-2.60064
-2.84414
-3.07043
-3.25539
-3.43769
-3.76887
-3.85994
-4.07692
-4.18754
-4.27557
-4.33841
-4.37384
-4.40857
-4.42768
-4.49349
-4.38378
-4.3403
-4.28634
-4.2169
-4.13028
-4.05164
-3.96417
-3.85521
-3.7115
-3.51784
-3.29525
-3.01264
-2.88642
-2.79229
-2.76537
-1.00204
-1.03906
-1.12129
-1.27642
-1.43261
-1.61136
-1.75873
-1.90686
-2.08761
-2.33688
-2.62988
-2.94349
-3.2051
-3.44185
-3.63446
-3.86501
-4.27735
-4.4805
-4.61008
-4.69417
-4.73469
-4.72179
-4.70788
-4.67342
-4.71439
-4.57115
-4.44992
-4.3413
-4.25102
-4.12809
-4.03382
-3.93883
-3.84743
-3.70809
-3.53592
-3.37752
-3.16123
-2.95778
-2.96638
-2.95118
-0.97205
-0.97377
-1.02449
-1.11825
-1.22646
-1.34036
-1.4383
-1.6551
-2.01459
-2.40089
-2.82467
-3.24721
-3.59957
-3.84332
-4.06625
-4.31003
-4.57137
-4.95628
-5.07685
-5.13766
-5.14505
-5.09354
-5.03092
-5.01797
-4.83372
-4.74073
-4.6032
-4.44202
-4.33071
-4.24575
-4.20472
-4.10614
-4.01978
-3.92783
-3.78934
-3.58685
-3.29342
-3.05513
-2.86067
-2.85636
-1.03828
-0.998085
-1.04221
-1.12932
-1.25322
-1.37075
-1.46681
-1.68678
-2.03187
-2.43761
-2.8835
-3.36001
-3.76059
-4.09411
-4.37423
-4.63861
-4.96435
-5.26888
-5.54499
-5.5649
-5.56933
-5.44837
-5.34397
-5.21692
-5.06142
-4.90356
-4.74912
-4.55884
-4.39649
-4.19223
-4.01996
-3.83928
-3.78456
-3.76421
-3.7919
-3.67422
-3.50925
-3.36354
-3.31517
-3.39708
-1.07144
-1.03022
-1.06727
-1.1294
-1.26129
-1.34446
-1.46566
-1.66034
-2.0425
-2.50498
-3.03389
-3.5784
-4.02087
-4.37725
-4.71179
-5.02108
-5.3531
-5.63029
-5.90444
-5.99709
-5.90432
-5.79492
-5.63389
-5.44096
-5.25597
-5.05357
-4.88794
-4.6859
-4.52415
-4.30457
-4.14037
-3.91265
-3.71683
-3.42887
-3.1226
-2.93419
-2.81138
-2.69875
-2.64161
-2.71036
-1.10544
-1.09856
-1.13915
-1.21144
-1.33523
-1.44827
-1.57083
-1.74863
-2.10628
-2.59377
-3.16562
-3.71729
-4.16699
-4.5541
-4.92659
-5.2741
-5.63185
-5.89726
-6.1956
-6.30872
-6.2987
-5.96504
-5.92738
-5.63019
-5.41155
-5.1626
-4.97669
-4.75723
-4.59126
-4.36554
-4.18783
-3.94996
-3.79744
-3.51818
-3.27257
-3.04479
-2.8843
-2.72501
-2.60524
-2.71936
-1.18023
-1.16974
-1.2129
-1.27329
-1.39592
-1.51312
-1.64639
-1.81854
-2.15581
-2.67006
-3.25918
-3.79649
-4.2539
-4.65217
-5.04796
-5.41426
-5.78132
-6.0568
-6.30121
-6.46285
-6.43579
-6.21328
-5.94814
-5.60374
-5.49036
-5.21166
-5.02088
-4.76622
-4.6094
-4.35725
-4.20249
-3.93114
-3.74175
-3.43674
-3.24886
-3.02522
-2.88116
-2.67087
-2.4992
-2.5675
-1.26547
-1.25848
-1.30692
-1.36827
-1.485
-1.62221
-1.74667
-1.91575
-2.23702
-2.7307
-3.2962
-3.81264
-4.26719
-4.66207
-5.07199
-5.44731
-5.82368
-6.08012
-6.32094
-6.48556
-6.49931
-6.29667
-6.08121
-5.65479
-5.49482
-5.13037
-5.02035
-4.77525
-4.61983
-4.38879
-4.26331
-4.02107
-3.89762
-3.63832
-3.5221
-3.30848
-3.1997
-2.98687
-2.82718
-2.90395
-1.33955
-1.31832
-1.3758
-1.4321
-1.54133
-1.66054
-1.80084
-1.98974
-2.3102
-2.76014
-3.27539
-3.75104
-4.18165
-4.57108
-4.98895
-5.35431
-5.72481
-5.97634
-6.25628
-6.35255
-6.36728
-6.20393
-5.96013
-5.71083
-5.40133
-5.14512
-4.89564
-4.69966
-4.56118
-4.25792
-4.12629
-3.8146
-3.69615
-3.41203
-3.32733
-3.10307
-3.02514
-2.80132
-2.69353
-2.69122
-1.43629
-1.42596
-1.46983
-1.53397
-1.63423
-1.75404
-1.90614
-2.09456
-2.40629
-2.81204
-3.26725
-3.67808
-4.08563
-4.45363
-4.84406
-5.19866
-5.57122
-5.86967
-6.09312
-6.16096
-6.17511
-6.16701
-5.95433
-5.63101
-5.44365
-5.05103
-4.93903
-4.69628
-4.58775
-4.4316
-4.4973
-4.38474
-4.4563
-4.28144
-4.27859
-4.04524
-3.94694
-3.70732
-3.4756
-3.32329
-1.49114
-1.47962
-1.50885
-1.57023
-1.67038
-1.77919
-1.95344
-2.14711
-2.449
-2.79658
-3.19138
-3.55676
-3.93818
-4.28326
-4.66779
-4.99114
-5.36974
-5.6524
-5.84813
-5.85286
-6.05737
-5.9972
-5.80552
-5.57391
-5.3884
-5.11391
-4.94518
-4.71768
-4.74197
-4.57985
-4.64504
-4.41079
-4.43877
-4.21383
-4.28534
-4.10627
-4.18734
-4.04658
-3.97018
-4.02082
-1.61122
-1.60375
-1.62755
-1.66435
-1.77392
-1.87073
-2.05146
-2.23461
-2.52358
-2.82218
-3.17002
-3.48508
-3.83354
-4.14428
-4.50099
-4.81248
-5.13876
-5.37746
-5.5264
-5.73166
-5.69483
-5.68334
-5.57881
-5.41158
-5.31249
-5.09215
-5.00032
-4.8479
-4.78354
-4.57428
-4.68042
-4.47095
-4.50707
-4.26144
-4.33966
-4.13248
-4.19673
-3.95155
-3.89656
-3.78237
-1.63493
-1.62631
-1.64987
-1.66299
-1.7733
-1.87932
-2.05945
-2.23395
-2.48693
-2.75297
-3.06118
-3.33931
-3.65676
-3.93063
-4.25961
-4.53082
-4.82928
-4.9973
-5.20906
-5.31331
-5.34491
-5.28231
-5.28843
-5.1602
-5.10221
-4.93827
-4.84021
-4.72905
-4.78133
-4.57017
-4.59078
-4.29087
-4.34181
-4.0722
-4.18708
-3.90183
-4.04508
-3.69437
-3.70516
-3.48259
-1.77176
-1.76726
-1.78154
-1.78236
-1.85941
-1.98457
-2.15416
-2.29715
-2.54156
-2.75216
-3.03155
-3.26877
-3.55093
-3.79068
-4.06802
-4.32366
-4.56691
-4.71084
-4.89863
-5.01061
-5.10244
-5.01293
-5.01418
-4.90458
-4.87312
-4.73935
-4.59707
-4.77617
-4.66411
-4.51675
-4.55132
-4.31212
-4.34985
-3.97942
-4.18505
-3.84826
-3.99964
-3.57562
-3.5243
-3.17465
-1.75726
-1.74221
-1.76685
-1.75132
-1.80278
-1.91989
-2.10972
-2.23788
-2.45584
-2.64418
-2.88656
-3.10472
-3.37028
-3.58025
-3.86755
-4.0993
-4.30057
-4.54903
-4.61554
-4.68402
-4.62005
-4.66405
-4.68232
-4.6046
-4.59485
-4.50057
-4.38086
-4.7131
-4.58286
-4.42024
-4.41229
-4.20715
-4.31262
-3.89694
-4.04169
-3.63218
-3.90259
-3.34363
-3.35589
-2.81197
-1.91059
-1.90466
-1.91229
-1.90916
-1.92254
-1.98879
-2.18956
-2.29378
-2.46948
-2.63636
-2.86408
-3.0531
-3.27546
-3.45984
-3.64625
-3.82055
-4.00867
-4.22136
-4.30933
-4.43376
-4.31585
-4.42209
-4.41213
-4.33945
-4.34028
-4.27957
-4.15507
-4.58742
-4.50236
-4.35075
-4.40223
-4.08416
-4.30662
-3.83598
-4.15407
-3.57594
-3.84242
-3.27304
-3.28987
-2.48101
-1.8413
-1.81461
-1.86247
-1.78798
-1.85773
-1.81755
-2.07821
-2.14851
-2.3477
-2.46704
-2.70265
-2.87259
-3.0954
-3.26695
-3.49713
-3.67434
-3.84158
-4.01026
-4.03121
-4.13453
-4.03097
-4.1439
-4.11718
-4.06308
-4.08071
-4.06161
-3.95413
-4.44146
-4.38247
-4.26511
-4.31878
-3.99309
-4.18208
-3.76727
-4.02249
-3.52407
-3.78615
-2.91809
-3.21234
-1.92259
-2.01977
-2.03431
-2.01917
-2.01002
-1.97939
-1.93545
-2.11041
-2.19466
-2.35886
-2.45892
-2.6653
-2.81534
-3.03401
-3.21163
-3.39083
-3.56399
-3.7342
-3.89829
-3.91494
-3.96584
-3.81642
-3.95097
-3.9186
-3.84666
-3.84791
-3.81009
-3.75792
-4.27478
-4.33735
-4.23565
-4.39188
-3.94545
-4.26053
-3.69799
-4.10438
-3.4518
-3.9532
-2.99275
-3.10331
-1.37513
-1.90929
-1.86063
-1.91648
-1.79837
-1.88201
-1.71075
-1.91441
-1.98864
-2.17427
-2.2833
-2.49368
-2.62741
-2.86464
-3.01585
-3.23516
-3.43049
-3.59991
-3.75416
-3.76354
-3.847
-3.65944
-3.72691
-3.66772
-3.58493
-3.59893
-3.53672
-3.60121
-4.0958
-4.26907
-4.14631
-4.36629
-3.88235
-4.2197
-3.56974
-4.04357
-3.19062
-3.82204
-2.5022
-3.05384
0.0802801
-2.09223
-2.188
-2.09592
-2.09139
-2.01091
-1.92999
-1.93503
-2.03992
-2.17481
-2.27291
-2.45178
-2.59866
-2.80858
-2.96953
-3.17586
-3.3596
-3.53623
-3.68933
-3.75908
-3.80199
-3.62863
-3.61191
-3.52759
-3.406
-3.38069
-3.28782
-3.47794
-3.92486
-4.2152
-4.09578
-4.39746
-3.92598
-4.30371
-3.61151
-4.18743
-3.20012
-3.96011
-2.29242
-3.00202
1.85033
-2.34604
-1.93734
-2.06522
-1.75278
-1.80344
-1.65422
-1.67603
-1.78198
-1.95146
-2.0559
-2.28038
-2.41162
-2.64684
-2.81519
-3.04669
-3.25952
-3.43312
-3.6628
-3.75994
-3.70444
-3.51154
-3.49676
-3.31151
-3.11875
-3.16449
-3.02163
-3.38655
-3.79579
-4.21287
-4.08073
-4.42215
-3.85904
-4.27209
-3.46167
-4.00346
-2.72964
-3.32193
-1.00734
-0.713867
7.00895
-2.07293
-2.49368
-2.36261
-2.34989
-2.04117
-1.79405
-1.76754
-1.80142
-1.92939
-2.01591
-2.20985
-2.36106
-2.57968
-2.74226
-2.96451
-3.18728
-3.42159
-3.63076
-3.82384
-3.73727
-3.56786
-3.46909
-3.1898
-2.92844
-2.98769
-2.81656
-3.3006
-3.61529
-4.12297
-4.02495
-4.39226
-3.88921
-4.31246
-3.43959
-4.03324
-2.67532
-3.17561
0.245201
2.36215
13.9528
-4.71813
-1.9221
-2.18657
-1.78702
-1.70592
-1.50107
-1.54267
-1.58897
-1.77502
-1.88791
-2.09852
-2.21925
-2.45121
-2.63318
-2.88473
-3.12489
-3.40593
-3.69841
-3.86644
-3.59065
-3.41066
-3.22378
-2.87798
-2.61199
-2.80245
-2.74061
-3.42192
-3.74837
-4.24999
-4.10936
-4.43787
-3.77171
-4.11773
-3.20299
-3.57801
-1.72325
-1.14156
4.96026
12.4596
30.8322
-0.24733
-0.294538
-0.350442
-0.406239
-0.467564
-0.522636
-0.580734
-0.629442
-0.681754
-0.727484
-0.787471
-0.851829
-0.896139
-0.976669
-0.998991
-1.09724
-1.10571
-1.21539
-1.12379
-1.35137
-1.1171
-1.41783
-1.4136
-1.47223
-1.35932
-1.31042
-1.1902
-1.13747
-1.0718
-1.05761
-1.06178
-1.094
-1.09216
-1.17579
-1.22452
-1.25356
-1.28272
-1.2815
-1.29037
-1.28441
-0.297416
-0.322957
-0.367887
-0.41057