/*--------------------------------*- C++ -*----------------------------------*\
| =========                 |                                                 |
| \\      /  F ield         | OpenFOAM: The Open Source CFD Toolbox           |
|  \\    /   O peration     | Version:  v1806                                 |
|   \\  /    A nd           | Web:      www.OpenFOAM.com                      |
|    \\/     M anipulation  |                                                 |
\*---------------------------------------------------------------------------*/
FoamFile
{
    version     2.0;
    format      ascii;
    class       surfaceScalarField;
    location    "0.0895";
    object      phi;
}
// * * * * * * * * * * * * * * * * * * * * * * * * * * * * * * * * * * * * * //

dimensions      [0 3 -1 0 0 0 0];
oriented        oriented;


internalField   nonuniform List<scalar> 
187200
(
7.58912e-06
2.47999e-06
-1.00704e-05
5.37124e-05
-2.33082e-05
-2.2815e-05
7.63019e-05
-1.07305e-05
-1.18588e-05
9.55504e-05
-9.49761e-06
-9.75079e-06
0.00011119
-5.93034e-06
-9.70869e-06
0.000128278
-5.16742e-06
-1.19209e-05
0.000143494
-8.85692e-07
-1.43298e-05
0.000160381
5.57886e-07
-1.74447e-05
0.000173957
5.18945e-06
-1.87654e-05
0.000186109
6.95854e-06
-1.91103e-05
0.000198392
7.59049e-06
-1.98742e-05
0.000206929
1.2476e-05
-2.10134e-05
0.000199467
2.17749e-05
-1.43134e-05
0.000172316
3.60985e-05
-8.94758e-06
0.000128277
4.48728e-05
-8.34439e-07
9.05168e-05
2.93339e-05
8.42573e-06
3.82537e-05
3.20283e-05
2.02344e-05
-1.28685e-05
4.53488e-05
5.77338e-06
-0.000109471
9.93345e-05
-2.73194e-06
-0.000246401
0.000139384
-2.45403e-06
-0.000505547
0.00022946
2.96849e-05
-0.000693902
0.000237141
-4.87868e-05
-0.000830247
0.000283932
-0.000147587
-0.000876567
0.000308588
-0.000262268
-0.000862111
0.000339163
-0.000353618
-0.000793273
0.000367738
-0.000436576
-0.000682771
0.000392938
-0.000503441
-0.000542622
0.000408655
-0.000548804
-0.000376338
0.000402572
-0.000568856
-0.000209954
0.000386181
-0.000552566
-7.61535e-05
0.000345221
-0.000479022
1.19422e-05
0.00029882
-0.000386916
4.74373e-05
0.000237724
-0.00027322
4.31342e-05
0.000174621
-0.000170319
2.12421e-05
0.000120781
-9.88891e-05
1.37811e-06
8.11133e-05
-6.12491e-05
-8.67826e-06
5.52268e-05
-4.51707e-05
-1.22674e-05
4.27205e-05
-3.91317e-05
-1.06059e-05
3.31092e-05
-3.47706e-05
2.33617e-05
-3.39683e-05
3.5612e-06
1.74346e-05
-1.85158e-05
4.53199e-05
-3.25513e-05
-3.25154e-05
8.73988e-05
-2.50752e-05
-2.77341e-05
0.000118427
-1.45018e-05
-2.60237e-05
0.00014079
-3.49825e-06
-2.47944e-05
0.000157733
6.80154e-06
-2.89118e-05
0.000165775
2.61337e-05
-3.5061e-05
0.000169619
3.78655e-05
-4.11515e-05
0.000163244
6.29881e-05
-5.14236e-05
0.000146861
8.15254e-05
-5.81842e-05
0.000105647
0.0001244
-7.55967e-05
4.21569e-05
0.00016631
-9.03447e-05
-4.22025e-05
0.000202864
-9.67302e-05
-0.000144164
0.000245724
-0.000107665
-0.000267038
0.000300648
-0.000132902
-0.000446761
0.000374091
-0.000165035
-0.000620789
0.000450151
-0.000244096
-0.000804472
0.000532089
-0.000303058
-0.000968969
0.000635805
-0.000371974
-0.00112897
0.000738756
-0.000439376
-0.00128778
0.00086663
-0.000478351
-0.00138923
0.000942891
-0.00060431
-0.00145314
0.0010488
-0.000700955
-0.00144715
0.00109106
-0.000788468
-0.00136826
0.00113539
-0.00087511
-0.0012268
0.00115894
-0.000932675
-0.00103496
0.0011657
-0.000964587
-0.000807443
0.00114318
-0.000962051
-0.000569178
0.00108522
-0.000920918
-0.00034081
0.00100456
-0.000846747
-0.000146078
0.000879183
-0.000728694
1.33442e-05
0.000734836
-0.000595438
0.000103329
0.000580313
-0.000432574
0.000130995
0.000451645
-0.00030469
0.000120509
0.000332858
-0.00020159
9.31305e-05
0.000246909
-0.000138418
6.20553e-05
0.000185552
-9.92501e-05
3.76446e-05
0.000145689
-7.8558e-05
1.39277e-05
0.000116113
-5.92871e-05
8.05734e-05
-4.32845e-05
1.90823e-05
1.10081e-05
-1.26558e-05
5.82947e-05
-3.6451e-05
-3.5313e-05
9.93668e-05
-2.5577e-05
-4.05703e-05
0.000129477
-2.82646e-06
-4.17851e-05
0.000145333
2.83561e-05
-4.77101e-05
0.00015092
5.82571e-05
-5.7042e-05
0.000142377
9.97536e-05
-6.50768e-05
0.000125792
0.000137304
-8.28538e-05
9.84391e-05
0.000197782
-0.000107441
4.23638e-05
0.000265591
-0.00012799
-4.09005e-05
0.00034817
-0.000140506
-0.000145552
0.000432994
-0.000162034
-0.00030074
0.000537117
-0.000179066
-0.000477079
0.000644882
-0.000222819
-0.000673554
0.000754384
-0.000257262
-0.000855899
0.000864802
-0.000308366
-0.00101449
0.000974322
-0.000365581
-0.00115529
0.00109562
-0.000422728
-0.0012876
0.00124216
-0.000474051
-0.00142048
0.00139125
-0.000519614
-0.00155058
0.00152987
-0.000533134
-0.00162229
0.00161536
-0.000600756
-0.00164836
0.00172109
-0.000646217
-0.00161928
0.00173832
-0.00067633
-0.00152921
0.00176081
-0.000715491
-0.00139133
0.00174802
-0.000726954
-0.00121616
0.001708
-0.000717486
-0.00101574
0.0016274
-0.000684629
-0.00080285
0.00150896
-0.000636623
-0.000582818
0.00135912
-0.000574588
-0.000391474
0.00118112
-0.000493283
-0.00023032
0.000999451
-0.000425769
-0.000110057
0.000798087
-0.000338037
-2.64739e-05
0.000636491
-0.00026843
1.83985e-05
0.000487928
-0.000199943
3.50158e-05
0.000382816
-0.000152524
3.78603e-05
0.000304476
-0.000121769
3.04507e-05
0.000253727
-0.000100629
1.37472e-05
0.000205165
-7.2349e-05
0.000137763
-4.34434e-05
2.14684e-05
7.31443e-06
-1.77749e-05
5.98352e-05
-2.74942e-05
-4.73238e-05
9.98523e-05
-6.38431e-06
-5.92098e-05
0.000121674
4.15473e-05
-6.61956e-05
0.000126289
9.55947e-05
-7.18529e-05
0.000115545
0.000153959
-8.49576e-05
9.59063e-05
0.000228695
-0.000109302
5.91939e-05
0.000309166
-0.00013515
3.45224e-06
0.000420466
-0.000166943
-7.89306e-05
0.000534438
-0.000186464
-0.000196867
0.000668201
-0.000202094
-0.000341476
0.000799092
-0.00022149
-0.000500753
0.000931214
-0.00023482
-0.000654244
0.00105016
-0.000251786
-0.000804129
0.0011782
-0.000273932
-0.000944078
0.00130657
-0.000301824
-0.0010718
0.00143319
-0.000331148
-0.00118395
0.0015561
-0.000348336
-0.00128997
0.00170197
-0.000353784
-0.00139688
0.0018348
-0.000336636
-0.00151929
0.00193261
-0.000280328
-0.00158578
0.00197287
-0.000291027
-0.00161002
0.00203403
-0.000288701
-0.00158955
0.00199512
-0.000277269
-0.00151942
0.00197323
-0.000282557
-0.0014179
0.00191662
-0.000270129
-0.00129221
0.00183471
-0.000252394
-0.00114985
0.00171794
-0.000232903
-0.000995851
0.00156572
-0.000210763
-0.000828353
0.00139823
-0.00020661
-0.000648927
0.00120715
-0.000205458
-0.000471291
0.00102599
-0.000204173
-0.000313278
0.000838402
-0.000198328
-0.000186442
0.000701162
-0.000191508
-9.7262e-05
0.000570866
-0.000172118
-3.63126e-05
0.000472527
-0.000150661
2.30557e-06
0.000401653
-0.000135795
1.69936e-05
0.000349629
-0.000110592
1.50025e-05
0.000286533
-7.93775e-05
0.000193926
-4.1161e-05
2.17167e-05
2.1501e-05
-3.59034e-05
6.11732e-05
8.80949e-06
-7.57601e-05
0.000104065
4.272e-05
-9.19956e-05
0.000122491
0.00012139
-9.82681e-05
0.000118149
0.000206243
-0.000106307
9.00022e-05
0.000303236
-0.00012113
4.82091e-05
0.000422579
-0.000152092
4.8768e-06
0.000534249
-0.00018175
-4.20038e-05
0.000676953
-0.000209607
-0.000114134
0.000826766
-0.000220199
-0.000207609
0.000983974
-0.000222299
-0.000313207
0.0011239
-0.000219209
-0.00043951
0.00126848
-0.000210965
-0.000577171
0.00139865
-0.000210829
-0.000714148
0.0015204
-0.000205223
-0.000835564
0.00162974
-0.000201754
-0.000937597
0.00172488
-0.000189651
-0.00101229
0.00179071
-0.000159917
-0.00110225
0.0018839
-9.19721e-05
-0.00120054
0.00195427
-2.11849e-05
-0.0013416
0.00199376
7.99085e-05
-0.00141584
0.001945
0.00010211
-0.00145752
0.00196173
0.000113982
-0.00146847
0.0018906
0.000115467
-0.00144324
0.00185108
9.69258e-05
-0.00139866
0.00178561
8.6435e-05
-0.00133517
0.00169922
7.20007e-05
-0.00126508
0.00159016
5.76909e-05
-0.00116887
0.00145331
1.62048e-05
-0.00104782
0.00130614
-2.89702e-05
-0.000899293
0.00113992
-8.12848e-05
-0.000731083
0.000988172
-0.000130394
-0.000561328
0.000830444
-0.000161797
-0.000395073
0.000714559
-0.000179652
-0.000255813
0.000616373
-0.000184768
-0.000140612
0.000526174
-0.000168846
-5.76478e-05
0.000468063
-0.000149375
-6.78906e-06
0.000422108
-0.000123337
8.82092e-06
0.000354257
-8.33339e-05
0.000239741
-3.69938e-05
1.48141e-05
6.99703e-05
-6.32832e-05
6.35496e-05
7.70784e-05
-0.000117004
0.000107501
0.000137602
-0.000138833
0.000126343
0.0002413
-0.000138752
0.00011595
0.000355053
-0.000138418
8.49355e-05
0.000483951
-0.0001497
5.50439e-05
0.000637301
-0.00018483
2.45863e-05
0.000781949
-0.000217243
-2.16726e-05
0.000952979
-0.000229767
-8.44919e-05
0.00110813
-0.000218542
-0.000156778
0.00125628
-0.000200017
-0.000239253
0.00138358
-0.000177204
-0.000324956
0.00150444
-0.000150251
-0.000406433
0.00160085
-0.000120724
-0.000487918
0.00168825
-8.63663e-05
-0.000555127
0.00174668
-4.97311e-05
-0.00063961
0.00179119
1.81749e-05
-0.00074084
0.00180745
8.44901e-05
-0.000842741
0.00182118
0.000164618
-0.000940085
0.00179909
0.000252517
-0.00108556
0.00182101
0.000318223
-0.00119113
0.00171997
0.0003306
-0.00126791
0.00170989
0.000328619
-0.0013261
0.0016265
0.000322283
-0.00135301
0.00157977
0.000298216
-0.00136588
0.00152041
0.000278064
-0.00136378
0.00145187
0.000245248
-0.0013506
0.0013708
0.000206184
-0.00131159
0.00126922
0.000145084
-0.00122578
0.00116417
5.61572e-05
-0.00110937
0.00104295
-1.94424e-05
-0.00094436
0.000928657
-0.000105491
-0.000765759
0.000813875
-0.000162032
-0.000568644
0.000718145
-0.000200702
-0.00038815
0.000648479
-0.0002126
-0.000235037
0.000568027
-0.000194966
-0.000113035
0.000520853
-0.000174791
-3.28398e-05
0.000479732
-0.00013782
5.15304e-06
0.0004069
-9.06359e-05
0.000280694
-3.57997e-05
1.75591e-05
0.000147645
-9.52333e-05
8.19811e-05
0.000182606
-0.000169949
0.000132246
0.000272763
-0.000185426
0.000154199
0.000395899
-0.000176552
0.000145614
0.000535383
-0.000171745
0.000100163
0.000703938
-0.000174537
9.0877e-05
0.000859023
-0.000212436
7.04564e-05
0.0010241
-0.00022173
5.14884e-05
0.00118224
-0.000210294
1.31008e-05
0.00132297
-0.000176451
-3.71588e-05
0.00144826
-0.000141727
-0.000101806
0.00155181
-0.000103588
-0.000170926
0.00163766
-6.41019e-05
-0.000240893
0.0016908
-1.99802e-05
-0.000311546
0.00172225
3.66531e-05
-0.000372394
0.00172042
8.71081e-05
-0.000438465
0.00170883
0.000148429
-0.000504558
0.00165777
0.000215774
-0.000605751
0.00162601
0.000296367
-0.000711698
0.0015379
0.00036714
-0.00085489
0.00153642
0.000427783
-0.000998247
0.00141807
0.000445262
-0.00108808
0.00137488
0.000424843
-0.00119399
0.00132661
0.000405805
-0.00127034
0.00129188
0.000364235
-0.0013381
0.0012591
0.000329072
-0.00138959
0.00122182
0.000281542
-0.00142356
0.00117572
0.000229054
-0.00143219
0.00111762
0.000160229
-0.00138112
0.00105358
5.95187e-05
-0.00129304
0.000971498
-1.66344e-05
-0.00114976
0.000883704
-9.83277e-05
-0.000962092
0.000797153
-0.000170943
-0.000738199
0.000705543
-0.000211291
-0.000504676
0.000663273
-0.000248317
-0.0003214
0.000612672
-0.000227921
-0.000160755
0.000566969
-0.000206761
-5.4973e-05
0.000533638
-0.000159689
4.67131e-07
0.000456493
-0.000105034
0.000319962
-3.88006e-05
2.7521e-05
0.000248548
-0.000128424
0.000109571
0.000318291
-0.000217734
0.000174384
0.000435717
-0.000227767
0.000200482
0.000571626
-0.000201824
0.000194222
0.000723265
-0.000181622
0.000178082
0.000901186
-0.000181108
0.000186021
0.00105322
-0.000202136
0.000184255
0.00122074
-0.000194872
0.000172164
0.00135803
-0.000163702
0.000133798
0.00147903
-0.000117702
8.76041e-05
0.00157449
-8.00351e-05
3.18968e-05
0.0016394
-3.18762e-05
-2.84222e-05
0.00167647
2.1508e-05
-9.23436e-05
0.0016755
7.92203e-05
-0.00015379
0.001652
0.000131698
-0.000217362
0.00159585
0.000188142
-0.000282519
0.0015312
0.000242785
-0.000352465
0.00144184
0.000285882
-0.000440536
0.00137584
0.000338242
-0.00054859
0.0012647
0.000381252
-0.00067022
0.00123512
0.000422932
-0.000844096
0.00116201
0.000429933
-0.000959778
0.00108493
0.00040563
-0.00110266
0.00108829
0.000381198
-0.00121944
0.00106562
0.000343045
-0.00132238
0.00105755
0.000304493
-0.00140968
0.00104489
0.000264221
-0.001479
0.00102361
0.000221436
-0.00151569
0.000998768
0.000155536
-0.00149775
0.000954374
8.12765e-05
-0.00143399
0.000895157
1.25835e-05
-0.00131108
0.000823875
-6.30869e-05
-0.00112088
0.000757624
-0.000150666
-0.000900402
0.000691783
-0.000206722
-0.000643575
0.000651741
-0.000245296
-0.000414276
0.000642722
-0.000259349
-0.000216969
0.000599451
-0.000229789
-8.04535e-05
0.000579999
-0.000182877
-6.64781e-06
0.00050028
-0.000117594
0.000356727
-4.34136e-05
4.56162e-05
0.00036077
-0.000157838
0.000152084
0.00047216
-0.000260337
0.000245493
0.000610902
-0.000268594
0.000289477
0.000752652
-0.000225011
0.000286112
0.000916904
-0.000190274
0.000283861
0.00108005
-0.000176617
0.000283061
0.00122442
-0.000170404
0.000286061
0.00136851
-0.000150777
0.000282628
0.00147811
-0.000116643
0.000254227
0.00157337
-6.59395e-05
0.000210784
0.00162965
-1.17099e-05
0.000158568
0.00164993
4.1686e-05
9.33792e-05
0.00164351
9.81466e-05
2.54837e-05
0.00159786
0.000145531
-4.15321e-05
0.00152838
0.000190636
-0.000111586
0.00143354
0.000232368
-0.000183671
0.00133757
0.000265716
-0.000258508
0.0012292
0.000287477
-0.000335902
0.00114554
0.000307684
-0.000452765
0.0010493
0.000332266
-0.000565129
0.000995881
0.000351603
-0.000738028
0.000976444
0.000358466
-0.000890893
0.000892605
0.000345194
-0.001046
0.000922679
0.000320715
-0.00118731
0.000908862
0.000298072
-0.00130899
0.000916568
0.000262661
-0.00142099
0.000912879
0.000244011
-0.00151251
0.000911772
0.000203361
-0.00157959
0.000892807
0.000173037
-0.00159867
0.000857014
0.000116434
-0.00155393
0.000805714
4.47066e-05
-0.00144575
0.000749264
-3.35645e-05
-0.00126027
0.000690411
-0.000118271
-0.00102653
0.00064247
-0.000184431
-0.000751975
0.000610607
-0.000233417
-0.000493617
0.000637832
-0.000253468
-0.000269421
0.000623532
-0.000248277
-0.000102426
0.000613594
-0.000200588
-1.49723e-05
0.000544502
-0.000131676
0.000392049
-5.02953e-05
6.41157e-05
0.000470342
-0.000173688
0.000196294
0.000631532
-0.00029155
0.000316231
0.000786428
-0.000295462
0.000374466
0.000929118
-0.0002347
0.000390254
0.00108155
-0.000180435
0.000390604
0.00122465
-0.000144951
0.000381153
0.00135772
-0.000123844
0.00037825
0.00147049
-9.90734e-05
0.000369693
0.00155085
-6.41857e-05
0.000354207
0.00160053
-1.16715e-05
0.000320384
0.00162796
3.55045e-05
0.000253146
0.00161768
9.94802e-05
0.000182812
0.00156778
0.000146058
0.000108734
0.00148332
0.00018862
3.29965e-05
0.00138351
0.000220607
-4.54848e-05
0.00126844
0.000243575
-0.000123846
0.00116025
0.000255686
-0.000204709
0.0010536
0.000256456
-0.000288647
0.000973539
0.000255943
-0.000405791
0.000905156
0.000261286
-0.000532162
0.000851046
0.000271206
-0.000681947
0.000845742
0.000280487
-0.000855838
0.000780325
0.000286171
-0.00100129
0.000798727
0.000269405
-0.00115133
0.000792983
0.000265922
-0.00127663
0.000803702
0.000238162
-0.00140181
0.000803447
0.000234607
-0.0015149
0.000802926
0.000221944
-0.00160134
0.00077919
0.000200057
-0.00164623
0.000747554
0.000154341
-0.00162849
0.000708317
7.96585e-05
-0.00153932
0.000664803
-4.70625e-06
-0.0013748
0.00062006
-9.41738e-05
-0.00114105
0.000582996
-0.00017427
-0.000865849
0.000548327
-0.000212923
-0.000570835
0.00058224
-0.000239422
-0.000321116
0.0006185
-0.000244686
-0.00012859
0.000629212
-0.000208144
-2.36916e-05
0.000577937
-0.000138333
0.000423295
-5.49378e-05
8.06457e-05
0.000569389
-0.000179693
0.000242544
0.00078059
-0.000310956
0.000389584
0.000948969
-0.000309582
0.000466504
0.00108767
-0.000235475
0.000498661
0.00121873
-0.000169334
0.000497883
0.00133767
-0.00011224
0.000488564
0.00144656
-7.95201e-05
0.000473232
0.00152994
-4.41181e-05
0.000447648
0.00158636
-9.91952e-06
0.000413189
0.00160943
2.55632e-05
0.000377897
0.00158997
7.32868e-05
0.000323432
0.0015412
0.000130946
0.000250218
0.0014689
0.000172095
0.000162029
0.00136286
0.000208644
7.58758e-05
0.00124299
0.000226669
-1.16404e-05
0.00112195
0.000234011
-9.85864e-05
0.00101641
0.000230786
-0.000187206
0.000920527
0.000221694
-0.00028204
0.000854086
0.000214287
-0.000388998
0.000801955
0.000210158
-0.000511542
0.000759895
0.000213696
-0.000633107
0.000741299
0.000226008
-0.000806192
0.000710129
0.000243281
-0.000945828
0.000697137
0.000241226
-0.00108997
0.000691066
0.000246059
-0.00122067
0.000692252
0.000242154
-0.00135366
0.000695397
0.000241037
-0.00148278
0.000682777
0.000249267
-0.00159263
0.000663221
0.000225826
-0.00166138
0.00063706
0.000179239
-0.00168052
0.000600554
0.0001269
-0.00162241
0.0005737
3.29952e-05
-0.00147591
0.000536796
-6.3229e-05
-0.00123202
0.000511032
-0.000171926
-0.000941921
0.000482218
-0.000223994
-0.00063392
0.000511771
-0.000237533
-0.000367712
0.000577365
-0.000225073
-0.000150588
0.00063191
-0.000219822
-3.03939e-05
0.000601516
-0.000143773
0.000454856
-6.19541e-05
9.35589e-05
0.000650966
-0.000175136
0.000282312
0.000911154
-0.000319318
0.000454205
0.00109303
-0.000315951
0.000549594
0.00122039
-0.000228108
0.000593859
0.00132664
-0.000152176
0.000597557
0.0014178
-8.38292e-05
0.000586609
0.00149849
-4.09834e-05
0.000559985
0.00155475
1.81298e-06
0.000520959
0.00158583
3.95489e-05
0.000468949
0.00157696
8.44816e-05
0.000412523
0.00154002
0.000106376
0.000345327
0.00146322
0.000145181
0.000276069
0.00135622
0.000181938
0.000193114
0.0012384
0.000207424
0.000102923
0.00111745
0.000215734
1.00397e-05
0.00100264
0.000212188
-8.03036e-05
0.000905392
0.000201357
-0.000174369
0.000824059
0.000190534
-0.000277327
0.000772755
0.000184289
-0.000377441
0.000724147
0.000177922
-0.000489071
0.000689808
0.000181717
-0.000593558
0.000652002
0.000193785
-0.000743269
0.000641433
0.000218408
-0.000870541
0.000601948
0.00022246
-0.00100298
0.00058555
0.000237951
-0.00112878
0.000579366
0.000238688
-0.00127073
0.000570461
0.000266893
-0.00141062
0.00056018
0.000262484
-0.00153494
0.000546032
0.000241509
-0.00163569
0.000528797
0.000209012
-0.00167462
0.000516289
0.000123197
-0.00164993
0.000496069
5.2935e-05
-0.00154243
0.000463728
-3.4426e-05
-0.00133784
0.000437374
-0.000130932
-0.00104143
0.000421865
-0.000236059
-0.000703013
0.000433543
-0.000260192
-0.000401672
0.000504884
-0.000228859
-0.000173889
0.000602876
-0.000198749
-3.78642e-05
0.000612475
-0.000146984
0.000482149
-6.51568e-05
0.000104178
0.000708148
-0.000161361
0.000316608
0.00101504
-0.000316318
0.000514672
0.00120735
-0.000312387
0.000630117
0.00132019
-0.000215241
0.000680622
0.00140591
-0.000129781
0.000689389
0.00147099
-6.1953e-05
0.00067648
0.00152058
-9.18226e-06
0.000643052
0.00154769
4.04866e-05
0.00059235
0.0015516
8.49337e-05
0.00052543
0.00152398
0.000119895
0.000450399
0.00146345
0.000151602
0.000368016
0.00137285
0.000172756
0.000286368
0.00125747
0.000180405
0.000200888
0.00113017
0.000193706
0.000113222
0.00101064
0.000194472
2.32464e-05
0.000905116
0.000187504
-6.59639e-05
0.000819457
0.000175146
-0.000159485
0.000748804
0.000168777
-0.000257019
0.000704491
0.000165798
-0.00035482
0.000656073
0.000165874
-0.000452461
0.00061753
0.00016992
-0.000546686
0.000567603
0.000178624
-0.000667275
0.000562466
0.000199555
-0.000773137
0.000504031
0.00020378
-0.000888865
0.000480487
0.00022079
-0.00101347
0.000462077
0.000241896
-0.00115463
0.000452224
0.000259395
-0.00129972
0.00044373
0.000261537
-0.00144301
0.000437045
0.000252284
-0.00155954
0.00043744
0.000207886
-0.00164427
0.000436299
0.000164717
-0.00165562
0.0004117
9.57207e-05
-0.00159486
0.000370691
3.2278e-05
-0.00142592
0.00033279
-6.43529e-05
-0.00115012
0.000320383
-0.000174324
-0.000796866
0.000342068
-0.000261778
-0.000452588
0.000424656
-0.000264049
-0.00019649
0.0005396
-0.00019282
-4.56692e-05
0.000608755
-0.000147101
0.000508177
-7.16966e-05
0.000107977
0.000745339
-0.000145169
0.000339165
0.00109158
-0.000307724
0.000561635
0.00129304
-0.000308163
0.000694808
0.00139294
-0.00020593
0.000751597
0.00145708
-0.000107955
0.00076017
0.00149829
-3.58716e-05
0.000743102
0.00152364
1.40032e-05
0.000699314
0.00152134
7.01421e-05
0.000640146
0.00150022
0.000110545
0.000568298
0.00144939
0.000146433
0.000481842
0.001375
0.000174905
0.000386266
0.00127365
0.000194771
0.000289258
0.0011571
0.000197371
0.000205283
0.00103128
0.000182862
0.000119838
0.000918878
0.00017721
3.77193e-05
0.000823535
0.000163698
-4.77447e-05
0.000748052
0.000156869
-0.000138172
0.000684541
0.000154691
-0.000225437
0.000637086
0.00015467
-0.000316258
0.00058663
0.000160265
-0.000397916
0.00053635
0.000162839
-0.0004893
0.000490777
0.00016821
-0.000573483
0.000469213
0.000177435
-0.000662088
0.000407566
0.000185069
-0.000765903
0.000379326
0.000204976
-0.000880011
0.000349379
0.000226806
-0.00101248
0.000339948
0.000244749
-0.00115508
0.000333621
0.000252704
-0.00130178
0.000341693
0.000242054
-0.00145025
0.000352142
0.000233768
-0.00156066
0.000342114
0.000204591
-0.00162669
0.000303769
0.000173959
-0.00161155
0.000251401
0.000104148
-0.00148885
0.000200278
9.81252e-06
-0.00124135
0.000173913
-0.000101025
-0.000892848
0.000202187
-0.000208625
-0.000509783
0.000313648
-0.000272058
-0.000218729
0.000471401
-0.000222855
-5.01779e-05
0.000588077
-0.000147872
0.000535096
-7.70953e-05
0.000113524
0.000750021
-0.000118206
0.000362566
0.00112931
-0.000286772
0.000604754
0.0013431
-0.000292244
0.000754732
0.00143747
-0.0001945
0.000816772
0.00148214
-8.71033e-05
0.000822963
0.00149819
-6.09606e-06
0.000798548
0.0014957
5.23534e-05
0.000753118
0.00147159
9.51766e-05
0.000688598
0.0014289
0.000135845
0.000608477
0.00136377
0.000165744
0.000516037
0.00127703
0.000190402
0.000413662
0.00117011
0.000205913
0.000307464
0.00105556
0.000207742
0.000212582
0.000939769
0.000186397
0.000127648
0.000838543
0.000165269
5.0065e-05
0.000748601
0.000152516
-2.62044e-05
0.000681165
0.000143156
-0.00011156
0.000621817
0.00014808
-0.000187557
0.000565355
0.000147728
-0.000268466
0.00051405
0.000153489
-0.000342416
0.000457315
0.000152984
-0.000418531
0.000411825
0.000155066
-0.000477203
0.000376987
0.000150898
-0.000552622
0.000321913
0.000161071
-0.00064002
0.00029244
0.000174284
-0.000740202
0.000253072
0.000196489
-0.000857606
0.000241393
0.000215959
-0.000990329
0.000242572
0.000223772
-0.00114407
0.000260855
0.00023458
-0.0012918
0.000263399
0.000236469
-0.00143477
0.000243582
0.000241509
-0.00154409
0.000201166
0.000211924
-0.00158604
0.000136929
0.000156412
-0.00152235
6.38356e-05
7.27552e-05
-0.00132128
1.28219e-05
-3.99741e-05
-0.00100322
2.57935e-05
-0.000141677
-0.000594631
0.000143852
-0.000238788
-0.000247571
0.000379738
-0.000255398
-6.05544e-05
0.000546556
-0.000145494
0.000553144
-7.85998e-05
0.000113789
0.000731939
-9.57067e-05
0.000372263
0.00113474
-0.000263912
0.00062864
0.00136174
-0.000275018
0.000792023
0.0014534
-0.000179321
0.000861669
0.00148478
-7.2283e-05
0.000864329
0.00147554
1.9991e-05
0.000834505
0.0014515
7.40314e-05
0.0007798
0.00140472
0.000121581
0.000710254
0.00134649
0.000151951
0.000628963
0.00126934
0.000175722
0.000532894
0.00117303
0.000200075
0.000428568
0.00106745
0.000206988
0.000323721
0.000956284
0.000204121
0.000225589
0.000851094
0.000186807
0.000143929
0.000757686
0.000162518
6.91828e-05
0.000677298
0.00014605
1.28846e-06
0.000610046
0.000139013
-7.37199e-05
0.000556997
0.000139829
-0.000146653
0.000498277
0.000140011
-0.000211263
0.000437288
0.000141371
-0.000279828
0.000383955
0.000141925
-0.000341928
0.000341811
0.000132113
-0.000395125
0.00030083
0.000129354
-0.000453208
0.000249782
0.000130215
-0.00052528
0.000218292
0.000146221
-0.000614212
0.00017789
0.000164114
-0.000708988
0.000157896
0.000178272
-0.000834523
0.000169838
0.00019827
-0.000966496
0.000174368
0.00021846
-0.00111756
0.000165086
0.000249383
-0.00127525
0.000144562
0.000256701
-0.00141561
9.73213e-05
0.000244208
-0.00150503
2.70085e-05
0.000199334
-0.00149866
-6.73194e-05
0.000124785
-0.00136181
-0.000147898
2.38682e-05
-0.0010748
-0.00017279
-8.84205e-05
-0.000681167
-6.23547e-05
-0.000187427
-0.000280966
0.000212525
-0.000232989
-6.55226e-05
0.000494162
-0.00016305
0.000564496
-7.68741e-05
0.000126357
0.000641224
-3.56417e-05
0.00039565
0.00108407
-0.000218617
0.000664721
0.00133357
-0.000240907
0.000846421
0.00142408
-0.000152374
0.000918747
0.00144542
-3.29672e-05
0.000915923
0.00142113
5.72387e-05
0.000875518
0.0013767
0.000115208
0.000816538
0.0013117
0.000151999
0.000744824
0.00124284
0.000175367
0.000661685
0.00116058
0.000191897
0.000569205
0.00106843
0.000197072
0.000466031
0.000966104
0.000204521
0.000361442
0.00086524
0.000195633
0.000262304
0.000769303
0.00018093
0.000176346
0.000684261
0.000159383
9.75105e-05
0.000613068
0.000143066
2.39618e-05
0.000549926
0.000133669
-3.64667e-05
0.000486803
0.000130622
-9.29011e-05
0.00042761
0.000127102
-0.000156332
0.000376628
0.000124092
-0.000222251
0.000329825
0.000120049
-0.000274844
0.000282069
0.000112336
-0.000321742
0.000238823
0.000108905
-0.000372169
0.000192332
0.000107877
-0.000425622
0.000154434
0.00011731
-0.000500569
0.00011787
0.000134968
-0.000584451
9.03012e-05
0.000151476
-0.000685677
9.49347e-05
0.000176129
-0.000806911
8.42643e-05
0.000211338
-0.000951453
6.94463e-05
0.000240181
-0.00111246
4.37396e-05
0.000261832
-0.00126914
-8.78213e-06
0.000262783
-0.00139346
-8.51187e-05
0.00023645
-0.00143955
-0.000196437
0.000175207
-0.00136421
-0.000305472
8.22304e-05
-0.00113862
-0.000370223
-2.81569e-05
-0.000775903
-0.00029565
-0.000129421
-0.000346574
-2.91656e-05
-0.000187636
-6.68672e-05
0.000398378
-0.000183924
0.000564547
-6.69196e-05
0.000120708
0.000532873
-1.23572e-05
0.000378774
0.00102964
-0.000203638
0.000659574
0.00129292
-0.00024015
0.00085658
0.00138424
-0.00015717
0.000941862
0.0013948
-3.46582e-05
0.000941544
0.00135104
7.04028e-05
0.000905626
0.00128614
0.00012647
0.000838882
0.00121527
0.000163166
0.000754468
0.00114189
0.000185363
0.00066448
0.00105251
0.000198061
0.000571054
0.000958155
0.000203706
0.000474361
0.000863386
0.00019941
0.000378088
0.000770298
0.000191215
0.000288148
0.000688611
0.000170632
0.000209089
0.000611569
0.000151752
0.000140733
0.000544833
0.00013659
7.56267e-05
0.000484384
0.000130648
6.65926e-06
0.000429639
0.000126131
-5.76393e-05
0.00037646
0.000115449
-0.00011519
0.000325744
0.000108434
-0.000168987
0.00028057
0.000103052
-0.000216161
0.00023311
9.61325e-05
-0.00026148
0.000190526
9.36155e-05
-0.000305862
0.00014623
9.04838e-05
-0.000352432
0.00010358
9.74241e-05
-0.0004121
6.27134e-05
0.000114825
-0.000484635
2.60054e-05
0.00013683
-0.000563371
5.48515e-06
0.000168185
-0.00066277
-1.73313e-05
0.000200995
-0.000783553
-4.39344e-05
0.000234164
-0.000930903
-6.97094e-05
0.000260799
-0.001092
-0.00012176
0.000274074
-0.00124278
-0.000196535
0.000262194
-0.0013383
-0.000317072
0.000216157
-0.00132462
-0.000456627
0.000137478
-0.00115342
-0.000582991
4.15608e-05
-0.000815499
-0.000561309
-7.22572e-05
-0.00040374
-0.000293069
-0.000147855
-6.67275e-05
0.000215692
-0.000154326
0.000546238
-4.84187e-05
0.000151191
0.000332073
4.96083e-05
0.000388841
0.000911607
-0.000119618
0.000675519
0.00119055
-0.000184301
0.000877923
0.00128847
-0.000106627
0.000972403
0.00129138
8.93853e-06
0.000966772
0.00124847
0.000108207
0.000918878
0.00117379
0.000160248
0.000849973
0.00108957
0.000194608
0.000780606
0.00100498
0.000206277
0.000708654
0.000915961
0.000208499
0.000629549
0.000833944
0.000203316
0.000541435
0.000756357
0.000195143
0.000448683
0.000682503
0.000180548
0.000356736
0.000616394
0.000164164
0.000274398
0.000557024
0.000136883
0.000197619
0.000502253
0.00011936
0.000122549
0.000447284
0.00011217
4.57382e-05
0.000391279
0.00011517
-2.23971e-05
0.000338768
0.000105827
-7.72073e-05
0.000287437
9.31173e-05
-0.000126529
0.000239046
9.08447e-05
-0.000168208
0.000192416
8.2372e-05
-0.000209609
0.000150269
8.16578e-05
-0.00024715
0.00010597
7.78013e-05
-0.000291987
6.32998e-05
8.51172e-05
-0.000338247
1.36981e-05
9.52749e-05
-0.000399295
-2.74068e-05
0.00011446
-0.000467369
-7.09899e-05
0.000144548
-0.000559225
-0.000105268
0.000179793
-0.000674514
-0.000144458
0.000215812
-0.000809891
-0.000191212
0.000256879
-0.0009591
-0.000267262
0.000294711
-0.00111618
-0.000353184
0.000313734
-0.00124147
-0.000488931
0.000297142
-0.0012784
-0.000663617
0.000243927
-0.00117801
-0.000845964
0.00016258
-0.000886351
-0.000897694
4.4725e-05
-0.00045196
-0.000666725
-6.0735e-05
-8.43692e-05
-4.43652e-05
-0.000107533
0.000481312
-1.94445e-05
0.000123293
0.000196658
1.21218e-05
0.000340602
0.000831528
-0.000137232
0.000630498
0.0011063
-0.000205649
0.000846185
0.00120572
-0.000132939
0.000959948
0.00119387
-1.62485e-05
0.000986197
0.00113527
8.69468e-05
0.0009585
0.0010441
0.00015739
0.000903107
0.000965018
0.000179945
0.000829697
0.000892966
0.000185423
0.00074311
0.000820144
0.000182404
0.000652483
0.000748404
0.000176168
0.00055905
0.000681258
0.000168531
0.000468179
0.000617093
0.000156282
0.000380622
0.000562762
0.000141189
0.000297101
0.000511577
0.000128968
0.000224793
0.000464353
0.000110207
0.000159427
0.000415187
9.74623e-05
9.57839e-05
0.00036009
9.48321e-05
2.76293e-05
0.000308353
9.85684e-05
-2.76407e-05
0.000251323
9.1384e-05
-8.01069e-05
0.00020809
8.34221e-05
-0.000124448
0.00015904
7.77165e-05
-0.000164894
0.000115741
7.49736e-05
-0.000201711
7.08146e-05
7.19718e-05
-0.000242517
2.32564e-05
8.08498e-05
-0.000289505
-2.51006e-05
8.57861e-05
-0.000340624
-6.82687e-05
9.19799e-05
-0.000393421
-0.000132361
0.000114167
-0.000451836
-0.000193027
0.000146174
-0.000521739
-0.000259834
0.00018528
-0.000617707
-0.000325705
0.000230462
-0.000746412
-0.000416776
0.000278219
-0.000910214
-0.000510608
0.000321225
-0.00107542
-0.000670557
0.000346827
-0.00119356
-0.000875773
0.000330297
-0.00117572
-0.00112409
0.000260296
-0.000994754
-0.00123487
0.00015621
-0.000579279
-0.00110748
2.52831e-05
-0.000156015
-0.000445874
-2.17529e-05
0.000284302
4.09969e-05
8.98595e-05
9.0413e-05
1.63845e-05
0.00033331
0.000709716
-0.000121639
0.000615338
0.00101159
-0.000187319
0.00084846
0.00111997
-0.000147381
0.000974038
0.00111201
-4.3723e-05
0.00100483
0.00105106
5.34169e-05
0.000962291
0.000958287
0.000128346
0.000894782
0.000871026
0.0001615
0.000830856
0.000792185
0.000164708