/*--------------------------------*- C++ -*----------------------------------*\
| =========                 |                                                 |
| \\      /  F ield         | OpenFOAM: The Open Source CFD Toolbox           |
|  \\    /   O peration     | Version:  v1806                                 |
|   \\  /    A nd           | Web:      www.OpenFOAM.com                      |
|    \\/     M anipulation  |                                                 |
\*---------------------------------------------------------------------------*/
FoamFile
{
    version     2.0;
    format      ascii;
    class       volScalarField;
    location    "0.074";
    object      p;
}
// * * * * * * * * * * * * * * * * * * * * * * * * * * * * * * * * * * * * * //

dimensions      [0 2 -2 0 0 0 0];


internalField   nonuniform List<scalar> 
64000
(
9.21993e-06
-0.10508
-0.239241
-0.318323
-0.378455
-0.424163
-0.470042
-0.509431
-0.542545
-0.586811
-0.603492
-0.652104
-0.668244
-0.715615
-0.711977
-0.758707
-0.702147
-0.781101
-0.634105
-0.850142
-0.535488
-0.73628
-0.60282
-0.674638
-0.520927
-0.484269
-0.34616
-0.285402
-0.222588
-0.20837
-0.206158
-0.221893
-0.280085
-0.307726
-0.353909
-0.355498
-0.381098
-0.373467
-0.385128
-0.3783
-0.106652
-0.213684
-0.286125
-0.339626
-0.388859
-0.427381
-0.46317
-0.501593
-0.532498
-0.57107
-0.59124
-0.62388
-0.629208
-0.652573
-0.641605
-0.66546
-0.666867
-0.733663
-0.595472
-0.766142
-0.475902
-0.650578
-0.552627
-0.604987
-0.446789
-0.412372
-0.288749
-0.24184
-0.18893
-0.177191
-0.198106
-0.184191
-0.250942
-0.27109
-0.31918
-0.324345
-0.351362
-0.35354
-0.372605
-0.371822
-0.254087
-0.29269
-0.333793
-0.367601
-0.409542
-0.4349
-0.476342
-0.502547
-0.53205
-0.567541
-0.593058
-0.63524
-0.651721
-0.712551
-0.729565
-0.785304
-0.745412
-0.822986
-0.702626
-0.907287
-0.679683
-0.889162
-0.861338
-0.958035
-0.844723
-0.837906
-0.738456
-0.688798
-0.612332
-0.544139
-0.505975
-0.450864
-0.449823
-0.397859
-0.39795
-0.375787
-0.384202
-0.377089
-0.388332
-0.386701
-0.333559
-0.347686
-0.368271
-0.392648
-0.409289
-0.439403
-0.467599
-0.503363
-0.552711
-0.597706
-0.630369
-0.696867
-0.748021
-0.816461
-0.839787
-0.89362
-0.893862
-0.994504
-0.912768
-1.14073
-0.955017
-1.17194
-1.20433
-1.32062
-1.23634
-1.23633
-1.13697
-1.07346
-0.971326
-0.86816
-0.776226
-0.659154
-0.592757
-0.512777
-0.466695
-0.42309
-0.428018
-0.404824
-0.4106
-0.409971
-0.387427
-0.389301
-0.415943
-0.411531
-0.454206
-0.469092
-0.526635
-0.554706
-0.617916
-0.678481
-0.764951
-0.879913
-0.946276
-1.02857
-1.07587
-1.15557
-1.16814
-1.26606
-1.18976
-1.42725
-1.27757
-1.48488
-1.5378
-1.66233
-1.59454
-1.59074
-1.49136
-1.41044
-1.29972
-1.17379
-1.04809
-0.912415
-0.777848
-0.658035
-0.554244
-0.489415
-0.460895
-0.443523
-0.443684
-0.442533
-0.43339
-0.438335
-0.435992
-0.472837
-0.465438
-0.512505
-0.547379
-0.654022
-0.781544
-0.922054
-1.03471
-1.11363
-1.18477
-1.25605
-1.29671
-1.3861
-1.36795
-1.49014
-1.4274
-1.62985
-1.51584
-1.69599
-1.7714
-1.86698
-1.80539
-1.79172
-1.6877
-1.60891
-1.48162
-1.36333
-1.21751
-1.06826
-0.922876
-0.805172
-0.667795
-0.549723
-0.51423
-0.485901
-0.484952
-0.486833
-0.493371
-0.473609
-0.510471
-0.559315
-0.646807
-0.68352
-0.833698
-0.94927
-1.07309
-1.1609
-1.26196
-1.35835
-1.43971
-1.52324
-1.56847
-1.63452
-1.64426
-1.71953
-1.67369
-1.84931
-1.80397
-1.85761
-1.9341
-2.00392
-1.94793
-1.92578
-1.83143
-1.75147
-1.63965
-1.51932
-1.37126
-1.21485
-1.0316
-0.88655
-0.744384
-0.60025
-0.545112
-0.521263
-0.521267
-0.527221
-0.534829
-0.524951
-0.56562
-0.639248
-0.728287
-0.819195
-1.01938
-1.07462
-1.23925
-1.35394
-1.48124
-1.57965
-1.67264
-1.74141
-1.79755
-1.86031
-1.85965
-1.92915
-1.88414
-1.98684
-1.99882
-1.9743
-2.02609
-2.08664
-2.03906
-2.01351
-1.92622
-1.85733
-1.75205
-1.64827
-1.50777
-1.34838
-1.17685
-0.999198
-0.873689
-0.683816
-0.610173
-0.575402
-0.574623
-0.585227
-0.579882
-0.559666
-0.629738
-0.721081
-0.851391
-1.00544
-1.16183
-1.28577
-1.41605
-1.55565
-1.68055
-1.78581
-1.88194
-1.95924
-2.0215
-2.07668
-2.09024
-2.1242
-2.09336
-2.10639
-2.15338
-2.09668
-2.08734
-2.14373
-2.10919
-2.08207
-2.00719
-1.93922
-1.85898
-1.76001
-1.62573
-1.46551
-1.2933
-1.09142
-0.945037
-0.773163
-0.653946
-0.624533
-0.619628
-0.636018
-0.662665
-0.64708
-0.723448
-0.838726
-0.986376
-1.16427
-1.31507
-1.44299
-1.59306
-1.70894
-1.85607
-1.95514
-2.05235
-2.12603
-2.1832
-2.23715
-2.25339
-2.27708
-2.24868
-2.23329
-2.25429
-2.2334
-2.11174
-2.18653
-2.15599
-2.13962
-2.06905
-2.02241
-1.94776
-1.85521
-1.74263
-1.58607
-1.41232
-1.22022
-1.05848
-0.885806
-0.747818
-0.701137
-0.690208
-0.710083
-0.71224
-0.70042
-0.798064
-0.925208
-1.13192
-1.28311
-1.45546
-1.60027
-1.75129
-1.8815
-2.00085
-2.09326
-2.20906
-2.2676
-2.32595
-2.36052
-2.37904
-2.39466
-2.3523
-2.33572
-2.32057
-2.29542
-2.12638
-2.21442
-2.17875
-2.19006
-2.12051
-2.09445
-2.02603
-1.95181
-1.83406
-1.696
-1.51502
-1.30767
-1.11698
-0.972085
-0.815282
-0.754999
-0.744224
-0.765972
-0.844549
-0.835567
-0.932194
-1.09612
-1.27845
-1.44728
-1.61482
-1.76038
-1.91117
-2.02585
-2.14734
-2.23539
-2.30658
-2.37898
-2.42536
-2.4566
-2.47768
-2.48738
-2.44338
-2.43718
-2.39515
-2.34753
-2.12751
-2.21542
-2.20197
-2.21341
-2.17633
-2.14785
-2.10125
-2.0315
-1.93497
-1.78424
-1.6277
-1.44026
-1.23448
-1.07317
-0.916167
-0.854258
-0.828123
-0.855495
-0.888219
-0.881562
-1.00435
-1.16337
-1.36387
-1.53315
-1.71571
-1.85905
-2.01302
-2.13038
-2.25489
-2.33552
-2.43084
-2.46521
-2.53291
-2.54405
-2.57286
-2.56449
-2.54333
-2.51245
-2.45706
-2.36567
-2.01616
-2.13246
-2.1721
-2.22563
-2.21022
-2.20522
-2.16233
-2.1097
-2.00703
-1.90617
-1.7422
-1.56577
-1.34638
-1.17248
-0.991018
-0.916189
-0.887269
-0.911771
-1.0741
-1.07295
-1.18254
-1.34275
-1.52761
-1.70608
-1.87257
-2.01271
-2.14808
-2.25446
-2.36126
-2.43737
-2.50021
-2.5502
-2.57788
-2.61389
-2.64333
-2.64922
-2.62667
-2.57407
-2.55031
-2.24364
-2.03936
-2.09279
-2.17574
-2.24104
-2.24923
-2.24981
-2.2171
-2.16412
-2.11272
-2.00127
-1.86096
-1.68239
-1.49331
-1.29891
-1.13002
-1.034
-0.999939
-1.03203
-1.07529
-1.07652
-1.1975
-1.3558
-1.55525
-1.7359
-1.90562
-2.03776
-2.17936
-2.28187
-2.40052
-2.48716
-2.57711
-2.62798
-2.67266
-2.69586
-2.7253
-2.68335
-2.69708
-2.67086
-2.47022
-2.1788
-2.09416
-2.11278
-2.13865
-2.25159
-2.27332
-2.28717
-2.27257
-2.25477
-2.18704
-2.09417
-1.96048
-1.79931
-1.60228
-1.40533
-1.22858
-1.09216
-1.05283
-1.07612
-1.30024
-1.29622
-1.40132
-1.55022
-1.72961
-1.90073
-2.0558
-2.18431
-2.31002
-2.41214
-2.52037
-2.59019
-2.65565
-2.68466
-2.70006
-2.6979
-2.73396
-2.72502
-2.75517
-2.52466
-2.33963
-2.23441
-2.17162
-2.13908
-2.14349
-2.22764
-2.26693
-2.29933
-2.31234
-2.2887
-2.24932
-2.18009
-2.08412
-1.94684
-1.77513
-1.58782
-1.40502
-1.30999
-1.21831
-1.25152
-1.18778
-1.20807
-1.3251
-1.48518
-1.68024
-1.86983
-2.03062
-2.14776
-2.25618
-2.34463
-2.44739
-2.54841
-2.65025
-2.73104
-2.77707
-2.79792
-2.74406
-2.6621
-2.56138
-2.40651
-2.34038
-2.27404
-2.2231
-2.1783
-2.16284
-2.18024
-2.2837
-2.33305
-2.35719
-2.33592
-2.28827
-2.21537
-2.11497
-1.98364
-1.82161
-1.64128
-1.45285
-1.32579
-1.23357
-1.27806
-1.39454
-1.38925
-1.47472
-1.60258
-1.76679
-1.92531
-2.09639
-2.23154
-2.37079
-2.48955
-2.61139
-2.68167
-2.72356
-2.7028
-2.6379
-2.53912
-2.49363
-2.38552
-2.36707
-2.30967
-2.31991
-2.28027
-2.25821
-2.21145
-2.18332
-2.16909
-2.22123
-2.26764
-2.30818
-2.32101
-2.33487
-2.3281
-2.30985
-2.23064
-2.11187
-1.92703
-1.73885
-1.58838
-1.47813
-1.47801
-1.11683
-1.12709
-1.22393
-1.36298
-1.56645
-1.7526
-1.94108
-2.04219
-2.07663
-2.10528
-2.13431
-2.16892
-2.22016
-2.298
-2.347
-2.41296
-2.44205
-2.41964
-2.41072
-2.36993
-2.32342
-2.30743
-2.27615
-2.25229
-2.22675
-2.21999
-2.22949
-2.27027
-2.33357
-2.30321
-2.24112
-2.1559
-2.05432
-1.957
-1.88481
-1.76139
-1.6783
-1.49468
-1.52406
-1.5536
-1.28901
-1.23232
-1.26992
-1.32798
-1.44776
-1.55948
-1.70061
-1.85794
-2.03226
-2.17678
-2.30308
-2.37823
-2.43066
-2.46658
-2.48298
-2.47923
-2.47713
-2.46024
-2.42654
-2.39854
-2.37352
-2.31527
-2.32682
-2.27993
-2.26299
-2.23003
-2.22767
-2.17733
-2.12684
-2.19434
-2.35652
-2.51758
-2.62564
-2.59491
-2.50353
-2.31375
-2.08161
-1.91721
-1.52124
-1.54184
-1.17905
-1.18422
-1.22765
-1.31703
-1.46501
-1.60483
-1.75966
-1.8929
-2.03345
-2.15346
-2.25873
-2.34237
-2.41011
-2.46883
-2.50503
-2.53649
-2.52841
-2.50547
-2.49901
-2.43143
-2.40908
-2.37782
-2.32059
-2.30528
-2.2792
-2.26055
-2.25339
-2.22591
-2.1877
-2.1139
-2.04147
-1.91466
-1.92053
-1.96325
-2.08005
-2.08799
-2.12742
-2.05043
-2.11023
-1.96478
-1.27339
-1.26565
-1.2967
-1.35872
-1.47611
-1.59955
-1.74511
-1.89858
-2.06033
-2.20584
-2.33065
-2.41541
-2.48745
-2.54219
-2.58156
-2.59273
-2.59059
-2.56289
-2.54423
-2.49739
-2.4676
-2.39831
-2.3893
-2.32394
-2.331
-2.2871
-2.28684
-2.24905
-2.24346
-2.19179
-2.19246
-2.13261
-2.09918
-1.90334
-1.69018
-1.45346
-1.28965
-1.16028
-1.09132
-1.14302
-1.24241
-1.25167
-1.28882
-1.35963
-1.48567
-1.61483
-1.76356
-1.92317
-2.07814
-2.22855
-2.34839
-2.44871
-2.52831
-2.5866
-2.63324
-2.64882
-2.65849
-2.60708
-2.59818
-2.53598
-2.50775
-2.44135
-2.40784
-2.37732
-2.34222
-2.31946
-2.30896
-2.26629
-2.25514
-2.19287
-2.17311
-2.06149
-2.00424
-1.85507
-1.78774
-1.62681
-1.5358
-1.3906
-1.39524
-1.55484
-1.2895
-1.26931
-1.3392
-1.39262
-1.52104
-1.64042
-1.78679
-1.94033
-2.1012
-2.24682
-2.3752
-2.47809
-2.56114
-2.61881
-2.67324
-2.68874
-2.7116
-2.66297
-2.65684
-2.61076
-2.58871
-2.50293
-2.48725
-2.42179
-2.41215
-2.33948
-2.35421
-2.29069
-2.29027
-2.21304
-2.21504
-2.12017
-2.10647
-1.95955
-1.89974
-1.7331
-1.64372
-1.46715
-1.3352
-1.36481
-1.29481
-1.27805
-1.35076
-1.40349
-1.52986
-1.6516
-1.79805
-1.94795
-2.10157
-2.2529
-2.39512
-2.49302
-2.5786
-2.63254
-2.69905
-2.71869
-2.7679
-2.72603
-2.78444
-2.65132
-2.63458
-2.58329
-2.52264
-2.46555
-2.4474
-2.38892
-2.37151
-2.31733
-2.3156
-2.23379
-2.22605
-2.09946
-2.07131
-1.91666
-1.88984
-1.74278
-1.70825
-1.5613
-1.52948
-1.63799
-1.30639
-1.27361
-1.35192
-1.40263
-1.52391
-1.64941
-1.79986
-1.93447
-2.09031
-2.22594
-2.34766
-2.45578
-2.55092
-2.61308
-2.70146
-2.74346
-2.82341
-2.81462
-2.84196
-2.67641
-2.65182
-2.59098
-2.56674
-2.49419
-2.50343
-2.41947
-2.42989
-2.31419
-2.34047
-2.22158
-2.22283
-2.09637
-2.11568
-1.95404
-1.93639
-1.7599
-1.71915
-1.54135
-1.43831
-1.40646
-1.32295
-1.29945
-1.36465
-1.42651
-1.53389
-1.65499
-1.77814
-1.94354
-2.08469
-2.21835
-2.33719
-2.42548
-2.52305
-2.58194
-2.70789
-2.74001
-2.85688
-2.81161
-2.86223
-2.67544
-2.70391
-2.63785
-2.60038
-2.5447
-2.5457
-2.46778
-2.49311
-2.43248
-2.4993
-2.48504
-2.6398
-2.59718
-2.69845
-2.6052
-2.6897
-2.54876
-2.5411
-2.34897
-2.26213
-2.18903
-1.29581
-1.27823
-1.30908
-1.39158
-1.4927
-1.60165
-1.75035
-1.88121
-2.02977
-2.15202
-2.27497
-2.36478
-2.46455
-2.52397
-2.6247
-2.69237
-2.79101
-2.78196
-2.84259
-2.70541
-2.69799
-2.6384
-2.64115
-2.55136
-2.60863
-2.50634
-2.56766
-2.49939
-2.56922
-2.48695
-2.56726
-2.419
-2.49036
-2.33489
-2.44798
-2.29857
-2.3931
-2.22004
-2.26784
-2.20344
-1.32449
-1.31328
-1.34171
-1.40062
-1.50917
-1.59487
-1.74716
-1.88613
-2.02578
-2.14722
-2.26932
-2.35373
-2.45745
-2.50479
-2.63546
-2.66873
-2.82422
-2.77565
-2.87915
-2.69422
-2.70134
-2.62258
-2.65763
-2.53861
-2.60504
-2.47781
-2.57832
-2.50001
-2.58845
-2.51799
-2.63008
-2.45892
-2.5447
-2.35623
-2.45837
-2.27852
-2.3431
-2.10754
-2.07783
-1.92804
-1.26065
-1.24883
-1.27552
-1.30958
-1.42852
-1.50027
-1.65168
-1.77277
-1.92927
-2.04433
-2.17931
-2.26907
-2.38423
-2.44271
-2.56484
-2.62113
-2.73981
-2.75278
-2.81523
-2.67413
-2.63919
-2.58339
-2.63169
-2.52009
-2.61522
-2.42517
-2.50164
-2.52564
-2.61816
-2.49066
-2.60652
-2.37957
-2.51107
-2.2615
-2.4245
-2.13437
-2.2455
-1.91857
-1.89014
-1.74457
-1.3038
-1.30033
-1.31542
-1.33245
-1.43304
-1.5179
-1.64386
-1.75916
-1.90607
-2.02009
-2.16061
-2.25092
-2.38176
-2.43627
-2.56822
-2.59036
-2.74359
-2.7286
-2.80933
-2.66743
-2.59677
-2.55635
-2.59377
-2.46201
-2.57945
-2.32018
-2.52055
-2.58833
-2.67317
-2.48491
-2.7154
-2.40312
-2.55628
-2.25143
-2.41221
-2.10392
-2.18621
-1.79772
-1.68923
-1.43848
-1.20454
-1.19326
-1.219
-1.20873
-1.28313
-1.37145
-1.49893
-1.59271
-1.75288
-1.86601
-2.0268
-2.12367
-2.27613
-2.33854
-2.4826
-2.53758
-2.66404
-2.66918
-2.72676
-2.61824
-2.48529
-2.47055
-2.5036
-2.35754
-2.52161
-2.2067
-2.51768
-2.58329
-2.68991
-2.4749
-2.71187
-2.4011
-2.60525
-2.20078
-2.4116
-1.93555
-2.11623
-1.57117
-1.46133
-1.02635
-1.27897
-1.27977
-1.28663
-1.28597
-1.31392
-1.38535
-1.50301
-1.57412
-1.72191
-1.82592
-1.99202
-2.09861
-2.24352
-2.32841
-2.48688
-2.52981
-2.66348
-2.67783
-2.70653
-2.63015
-2.41444
-2.41658
-2.43693
-2.26811
-2.46358
-2.10226
-2.47708
-2.60225
-2.75429
-2.47067
-2.77775
-2.39631
-2.67657
-2.23636
-2.45076
-1.92427
-2.03909
-1.42681
-1.20822
-0.559894
-1.13678
-1.11752
-1.15371
-1.104
-1.1545
-1.15589
-1.32382
-1.35663
-1.52347
-1.62479
-1.79892
-1.90109
-2.11309
-2.20552
-2.37917
-2.44537
-2.57973
-2.6167
-2.62842
-2.57852
-2.26139
-2.28266
-2.29269
-2.11164
-2.33133
-1.97333
-2.35135
-2.63319
-2.75369
-2.55615
-2.79837
-2.37395
-2.69191
-2.16064
-2.47539
-1.78121
-1.9625
-1.00703
-0.875328
0.207208
-1.25265
-1.26731
-1.25852
-1.23404
-1.2487
-1.18955
-1.34337
-1.35133
-1.50337
-1.56998
-1.7695
-1.89078
-2.08989
-2.19629
-2.38141
-2.45155
-2.59106
-2.64768
-2.62695
-2.606
-2.18727
-2.23278
-2.20125
-1.98948
-2.20401
-1.84494
-2.24033
-2.64232
-2.8547
-2.54944
-2.88523
-2.41687
-2.79248
-2.18298
-2.55928
-1.84224
-2.03681
-0.831984
-0.569253
1.05494
-1.10452
-1.03138
-1.09625
-0.9798
-1.05432
-0.930819
-1.10831
-1.09009
-1.25452
-1.36204
-1.57484
-1.70053
-1.93832
-2.05891
-2.27501
-2.3699
-2.51597
-2.59698
-2.56765
-2.54672
-2.01573
-2.0713
-2.00431
-1.78795
-1.99628
-1.67616
-2.11553
-2.61487
-2.88006
-2.5945
-2.96276
-2.33441
-2.82713
-2.09658
-2.46717
-1.61788
-1.88954
-0.249123
0.0809768
2.76989
-1.24517
-1.32206
-1.22757
-1.21616
-1.14409
-1.06603
-1.11495
-1.10658
-1.2469
-1.32535
-1.52209
-1.65226
-1.88294
-2.01853
-2.24865
-2.36981
-2.53724
-2.63951
-2.61869
-2.53928
-1.98663
-1.9681
-1.89495
-1.59698
-1.81418
-1.51086
-2.06035
-2.5354
-2.96414
-2.64362
-3.07217
-2.46283
-2.9118
-2.14393
-2.67997
-1.6101
-2.13774
-0.0406705
0.506731
4.48921
-1.4832
-1.04479
-1.16417
-0.829659
-0.918121
-0.721921
-0.829375
-0.846572
-0.993921
-1.08373
-1.30769
-1.44116
-1.70006
-1.85024
-2.10229
-2.2497
-2.44068
-2.58873
-2.55503
-2.41928
-1.88894
-1.72856
-1.6253
-1.3221
-1.55431
-1.31276
-2.03189
-2.44293
-2.99043
-2.66688
-3.09843
-2.45138
-2.84562
-1.96403
-2.46181
-1.03722
-1.571
1.05463
2.22681
9.04488
-1.31749
-1.58516
-1.38951
-1.35093
-0.949527
-0.893758
-0.828081
-0.816986
-0.95266
-1.02878
-1.22142
-1.3542
-1.60419
-1.7561
-2.01557
-2.18003
-2.41671
-2.60301
-2.7012
-2.36987
-1.93254
-1.61797
-1.47082
-1.10528
-1.36885
-1.15813
-2.0291
-2.30765
-3.06496
-2.71401
-3.18158
-2.51155
-2.96261
-2.08518
-2.62591
-1.30576
-1.77259
1.75608
3.51644
12.8242
-3.81386
-1.06625
-1.37268
-0.917583
-0.832654
-0.600137
-0.669088
-0.660942
-0.816804
-0.907732
-1.1397
-1.26949
-1.52878
-1.68331
-1.9485
-2.13745
-2.43977
-2.65714
-2.6649
-2.26763
-1.84966
-1.36999
-1.18764
-0.851845
-1.22821
-1.17301
-2.15782
-2.39694
-3.19097
-2.74651
-3.16606
-2.41805
-2.80043
-1.90944
-2.25176
-0.54861
-0.118506
5.77803
10.7825
25.538
-0.106939
-0.210428
-0.284135
-0.33866
-0.385915
-0.428075
-0.471928
-0.513859
-0.554022
-0.591477
-0.618074
-0.664255
-0.679935
-0.721565
-0.725966
-0.76782
-0.722295
-0.798557
-0.704457
-0.903241
-0.619672
-0.763364
-0.705177
-0.752064
-0.603184
-0.568302
-0.442244
-0.39431
-0.332585
-0.304656
-0.306234
-0.284871
-0.335515
-0.341706
-0.374547
-0.366608
-0.381737
-0.374785
-0.388374
-0.37577
-0.22008
-0.272893
-0.316626
-0.359639
-0.394698
-0.433075
-0.464993
-0.507221
-0.523882
-0.573737
-0.581016
-0.650927
-0.641161
-0.6692
-0.653864
-0.694132
-0.668653
-0.747488
-0.620915
-0.80955
-0.622059
-0.753839
-0.692569
-0.753453
-0.613049
-0.601342
-0.490011
-0.45197
-0.395981
-0.355869
-0.349726
-0.336813
-0.322672
-0.323389
-0.354981
-0.348901
-0.368108
-0.361305
-0.37515
-0.361945
-0.305976
-0.32594
-0.350844
-0.369612
-0.4096
-0.434366
-0.47391
-0.497432
-0.5589
-0.583282
-0.611931
-0.643848
-0.659755
-0.701988
-0.728758
-0.81316
-0.783026
-0.860256
-0.763393
-0.975929
-0.853422
-1.03308
-1.0527
-1.15833
-1.05314
-1.05539
-0.958746
-0.911906
-0.83162
-0.744172
-0.65939
-0.563601
-0.517038
-0.468659
-0.430778
-0.395828
-0.400031
-0.386639
-0.393341
-0.385138
-0.36103
-0.376983
-0.377918
-0.403845
-0.413512
-0.445679
-0.478072
-0.520042
-0.559688
-0.604184
-0.633423
-0.688393
-0.745311
-0.831523
-0.861095
-0.950787
-0.942172
-1.05012
-0.983484
-1.21928
-1.16271
-1.36964
-1.42713
-1.54056
-1.44643
-1.44233
-1.3334
-1.25663
-1.14379
-1.01618
-0.896949
-0.750267
-0.643555
-0.539738
-0.496014
-0.442391
-0.443567
-0.416134
-0.417855
-0.410587
-0.410604
-0.416633
-0.42192
-0.42459
-0.465524
-0.466452
-0.524612
-0.567007
-0.631441
-0.690577
-0.778506
-0.894401
-0.971845
-1.04887
-1.10006
-1.2044
-1.21262
-1.32444
-1.29655
-1.49828
-1.43871
-1.64065
-1.71484
-1.81334
-1.71978
-1.71062
-1.60405
-1.52765
-1.3889
-1.23789
-1.08467
-0.939923
-0.799916
-0.66502
-0.558935
-0.500403
-0.473842
-0.452216
-0.447157
-0.445275
-0.451657
-0.442043
-0.459571
-0.488412
-0.468356
-0.514928
-0.55591
-0.653586
-0.796978
-0.932549
-1.04346
-1.12589
-1.20071
-1.28082
-1.32743
-1.43543
-1.43444
-1.54386
-1.49165
-1.67651
-1.64382
-1.82118
-1.90473
-1.99187
-1.91416
-1.87646
-1.76672
-1.65964
-1.55438
-1.39462
-1.24177
-1.07415
-0.928162
-0.804445
-0.666779
-0.570141
-0.533827
-0.503401
-0.493454
-0.494795
-0.502073
-0.499501
-0.537479
-0.569023
-0.619415
-0.648077
-0.78775
-0.96465
-1.0736
-1.16677
-1.27073
-1.37097
-1.45713
-1.53984
-1.60295
-1.66733
-1.68475
-1.75971
-1.7253
-1.8536
-1.84977
-1.93899
-2.00454
-2.07623
-2.00153
-1.96549
-1.86649
-1.7766
-1.64263
-1.51105
-1.35161
-1.18
-1.01348
-0.865645
-0.743717
-0.612162
-0.558231
-0.533479
-0.525074
-0.531617
-0.543922
-0.55186
-0.600838
-0.662106
-0.735223
-0.802528
-1.01356
-1.09189
-1.24473
-1.36347
-1.48179
-1.59348
-1.68144
-1.76831
-1.819
-1.87863
-1.87792
-1.93395
-1.9033
-1.97165
-1.9888
-2.0084
-2.04386
-2.12151
-2.06753
-2.03683
-1.95722
-1.86801
-1.76488
-1.6208
-1.4762
-1.31905
-1.15596
-0.98561
-0.854
-0.710937
-0.634032
-0.602179
-0.588101
-0.59648
-0.599077
-0.607537
-0.670516
-0.751295
-0.862328
-0.980761
-1.15849
-1.29242
-1.43469
-1.56077
-1.6864
-1.78857
-1.88986
-1.97483
-2.03474
-2.08126
-2.08749
-2.10724
-2.07773
-2.08487
-2.10406
-2.08035
-2.0953
-2.15005
-2.1275
-2.09718
-2.03135
-1.95292
-1.83639
-1.71874
-1.58148
-1.43166
-1.27438
-1.05031
-0.918119
-0.755468
-0.674605
-0.632938
-0.629813
-0.640202
-0.684776
-0.69196
-0.776704
-0.892493
-0.983596
-1.15015
-1.30428
-1.43786
-1.59078
-1.7309
-1.84613
-1.96398
-2.05617
-2.13844
-2.20366
-2.25043
-2.25735
-2.26349
-2.22643
-2.20673
-2.19906
-2.18561
-2.1221
-2.18401
-2.17221
-2.15652
-2.10588
-2.01643
-1.93714
-1.81451
-1.71521
-1.60346
-1.44228
-1.28071
-1.06066
-0.881424
-0.759497
-0.726589
-0.703244
-0.719344
-0.737052
-0.747579
-0.845286
-0.954411
-1.1647
-1.26518
-1.45025
-1.58687
-1.73695
-1.89361
-2.01218
-2.11666
-2.21404
-2.27485
-2.35029
-2.39028
-2.40331
-2.3976
-2.35707
-2.31564
-2.27744
-2.23844
-2.12084
-2.21177
-2.19485
-2.20265
-2.14456
-2.10057
-1.9942
-1.93617
-1.84802
-1.67586
-1.5142
-1.29498
-1.13723
-0.947783
-0.804078
-0.771143
-0.753699
-0.769296
-0.869395
-0.882559
-0.983862
-1.14303
-1.30775
-1.45165
-1.59558
-1.75166
-1.9005
-2.00945
-2.1508
-2.24605
-2.325
-2.38664
-2.44665
-2.49859
-2.5127
-2.50744
-2.46941
-2.42678
-2.36531
-2.29049
-2.12267
-2.19468
-2.21109
-2.22423
-2.20665
-2.12117
-2.10787
-2.05219
-1.90742
-1.81908
-1.6639
-1.52222
-1.3186
-1.12805
-0.895786
-0.850773
-0.837575
-0.859664
-0.924196
-0.937735
-1.06394
-1.22229
-1.40958
-1.55242
-1.72456
-1.83698
-2.00553
-2.12451
-2.25535
-2.32827
-2.4567
-2.48345
-2.55188
-2.59115
-2.61076
-2.5982
-2.57453
-2.5204
-2.43685
-2.28488
-1.99364
-2.07512
-2.17438
-2.23522
-2.2153
-2.24531
-2.21204
-2.11085
-2.08284
-1.9383
-1.77483
-1.55244
-1.35806
-1.20396
-1.03699
-0.880098
-0.902754
-0.912542
-1.11048
-1.12681
-1.24901
-1.4036
-1.58026
-1.73339
-1.89288
-2.01922
-2.14538
-2.24173
-2.36194
-2.45398
-2.50204
-2.58889
-2.62434
-2.66546
-2.68718
-2.68776
-2.66438
-2.60437
-2.49824
-2.17475
-1.986
-2.0328
-2.14999
-2.24118
-2.26249
-2.29316
-2.23829
-2.24858
-2.14172
-2.03349
-1.87172
-1.70242
-1.46522
-1.30543
-1.15909
-1.02999
-0.980696
-1.04164
-1.12566
-1.1404
-1.26749
-1.42505
-1.61305
-1.77614
-1.95212
-2.06942
-2.20599
-2.30903
-2.42703
-2.50718
-2.60947
-2.69195
-2.733
-2.75461
-2.76544
-2.74717
-2.73688
-2.66194
-2.40062
-2.14533
-2.01768
-2.03439
-2.09161
-2.2361
-2.30272
-2.31234
-2.3398
-2.28126
-2.22201
-2.11656
-1.98212
-1.79871
-1.58104
-1.37574
-1.21888
-1.14873
-1.00876
-1.08334
-1.32263
-1.33588
-1.45922
-1.60827
-1.79168
-1.94921
-2.09699
-2.22621
-2.35842
-2.46438
-2.57349
-2.64156
-2.69587
-2.7214
-2.76111
-2.76326
-2.78381
-2.78093
-2.74139
-2.51322
-2.31321
-2.17694
-2.0876
-2.05525
-2.07989
-2.18596
-2.27258
-2.34565
-2.35111
-2.33345
-2.28187
-2.21174
-2.10361
-1.95732
-1.75866
-1.56381
-1.38204
-1.31344
-1.19613
-1.24594
-1.26034
-1.28632
-1.40832
-1.57736
-1.77136
-1.91666
-2.09316
-2.20715
-2.32137
-2.41308
-2.51463
-2.6054
-2.69526
-2.77455
-2.79792
-2.82535
-2.78012
-2.6803
-2.53427
-2.37917
-2.29574
-2.21366
-2.14461
-2.09706
-2.11521
-2.16528
-2.34263
-2.3805
-2.40299
-2.37372
-2.33309
-2.2624
-2.16972
-2.02895
-1.84892
-1.64758
-1.45853
-1.32214
-1.25485
-1.23656
-1.40064
-1.41192
-1.51174
-1.65731
-1.83202
-1.98645
-2.14767
-2.26917
-2.40086
-2.50685
-2.61508
-2.67387
-2.70756
-2.6874
-2.61691
-2.5461
-2.51638
-2.41826
-2.37359
-2.32009
-2.29882
-2.24029
-2.19074
-2.14656
-2.12318
-2.1469
-2.18216
-2.30799
-2.36469
-2.38628
-2.3855
-2.36405
-2.33361
-2.24856
-2.11291
-1.93124
-1.71215
-1.58654
-1.5132
-1.49933
-1.1885
-1.22946
-1.31455
-1.47343
-1.61564
-1.81252
-1.9768
-2.08686
-2.1292
-2.16633
-2.19344
-2.22709
-2.2695
-2.32964
-2.36514
-2.42892
-2.43417
-2.39155
-2.38718
-2.34601
-2.31954
-2.27019
-2.22642
-2.19032
-2.15807
-2.16075
-2.16504
-2.18047
-2.25895
-2.30193
-2.30808
-2.28155
-2.24298
-2.14561
-2.03544
-1.92443
-1.71865
-1.56815
-1.54732
-1.56057
-1.24806
-1.24164
-1.2911
-1.37807
-1.48227
-1.61027
-1.74524
-1.88114
-2.02979
-2.15318
-2.26764
-2.33268
-2.38051
-2.41926
-2.44182
-2.45642
-2.46279
-2.43679
-2.40377
-2.37636
-2.35768
-2.29444
-2.27743
-2.22245
-2.20826
-2.19085
-2.17205
-2.14208
-2.11445
-2.12131
-2.23167
-2.34368
-2.47917
-2.49721
-2.4486
-2.28517
-2.04581
-1.82532
-1.63458
-1.58415
-1.22779
-1.18552
-1.22503
-1.31162
-1.42227
-1.56907
-1.69876
-1.86033
-1.98655
-2.11019
-2.21477
-2.30434
-2.38063
-2.44056
-2.4844
-2.51954
-2.51967
-2.50807
-2.47743
-2.41257
-2.3956
-2.33863
-2.30654
-2.26786
-2.24333
-2.22876
-2.21536
-2.16644
-2.12691
-2.07099
-2.03389
-1.94296
-1.92692
-1.92323
-2.00659
-1.98783
-1.93787
-1.90261
-1.91585
-2.08728
-1.28173
-1.24294
-1.27895
-1.34151
-1.46777
-1.57349
-1.71714
-1.87692
-2.03348
-2.18016
-2.30514
-2.3959
-2.47241
-2.53454
-2.58126
-2.59235
-2.58777
-2.55617
-2.53143
-2.48814
-2.43999
-2.36604
-2.37224
-2.31341
-2.30494
-2.26557
-2.26219
-2.21906
-2.1983
-2.13188
-2.12651
-2.06077
-2.03882
-1.88559
-1.70559
-1.49901
-1.33531
-1.19237
-1.08863
-1.08773
-1.24238
-1.23503
-1.27994
-1.35194
-1.48183
-1.60277
-1.74507
-1.91644
-2.06581
-2.21312
-2.33345
-2.43999
-2.52788
-2.59343
-2.64145
-2.65234
-2.65344
-2.60362
-2.5896
-2.52714
-2.49551
-2.43455
-2.39447
-2.35701
-2.33423
-2.30273
-2.28523
-2.24196
-2.22392
-2.15456
-2.12244
-2.00189
-1.95631
-1.78579
-1.69985
-1.53722
-1.42833
-1.29965
-1.22247
-1.41242
-1.2857
-1.2756
-1.32394
-1.3864
-1.51199
-1.63442
-1.78229
-1.94469
-2.10174
-2.24818
-2.37922
-2.49008
-2.58117
-2.644
-2.69146
-2.69543
-2.70856
-2.66443
-2.66222
-2.60788
-2.57741
-2.48322
-2.47918
-2.39406
-2.39317
-2.33076
-2.34137
-2.26795
-2.26575
-2.18054
-2.17757
-2.0699
-2.04967
-1.89715
-1.83837
-1.67152
-1.57092
-1.36449
-1.2383
-1.32364
-1.29736
-1.28715
-1.34199
-1.4063
-1.5298
-1.66658
-1.80591
-1.96764
-2.12124
-2.27331
-2.41159
-2.52577
-2.62
-2.67708
-2.7287
-2.73719
-2.78273
-2.74491
-2.79715
-2.68226
-2.63164
-2.55499
-2.52288
-2.46028
-2.42955
-2.37294
-2.35531
-2.30021
-2.28551
-2.18945
-2.16985
-2.03099
-2.00366
-1.83767
-1.81269
-1.66574
-1.63149
-1.47432
-1.41518
-1.56972
-1.29778
-1.28083
-1.34261
-1.40552
-1.52677
-1.65085
-1.80072
-1.95484
-2.11483
-2.2641
-2.404
-2.51711
-2.61421
-2.67175
-2.74419
-2.77779
-2.8561
-2.85733
-2.89146
-2.73462
-2.65861
-2.57074
-2.57254
-2.4895
-2.50096
-2.39145
-2.42567
-2.28548
-2.31691
-2.1859
-2.19865
-2.06047
-2.09007
-1.92823
-1.93254
-1.75285
-1.71786
-1.52769
-1.42363
-1.37104
-1.3256
-1.30892
-1.35518
-1.42626
-1.53456
-1.65805
-1.80158
-1.96398
-2.12015
-2.26755
-2.40559
-2.51243
-2.61038
-2.66872
-2.78414
-2.84324
-2.97165
-2.94032
-2.96932
-2.74144
-2.6824
-2.59582
-2.60258
-2.53988
-2.54864
-2.46063
-2.47423
-2.40517
-2.48073
-2.43377
-2.56802
-2.5111
-2.62307
-2.51514
-2.60733
-2.46673
-2.47907
-2.31647
-2.17954
-2.15172
-1.29322
-1.28346
-1.31659
-1.38521
-1.49274
-1.59848
-1.74527
-1.88848
-2.04211
-2.17761
-2.31352
-2.41864
-2.53307
-2.61174
-2.73838
-2.80489
-2.93038
-2.88827
-2.8939
-2.71467
-2.67431
-2.62134
-2.64319
-2.54405
-2.61051
-2.49711
-2.59907
-2.43533
-2.56948
-2.44762
-2.5893
-2.43109
-2.5388
-2.37505
-2.50211
-2.34262
-2.4427
-2.27219
-2.18689
-2.16716
-1.32531
-1.31833
-1.34695
-1.39522
-1.5093
-1.60142
-1.74931
-1.87827
-2.0236
-2.14108
-2.27151
-2.37093
-2.50005
-2.58503
-2.71918
-2.75489
-2.87818
-2.83361
-2.89091
-2.70123
-2.70049
-2.58913
-2.64537
-2.51825
-2.59514
-2.46348
-2.56164
-2.44877
-2.62903
-2.49184
-2.63363
-2.47098
-2.59398
-2.39997
-2.52813
-2.335
-2.42209
-2.15557
-2.10985
-1.97421
-1.26079
-1.25066
-1.28184
-1.30308
-1.422
-1.50143
-1.64897
-1.77716
-1.91752
-2.03517
-2.16762
-2.26604
-2.40101
-2.49352
-2.63191
-2.67241
-2.78932
-2.78141
-2.83007
-2.70378
-2.63722
-2.56349
-2.60944
-2.47393
-2.57458
-2.38759
-2.49876
-2.51249
-2.67428
-2.49937
-2.65922
-2.38513
-2.53301
-2.30842
-2.48947
-2.19406
-2.35752
-1.98161
-1.95666
-1.709
-1.30512
-1.30153
-1.3226
-1.3386
-1.42726
-1.51827
-1.64558
-1.76017
-1.91944
-2.01459
-2.15391
-2.24676
-2.38642
-2.46251
-2.61091
-2.64754
-2.76744
-2.76278
-2.82247
-2.6887
-2.60193
-2.5206
-2.5691
-2.40876
-2.52832
-2.27409
-2.52291
-2.57132
-2.71119
-2.51262
-2.67636
-2.45229
-2.59589
-2.27798
-2.4889
-2.19255
-2.34727
-1.92777
-1.84422
-1.49128
-1.20464
-1.18709
-1.22217
-1.21054
-1.28507
-1.36681
-1.49723
-1.59188
-1.7537
-1.87743
-2.02152
-2.12668
-2.28053
-2.36065
-2.51638
-2.56884
-2.68528
-2.68809
-2.74698
-2.63445
-2.48417
-2.42912
-2.47467
-2.30462
-2.45675
-2.16749
-2.50875
-2.59251
-2.73506
-2.50626
-2.6895
-2.41019
-2.62005
-2.29396
-2.48301
-2.04091
-2.34442
-1.7734
-1.75998
-1.2091
-1.27872
-1.27239
-1.28671
-1.29035
-1.31547
-1.38123
-1.49889
-1.57351
-1.71707
-1.83024
-1.99916
-2.10421
-2.26915
-2.36491
-2.50585
-2.55089
-2.68262
-2.71205
-2.73059
-2.64214
-2.43642
-2.36498
-2.40358
-2.2217
-2.39349
-2.07339
-2.4654
-2.59845
-2.84383
-2.51827
-2.77089
-2.38302
-2.71642
-2.25219
-2.5995
-2.06003
-2.31309
-1.75197
-1.7368
-0.933546
-1.13408
-1.10572
-1.16072
-1.0886
-1.16613
-1.1466
-1.32003
-1.35492
-1.52605
-1.62334
-1.81904
-1.93048
-2.11867
-2.17955
-2.38569
-2.456
-2.58728
-2.64958
-2.66738
-2.58472
-2.28964
-2.22943
-2.25486
-2.07192
-2.25056
-1.9463
-2.35523
-2.5999
-2.85977
-2.55994
-2.80176
-2.37548
-2.6963
-2.20454
-2.55781
-2.00423
-2.33131
-1.42798
-1.66012
-0.397475
-1.25288
-1.26806
-1.2649
-1.24564
-1.22387
-1.20595
-1.33456
-1.36025
-1.51044
-1.59461
-1.78845
-1.90492
-2.09694
-2.21368
-2.40276
-2.47383
-2.63904
-2.69719
-2.67626
-2.62619
-2.25192
-2.15428
-2.16441
-1.95304
-2.12556
-1.83704
-2.25233
-2.57665
-2.93463
-2.61375
-2.95366
-2.41372
-2.82174
-2.21539
-2.65638
-1.98263
-2.46907
-1.51885
-1.48897
0.170648
-1.08882
-1.03509
-1.10245
-0.983282
-1.07394
-0.919605
-1.11484
-1.1126
-1.29454
-1.38708
-1.59937
-1.71062
-1.95976
-2.07766
-2.30932
-2.40788
-2.5932
-2.64774
-2.66404
-2.5613
-2.12996
-1.98457
-1.97635
-1.739
-1.92062
-1.64282
-2.14165
-2.51368
-2.96239
-2.62674
-3.0247
-2.39519
-2.84236
-2.11624
-2.62424
-1.73159
-2.32049
-1.00976
-1.33361
1.70682
-1.23025
-1.33251
-1.25038
-1.24406
-1.17148
-1.08345
-1.13748
-1.15274
-1.28728
-1.37192
-1.55712
-1.69834
-1.92759
-2.06285
-2.2985
-2.41932
-2.61972
-2.72442
-2.70682
-2.59112
-2.11697
-1.91935
-1.86715
-1.59073
-1.7329
-1.48566
-2.07184
-2.43431
-3.02298
-2.67828
-3.13677
-2.52121
-2.97213
-2.21565
-2.79584
-1.78364
-2.47494
-0.743397
-1.1658
3.46524
-1.39959
-1.00933
-1.16134
-0.859235
-0.936297
-0.764465
-0.862488
-0.873811
-1.04306
-1.1306
-1.37146
-1.50224
-1.76957
-1.92756
-2.19095
-2.36053
-2.54877
-2.72823
-2.745
-2.49731
-2.0271
-1.73472
-1.65438
-1.29701
-1.52692
-1.27474
-2.02529
-2.32758
-3.04821
-2.72227
-3.22061
-2.50676
-2.95287
-2.09784
-2.62227
-1.35253
-1.87074
0.453918
1.06548
8.59375
-1.07019
-1.52469
-1.41051
-1.40831
-1.13255
-0.918431
-0.917775
-0.890037
-1.0078
-1.08412
-1.29172
-1.44703
-1.70741
-1.86197
-2.14349
-2.32861
-2.60114
-2.81194
-2.898
-2.56456
-2.12054
-1.7206
-1.51116
-1.10224
-1.35216
-1.10431
-1.98116
-2.21941
-3.09063
-2.73577
-3.21282
-2.54248
-3.0027
-2.09554
-2.67254
-1.37488
-1.83033
1.51555
3.76417
15.2117
-3.63938
-0.922513
-1.22429
-0.828848
-0.790055
-0.615545
-0.676205
-0.672675
-0.840219
-0.938515
-1.16777
-1.29584
-1.57139
-1.76127
-2.0684
-2.30762
-2.62169
-2.8679
-2.93091
-2.40569
-1.97978
-1.48595
-1.20914
-0.821948
-1.18592
-1.11173
-2.10535
-2.34465
-3.23388
-2.83333
-3.25818
-2.46358
-2.8181
-1.88058
-2.23334
-0.457686
0.157408
6.1419
13.7767
32.0422
-0.236978
-0.274212
-0.312707
-0.347755
-0.392127
-0.428795
-0.474399
-0.510976
-0.545987
-0.592213
-0.623682
-0.670802
-0.687282
-0.739904
-0.733132