/*--------------------------------*- C++ -*----------------------------------*\
| =========                 |                                                 |
| \\      /  F ield         | OpenFOAM: The Open Source CFD Toolbox           |
|  \\    /   O peration     | Version:  v1806                                 |
|   \\  /    A nd           | Web:      www.OpenFOAM.com                      |
|    \\/     M anipulation  |                                                 |
\*---------------------------------------------------------------------------*/
FoamFile
{
    version     2.0;
    format      ascii;
    class       volVectorField;
    location    "0.074";
    object      U_0;
}
// * * * * * * * * * * * * * * * * * * * * * * * * * * * * * * * * * * * * * //

dimensions      [0 1 -1 0 0 0 0];


internalField   nonuniform List<vector> 
64000
(
(-0.0092754 -0.0103159 -0.0068853)
(0.0137682 -0.0105224 -0.00431101)
(0.0198766 -0.00357909 0.000831697)
(0.0237512 -0.00346457 0.00133661)
(0.0245254 -0.00254432 0.00178546)
(0.024596 -0.00277542 0.00257554)
(0.0240635 -0.00349338 0.00284186)
(0.020672 -0.00394817 0.00305205)
(0.0193222 -0.00491502 0.00449981)
(0.012135 -0.00441789 0.0038467)
(0.00687619 -0.00527301 0.00635805)
(-0.0063642 -0.00901637 0.00619198)
(-0.0264258 -0.0127089 0.00640809)
(-0.0499742 -0.0178681 0.00397287)
(-0.080179 -0.0181683 0.00505644)
(-0.115663 -0.0161852 0.00264716)
(-0.146346 0.000623002 0.00197798)
(-0.190164 -0.00441165 -0.0025076)
(-0.191782 -0.00991769 0.00578078)
(-0.2511 -0.0286312 -0.0157125)
(-0.216872 -0.0231879 -0.0238982)
(-0.10542 -0.0245169 -0.0392561)
(-0.104488 -0.00980228 -0.0265019)
(-0.100249 -0.00402927 -0.0372399)
(-0.115616 0.00257185 -0.047986)
(-0.11033 0.0109357 -0.0571887)
(-0.0980728 0.0208457 -0.0619562)
(-0.0632219 0.0322111 -0.0574571)
(-0.030592 0.0383057 -0.0533113)
(0.0128652 0.0526659 -0.0359142)
(0.0605744 0.0457032 -0.0320918)
(0.0942851 0.0376573 -0.0234574)
(0.110303 0.0266812 -0.0118533)
(0.106057 0.0131874 -0.00442727)
(0.0921226 0.00487542 0.00164865)
(0.0727724 -0.00324574 0.00423775)
(0.052403 -0.00686955 0.00580046)
(0.0313802 -0.00599722 0.00665974)
(0.0167762 -0.00440038 0.0070478)
(0.00233947 -0.0027999 0.00488885)
(-0.00689559 0.000510338 -0.00320716)
(0.00891579 -0.0167224 -0.00295641)
(0.0243039 -0.0114487 -0.00114089)
(0.033583 -0.00821414 -0.000687699)
(0.0388619 -0.00332426 -0.000736207)
(0.0387882 -0.000890694 -0.00141469)
(0.0371859 0.00316291 -0.0029286)
(0.0297317 0.00485222 -0.00274089)
(0.0228032 0.0105735 -0.00702313)
(0.00507002 0.0161763 -0.00438515)
(-0.0192558 0.0249609 -0.00808784)
(-0.0561728 0.0313152 0.000362534)
(-0.10423 0.0425526 -0.00401589)
(-0.156096 0.0632329 -0.00686104)
(-0.215383 0.0762143 -0.011078)
(-0.273214 0.0851647 -0.0181979)
(-0.355108 0.0929035 -0.043429)
(-0.459847 0.0951929 -0.0584058)
(-0.510236 0.100994 -0.0758727)
(-0.593371 0.0985504 -0.0991917)
(-0.545753 0.125747 -0.0992911)
(-0.408066 0.140661 -0.126853)
(-0.388378 0.185925 -0.137536)
(-0.371118 0.211245 -0.146612)
(-0.359025 0.236596 -0.157943)
(-0.321067 0.258375 -0.163975)
(-0.27062 0.279131 -0.165304)
(-0.2004 0.295105 -0.153691)
(-0.123537 0.300845 -0.13367)
(-0.0532515 0.307543 -0.109823)
(0.0128255 0.289561 -0.0755018)
(0.077194 0.259432 -0.0471807)
(0.113299 0.20938 -0.0387843)
(0.125437 0.159304 -0.0266394)
(0.119837 0.108311 -0.0127848)
(0.100487 0.0686292 -0.00524813)
(0.0804475 0.0400797 -0.000824794)
(0.0551525 0.0255234 0.000203419)
(0.0329919 0.015735 0.00178083)
(0.00818579 0.0073066 0.00221158)
(-0.000630547 -0.00714705 0.00149549)
(0.014955 -0.0230489 -0.00140326)
(0.0319649 -0.0181769 -0.00235685)
(0.0422108 -0.00587644 -0.00311695)
(0.0444714 0.00477427 -0.00504166)
(0.0417964 0.0160908 -0.00654953)
(0.034174 0.0315976 -0.00780868)
(0.0201089 0.0457119 -0.00953566)
(0.00407947 0.0696152 -0.00200553)
(-0.02629 0.0899368 -0.00477613)
(-0.064535 0.117255 -0.00814175)
(-0.117695 0.149867 -0.0133068)
(-0.172569 0.183568 -0.0173524)
(-0.251004 0.210963 -0.0321413)
(-0.350105 0.23005 -0.0349883)
(-0.446179 0.243657 -0.0422978)
(-0.533402 0.248427 -0.0587501)
(-0.620352 0.269261 -0.0768206)
(-0.665228 0.298548 -0.0945409)
(-0.732757 0.332069 -0.116263)
(-0.671343 0.370408 -0.108528)
(-0.50743 0.399155 -0.123911)
(-0.464107 0.455944 -0.126394)
(-0.436079 0.48819 -0.12346)
(-0.414826 0.520308 -0.125736)
(-0.372901 0.542582 -0.123979)
(-0.321982 0.556628 -0.119467)
(-0.2572 0.560507 -0.104674)
(-0.189766 0.550464 -0.0829827)
(-0.125389 0.530971 -0.0593182)
(-0.0690042 0.500993 -0.0399638)
(-0.0265643 0.452625 -0.0277833)
(0.00788881 0.379763 -0.0159105)
(0.0304998 0.307251 -0.00810976)
(0.0421231 0.227566 -0.0110316)
(0.0480962 0.162592 -0.010863)
(0.0478197 0.114503 -0.00707414)
(0.0386576 0.0770975 -0.00481419)
(0.0273823 0.0510139 -0.00102954)
(0.00809148 0.0242118 0.00183671)
(0.000266737 -0.0116599 0.00237381)
(0.0170943 -0.0251107 -0.00112058)
(0.0384469 -0.0121659 -0.00280278)
(0.0464229 0.00593 -0.00619982)
(0.0440786 0.0297178 -0.00679735)
(0.0393559 0.05488 -0.0087928)
(0.0261845 0.0901544 -0.00872336)
(0.00680699 0.122716 -0.00550626)
(-0.0203684 0.167678 -0.0104995)
(-0.0658017 0.207969 -0.0128459)
(-0.111772 0.251977 -0.0170919)
(-0.177024 0.286742 -0.0243687)
(-0.263444 0.314452 -0.0268125)
(-0.354765 0.330532 -0.0287705)
(-0.441254 0.351736 -0.0310286)
(-0.520127 0.376451 -0.0367167)
(-0.591458 0.406297 -0.051026)
(-0.665078 0.43559 -0.0603059)
(-0.695656 0.475621 -0.0695004)
(-0.748426 0.518951 -0.0773035)
(-0.675566 0.552708 -0.0505089)
(-0.491094 0.572313 -0.0465013)
(-0.433646 0.61496 -0.0414695)
(-0.406173 0.623732 -0.0294941)
(-0.386427 0.636769 -0.0264484)
(-0.353847 0.637944 -0.0211652)
(-0.314694 0.630315 -0.0177037)
(-0.266836 0.612245 -0.0104343)
(-0.216992 0.586888 0.0013887)
(-0.172302 0.554992 0.00858544)
(-0.1404 0.515331 0.0139014)
(-0.116168 0.471367 0.0123866)
(-0.0930949 0.414916 0.0069552)
(-0.0709604 0.350545 -0.00129917)
(-0.0485743 0.271018 -0.0050619)
(-0.0197306 0.202252 -0.010208)
(0.000255537 0.146799 -0.0103148)
(0.0091415 0.110331 -0.00770818)
(0.0172028 0.0768033 -0.00322704)
(0.00644335 0.0361657 0.00151366)
(0.00077994 -0.0122198 0.000780407)
(0.0234061 -0.0148273 -0.00446575)
(0.0468337 0.00276786 -0.00697615)
(0.0548924 0.0378276 -0.00809264)
(0.0520497 0.0765131 -0.00722565)
(0.0459558 0.12261 -0.0149214)
(0.0265691 0.178498 -0.0121808)
(-0.00081214 0.237346 -0.00587035)
(-0.0336406 0.292132 -0.00768488)
(-0.0877699 0.33624 -0.00975689)
(-0.151021 0.370262 -0.0124766)
(-0.230918 0.389446 -0.0151297)
(-0.304209 0.41208 -0.0160414)
(-0.378381 0.438457 -0.0212793)
(-0.452146 0.469284 -0.0197005)
(-0.519154 0.501921 -0.0211907)
(-0.577178 0.529864 -0.0243448)
(-0.631108 0.566618 -0.0211933)
(-0.642376 0.609703 -0.0173913)
(-0.681559 0.65472 -0.0260677)
(-0.609466 0.682938 0.00142636)
(-0.418503 0.688719 0.0146807)
(-0.357095 0.702194 0.0256211)
(-0.338653 0.678858 0.0365102)
(-0.33072 0.661222 0.037565)
(-0.317514 0.635964 0.0435886)
(-0.298742 0.603713 0.0448431)
(-0.269153 0.567772 0.0489044)
(-0.239951 0.527071 0.0422681)
(-0.215439 0.488178 0.0345292)
(-0.194892 0.444022 0.0246133)
(-0.185496 0.411131 0.0172282)
(-0.178134 0.375032 0.00937334)
(-0.17349 0.344218 -0.00252622)
(-0.151771 0.279038 -0.0128482)
(-0.103472 0.208632 -0.0139245)
(-0.0520585 0.160561 -0.0133725)
(-0.0166495 0.129884 -0.0114469)
(0.00299314 0.0952514 -0.00579829)
(0.00356209 0.045391 0.00147612)
(0.0055169 -0.00806155 -0.000305652)
(0.028862 0.000122102 -0.00569866)
(0.0612601 0.0260731 -0.00559009)
(0.0744056 0.0781118 -0.00944248)
(0.0681458 0.135936 -0.014317)
(0.0637419 0.200461 -0.0183507)
(0.0456718 0.275664 -0.0136898)
(0.00802899 0.325134 -0.00368661)
(-0.0473794 0.368245 -0.00526014)
(-0.119165 0.401258 -0.00712386)
(-0.186254 0.430886 -0.00918546)
(-0.249328 0.460335 -0.00938241)
(-0.308896 0.494989 -0.00751881)
(-0.366724 0.522794 -0.00461658)
(-0.418088 0.553014 0.00162328)
(-0.469414 0.581468 0.00658075)
(-0.503551 0.61195 0.00840395)
(-0.537796 0.643872 0.00858323)
(-0.543963 0.689645 0.0105526)
(-0.570693 0.723348 0.00883972)
(-0.501093 0.747955 0.0350632)
(-0.326511 0.699761 0.0499539)
(-0.281402 0.682355 0.0602341)
(-0.284333 0.628492 0.0736708)
(-0.291741 0.586801 0.0767703)
(-0.296926 0.545112 0.0770358)
(-0.294451 0.501939 0.0743785)
(-0.285112 0.461153 0.0684108)
(-0.269915 0.414098 0.0660292)
(-0.25941 0.376446 0.0456558)
(-0.249682 0.333513 0.0347989)
(-0.239239 0.303054 0.0206319)
(-0.225934 0.278201 0.00893381)
(-0.234463 0.265629 -0.00269027)
(-0.239862 0.241516 -0.0152681)
(-0.174531 0.192606 -0.0138783)
(-0.0925853 0.161484 -0.0149812)
(-0.0403292 0.134977 -0.0117703)
(-0.00450445 0.103293 -0.00666143)
(0.00255544 0.0486361 0.00199843)
(0.00794788 -0.00251328 0.000649072)
(0.0386608 0.0121441 -0.0100006)
(0.0811072 0.05226 -0.00966515)
(0.105596 0.106904 -0.0113741)
(0.10117 0.169955 -0.0149257)
(0.0980257 0.244956 -0.0178551)
(0.0527826 0.304556 -0.00951345)
(-0.0125865 0.336551 0.00251749)
(-0.0601725 0.380022 -0.00239821)
(-0.116899 0.421081 -0.00309168)
(-0.165998 0.467294 -0.00321336)
(-0.217025 0.509508 -0.00145999)
(-0.263758 0.548132 0.0017218)
(-0.310431 0.581694 0.00707615)
(-0.350862 0.614132 0.014384)
(-0.385213 0.639338 0.0199417)
(-0.409889 0.666111 0.0258219)
(-0.426626 0.679207 0.0292595)
(-0.420349 0.704066 0.0260723)
(-0.441749 0.719072 0.017089)
(-0.430865 0.73772 0.0319087)
(-0.290163 0.63291 0.0531364)
(-0.231362 0.583719 0.0573344)
(-0.25114 0.523486 0.0703515)
(-0.268452 0.480393 0.0712484)
(-0.289974 0.442608 0.0711196)
(-0.303293 0.407042 0.0673179)
(-0.310347 0.373152 0.0605551)
(-0.308585 0.336614 0.0478641)
(-0.30974 0.302572 0.0326523)
(-0.306997 0.269975 0.0197058)
(-0.298963 0.242202 0.00770313)
(-0.286313 0.223006 -0.00168569)
(-0.283709 0.207346 -0.00844674)
(-0.28759 0.217746 -0.0178113)
(-0.226477 0.193073 -0.0205511)
(-0.127354 0.166597 -0.0217499)
(-0.0559124 0.145941 -0.0167608)
(-0.00978206 0.11193 -0.0106036)
(0.00245863 0.0531699 0.000258033)
(0.00718056 0.00486447 -0.00316934)
(0.0453497 0.03136 -0.0133614)
(0.0995851 0.0806034 -0.0136651)
(0.124823 0.136085 -0.0109535)
(0.128945 0.19461 -0.0118614)
(0.112821 0.26615 -0.0120154)
(0.0514192 0.295048 -0.00096855)
(0.00345558 0.347436 0.00528046)
(-0.0310152 0.394189 0.00143986)
(-0.0810256 0.44755 0.00284376)
(-0.12348 0.491309 0.00389944)
(-0.166194 0.528377 0.00998323)
(-0.20222 0.561349 0.0160905)
(-0.233005 0.588205 0.0235854)
(-0.261293 0.613151 0.028057)
(-0.289476 0.628508 0.0321982)
(-0.309104 0.639606 0.0348357)
(-0.327237 0.640295 0.0341099)
(-0.326352 0.634778 0.0310678)
(-0.342221 0.61544 0.0145869)
(-0.382651 0.618602 0.0155621)
(-0.29376 0.540074 0.0343142)
(-0.21991 0.457108 0.0370376)
(-0.240056 0.417637 0.0485035)
(-0.26458 0.380902 0.0525378)
(-0.295727 0.356594 0.0540449)
(-0.31928 0.330196 0.0550427)
(-0.337258 0.304819 0.048142)
(-0.346706 0.276657 0.0392629)
(-0.354903 0.246803 0.0174961)
(-0.356488 0.21525 0.00951191)
(-0.347225 0.190811 0.00034458)
(-0.333268 0.177678 -0.0076856)
(-0.317577 0.169549 -0.0114423)
(-0.325762 0.191165 -0.0209225)
(-0.276429 0.196183 -0.0206634)
(-0.161316 0.171976 -0.0224451)
(-0.074307 0.15509 -0.0176107)
(-0.0148927 0.119171 -0.0102834)
(0.00360609 0.0567959 0.00102246)
(0.00624635 0.0155757 -0.00574732)
(0.0534867 0.0618681 -0.0179373)
(0.119373 0.118256 -0.0193877)
(0.15087 0.173488 -0.0132152)
(0.158342 0.234972 -0.0141837)
(0.126189 0.283693 -0.0112184)
(0.0694239 0.321545 -0.00225675)
(0.0320134 0.378184 0.00521243)
(0.00369934 0.416092 0.0112461)
(-0.0314216 0.456586 0.011154)
(-0.0711156 0.494824 0.0153814)
(-0.102605 0.521505 0.0208945)
(-0.128683 0.544107 0.0279471)
(-0.153756 0.55668 0.0341076)
(-0.177566 0.560814 0.0362207)
(-0.202785 0.557562 0.036789)
(-0.225332 0.550637 0.0355349)
(-0.251881 0.535941 0.0309386)
(-0.272859 0.522045 0.0248641)
(-0.291798 0.491721 0.00995421)
(-0.343827 0.480775 -0.000259278)
(-0.316712 0.451967 0.0101068)
(-0.240267 0.353404 0.0187291)
(-0.238879 0.336685 0.024825)
(-0.268834 0.310795 0.0327122)
(-0.303667 0.296597 0.037181)
(-0.336725 0.278564 0.0423667)
(-0.361982 0.256655 0.0387386)
(-0.381667 0.232977 0.0240944)
(-0.399186 0.19999 0.00919296)
(-0.402155 0.175512 -0.000607682)
(-0.389653 0.152534 -0.00588937)
(-0.374674 0.139034 -0.0117716)
(-0.347921 0.14049 -0.0195999)
(-0.338413 0.15344 -0.0235814)
(-0.305689 0.190698 -0.0284809)
(-0.196931 0.174132 -0.0264752)
(-0.0896575 0.164202 -0.0245614)
(-0.019899 0.128892 -0.0136488)
(0.00448593 0.0626365 -0.00115279)
(0.00770907 0.0322434 -0.00870913)
(0.0625242 0.100853 -0.025655)
(0.137562 0.16144 -0.0248339)
(0.176016 0.215077 -0.0153133)
(0.176869 0.267611 -0.0147787)
(0.144478 0.300243 -0.0135185)
(0.102694 0.348185 -0.0029272)
(0.0700128 0.394657 0.00908297)
(0.0392248 0.431742 0.0158195)
(0.0150869 0.458471 0.0262793)
(-0.0120616 0.480576 0.0230872)
(-0.0432075 0.493691 0.0334602)
(-0.0661515 0.502026 0.0383932)
(-0.0892732 0.49251 0.0439503)
(-0.112975 0.477228 0.0436184)
(-0.139653 0.454386 0.0404589)
(-0.167247 0.430901 0.0352292)
(-0.197857 0.40569 0.0277989)
(-0.228256 0.389194 0.0194359)
(-0.261299 0.371698 0.00449912)
(-0.316271 0.357225 -0.00790878)
(-0.340144 0.356713 -0.00717609)
(-0.27118 0.291403 0.00757292)
(-0.236185 0.281701 0.0103893)
(-0.270067 0.264285 0.0208573)
(-0.304838 0.256471 0.0283817)
(-0.344296 0.237453 0.0374307)
(-0.376752 0.220635 0.0321736)
(-0.405076 0.190777 0.024739)
(-0.420913 0.164422 0.00968148)
(-0.426462 0.136472 0.0110352)
(-0.422323 0.115152 0.0174474)
(-0.402792 0.0957451 0.0144295)
(-0.378802 0.097609 0.00893615)
(-0.359184 0.111311 -0.0130811)
(-0.32842 0.159783 -0.0243095)
(-0.2273 0.171635 -0.0248813)
(-0.10704 0.164102 -0.0215095)
(-0.0257228 0.136687 -0.0126514)
(0.00559697 0.0668633 4.50328e-05)
(0.0087916 0.0538101 -0.0112806)
(0.0706623 0.143099 -0.0319274)
(0.155093 0.207535 -0.0311086)
(0.197798 0.255862 -0.0180055)
(0.195198 0.292927 -0.0118114)
(0.170156 0.327261 -0.013377)
(0.141325 0.367854 -0.00283927)
(0.110432 0.404729 0.00495277)
(0.0850114 0.432932 0.013201)
(0.0569833 0.453651 0.0288096)
(0.0285519 0.45835 0.0372126)
(0.0117901 0.459144 0.0471105)
(-0.0121385 0.4462 0.0468991)
(-0.042214 0.42515 0.0501016)
(-0.068692 0.396552 0.047913)
(-0.0999648 0.364983 0.0411182)
(-0.13261 0.335115 0.0327824)
(-0.16744 0.308381 0.0240262)
(-0.201502 0.29329 0.0154154)
(-0.240867 0.278275 0.00239651)
(-0.293478 0.270498 -0.00727312)
(-0.332307 0.275192 -0.0114119)
(-0.274698 0.25974 0.000838403)
(-0.229763 0.245492 0.00125161)
(-0.258432 0.233516 0.0136689)
(-0.296852 0.221657 0.0224371)
(-0.341432 0.206301 0.0316121)
(-0.378677 0.183736 0.0299405)
(-0.41077 0.157809 0.0195346)
(-0.434207 0.128283 0.0303296)
(-0.448529 0.0938794 0.0315843)
(-0.450524 0.0656468 0.0185588)
(-0.437282 0.0516538 0.0132772)
(-0.403831 0.0483142 0.00567896)
(-0.366608 0.0635922 -0.000318322)
(-0.335943 0.109794 -0.0221436)
(-0.25113 0.150949 -0.0284224)
(-0.124521 0.160172 -0.0235265)
(-0.0285848 0.140482 -0.0150136)
(0.00486206 0.0710986 -0.00158602)
(0.0094749 0.0731789 -0.0119154)
(0.0767204 0.184209 -0.0357841)
(0.167815 0.251203 -0.0341932)
(0.210816 0.28788 -0.0176365)
(0.214649 0.316518 -0.00986415)
(0.19947 0.348475 -0.0069145)
(0.176198 0.37981 -0.00532939)
(0.149296 0.404066 0.00806675)
(0.122623 0.423742 0.0129415)
(0.0984589 0.432109 0.0251793)
(0.0754582 0.434759 0.0364777)
(0.0471279 0.423378 0.0518547)
(0.0220153 0.396632 0.0554459)
(-0.00272633 0.362566 0.0548109)
(-0.0350377 0.331066 0.0482299)
(-0.0696867 0.298063 0.0381445)
(-0.106971 0.271242 0.0271544)
(-0.141507 0.249416 0.0182074)
(-0.180021 0.240921 0.00866235)
(-0.223757 0.229149 -0.000120859)
(-0.270575 0.227437 -0.00784209)
(-0.306078 0.229815 -0.0113928)
(-0.257117 0.241957 -0.00234414)
(-0.212905 0.223388 -0.00306189)
(-0.239172 0.206477 0.00874571)
(-0.274899 0.189834 0.0182788)
(-0.322612 0.17185 0.0256471)
(-0.363513 0.148887 0.0212545)
(-0.400088 0.121477 0.0379509)
(-0.433136 0.0868115 0.0452576)
(-0.45508 0.0537539 0.040195)
(-0.456709 0.0281261 0.0512099)
(-0.449626 0.00481272 0.0398706)
(-0.433282 0.00121542 0.0341373)
(-0.396555 0.0108441 0.0249264)
(-0.352523 0.0575302 0.00385948)
(-0.263882 0.112028 -0.0249942)
(-0.138462 0.148479 -0.0249799)
(-0.0346113 0.138986 -0.0143201)
(0.00598854 0.0743584 -0.00154482)
(0.0101382 0.0936191 -0.0113367)
(0.0805637 0.224041 -0.0384931)
(0.172248 0.291699 -0.037297)
(0.221369 0.320414 -0.0187309)
(0.236302 0.342688 -0.00589644)
(0.228536 0.366003 0.000209785)
(0.20744 0.387561 0.00465614)
(0.18279 0.401464 0.00563854)
(0.161401 0.410666 0.0162815)
(0.137898 0.412087 0.0263675)
(0.110901 0.402353 0.0356904)
(0.0841042 0.383013 0.0426268)
(0.0509276 0.354451 0.0553085)
(0.0204689 0.317513 0.0551861)
(-0.00835837 0.27806 0.0468911)
(-0.0457051 0.251647 0.0329084)
(-0.0843408 0.226962 0.0210496)
(-0.118066 0.211486 0.0127359)
(-0.156807 0.204463 0.00364389)
(-0.199209 0.199031 -0.00158752)
(-0.240394 0.198755 -0.00773966)
(-0.261223 0.204166 -0.00843109)
(-0.219517 0.234812 -0.00264598)
(-0.19363 0.209169 -0.00345523)
(-0.212792 0.180898 0.00512369)
(-0.247033 0.157811 0.0134031)
(-0.292037 0.132631 0.0181948)
(-0.334988 0.110324 0.0309056)
(-0.379324 0.0776443 0.0435121)
(-0.416964 0.0465132 0.0466875)
(-0.439857 0.0138122 0.0661985)
(-0.465945 -0.0237354 0.0469471)
(-0.47334 -0.0648602 0.0353044)
(-0.45583 -0.0856149 0.0141744)
(-0.415563 -0.073034 0.00441646)
(-0.370765 -0.0242668 0.00902648)
(-0.285076 0.0608677 -0.00236461)
(-0.152654 0.117249 -0.0310918)
(-0.0395479 0.131611 -0.0144176)
(0.00631631 0.075864 -0.00312253)
(0.00914579 0.100009 -0.0104111)
(0.0789683 0.24767 -0.0406953)
(0.1728 0.319002 -0.0414173)
(0.227689 0.344977 -0.0218752)
(0.253327 0.358808 -0.00346989)
(0.252727 0.369442 0.00636724)
(0.233663 0.380986 0.0125158)
(0.210794 0.389232 0.0160733)
(0.190466 0.39438 0.0190352)
(0.167638 0.388592 0.0231078)
(0.143638 0.3737 0.0293035)
(0.111911 0.349012 0.0398542)
(0.0781186 0.316137 0.0418473)
(0.0416619 0.282643 0.0496376)
(0.0112203 0.244802 0.0445692)
(-0.0209754 0.215251 0.0259189)
(-0.0624405 0.196499 0.0153582)
(-0.0926232 0.184008 0.00809527)
(-0.128804 0.177593 0.000263746)
(-0.167398 0.173791 -0.0026921)
(-0.199273 0.172526 -0.00582288)
(-0.196391 0.198073 -0.00113928)
(-0.171125 0.215741 -0.00218637)
(-0.175267 0.18735 -0.0014136)
(-0.190769 0.15421 0.0025262)
(-0.215371 0.12015 0.00946867)
(-0.254673 0.0959786 0.0140389)
(-0.296644 0.0664317 0.0319986)
(-0.340859 0.0396029 0.0397188)
(-0.379047 0.00943343 0.0608148)
(-0.42747 -0.0325491 0.0453452)
(-0.469218 -0.0859605 0.0382829)
(-0.487025 -0.12959 0.0245169)
(-0.474936 -0.161789 0.0138587)
(-0.434322 -0.164895 -0.00576316)
(-0.373268 -0.123372 -0.00686266)
(-0.291095 -0.0209648 -0.00062137)
(-0.171399 0.0765791 -0.0168798)
(-0.0435969 0.117611 -0.0199511)
(0.00723888 0.0762075 -0.00208208)
(0.00793853 0.110502 -0.00888877)
(0.0772576 0.272739 -0.0404799)
(0.171774 0.348732 -0.0430207)
(0.233145 0.372149 -0.0230226)
(0.265394 0.378201 -0.00258552)
(0.270611 0.376152 0.0116444)
(0.259358 0.378778 0.0209353)
(0.242094 0.380924 0.0236138)
(0.222911 0.378825 0.0262711)
(0.198445 0.366911 0.0279451)
(0.170641 0.347106 0.0297307)
(0.138765 0.316885 0.0275704)
(0.101526 0.285136 0.0298581)
(0.062937 0.248434 0.0309384)
(0.027057 0.221495 0.032439)
(-0.00388124 0.18848 0.0192589)
(-0.0361774 0.172408 0.0093876)
(-0.0659635 0.164393 0.00389306)
(-0.0977599 0.152229 -0.00204715)
(-0.13101 0.150538 -0.00273593)
(-0.135885 0.164002 0.000638971)
(-0.131161 0.186622 0.0019616)
(-0.13578 0.179655 0.00156098)
(-0.152522 0.15464 0.000865089)
(-0.168918 0.126077 0.00266777)
(-0.185166 0.0884639 0.00576529)
(-0.215927 0.0608861 0.0179595)
(-0.252592 0.0311755 0.0271927)
(-0.290574 0.00344624 0.0462245)
(-0.344321 -0.0363261 0.0398167)
(-0.400401 -0.0891462 0.0379505)
(-0.448808 -0.14103 0.0283214)
(-0.479102 -0.193454 0.0180642)
(-0.483432 -0.234052 0.00305878)
(-0.449695 -0.252994 -0.0110963)
(-0.384083 -0.221564 -0.0204022)
(-0.293794 -0.131935 -0.0185208)
(-0.17852 0.014772 0.000828376)
(-0.0536859 0.0943889 -0.0269098)
(0.00643873 0.0775182 -0.00338955)
(0.00563517 0.0905818 -0.00799794)
(0.0714131 0.266829 -0.0397251)
(0.166165 0.348776 -0.0417415)
(0.232187 0.372023 -0.0222012)
(0.27146 0.372228 0.000967915)
(0.285457 0.365747 0.0149874)
(0.281122 0.36428 0.0206697)
(0.263811 0.358881 0.023935)
(0.243098 0.351481 0.0260772)
(0.219124 0.338463 0.0267021)
(0.19218 0.318123 0.0261796)
(0.15916 0.291769 0.0226118)
(0.121822 0.258531 0.0186759)
(0.0852555 0.226301 0.0126169)
(0.0487128 0.198872 0.0171017)
(0.0161888 0.17498 0.00955338)
(-0.00850886 0.157303 0.00397478)
(-0.0380685 0.144941 -0.00210414)
(-0.0659607 0.138921 -0.0026122)
(-0.0736541 0.146683 0.000649728)
(-0.0754687 0.16013 0.00312625)
(-0.0879513 0.155117 0.00512168)
(-0.104456 0.142313 0.00465452)
(-0.124984 0.120713 0.00395482)
(-0.145932 0.0998509 0.0042302)
(-0.160565 0.0643346 0.00618432)
(-0.181406 0.0319989 0.0164707)
(-0.211801 0.00302079 0.0303651)
(-0.254577 -0.0325532 0.0294233)
(-0.308967 -0.0772468 0.0328155)
(-0.364523 -0.125162 0.0295741)
(-0.417178 -0.181619 0.0256289)
(-0.455213 -0.240335 0.0161214)
(-0.471426 -0.295225 0.00292342)
(-0.450025 -0.32763 -0.0139138)
(-0.391575 -0.317403 -0.0273223)
(-0.288226 -0.237448 -0.0314127)
(-0.177057 -0.0845986 -0.0198978)
(-0.0572513 0.0500593 -0.01945)
(0.00851557 0.0657331 -0.00879117)
(0.00507634 0.10412 -0.00530844)
(0.0684079 0.286306 -0.0359105)
(0.161947 0.372133 -0.0408289)
(0.234206 0.393496 -0.019883)
(0.28291 0.388585 0.00458665)
(0.307268 0.374072 0.0145209)
(0.307342 0.363019 0.0211787)
(0.292081 0.350893 0.0226712)
(0.274279 0.33915 0.0210395)
(0.249356 0.319515 0.0179785)
(0.221032 0.293749 0.0148914)
(0.18526 0.262809 0.0100649)
(0.144042 0.231812 0.00623288)
(0.10583 0.201781 0.0029213)
(0.0690506 0.180683 0.00226954)
(0.0391821 0.165804 -7.90559e-05)
(0.012944 0.156918 -0.00319744)
(-0.00570929 0.148885 -0.0022746)
(-0.0147358 0.152131 -0.00123317)
(-0.0247076 0.152826 0.00160818)
(-0.0384435 0.141527 0.0044248)
(-0.0568226 0.12594 0.00700862)
(-0.0754899 0.10939 0.00684509)
(-0.0967347 0.091153 0.00615918)
(-0.122063 0.0726663 0.00782405)
(-0.141899 0.0498654 0.0049924)
(-0.155599 0.0125959 0.00911362)
(-0.182455 -0.0208474 0.0121915)
(-0.221352 -0.0635364 0.0176745)
(-0.26934 -0.10681 0.0194736)
(-0.323805 -0.157141 0.0209181)
(-0.377243 -0.215694 0.0186768)
(-0.420166 -0.279415 0.0130424)
(-0.445955 -0.345512 0.00160845)
(-0.437575 -0.394748 -0.0143955)
(-0.389411 -0.405809 -0.0313285)
(-0.297517 -0.340798 -0.0462645)
(-0.182902 -0.187057 -0.0344485)
(-0.057874 0.00754698 -0.00885817)
(0.0064 0.0683775 -0.0110763)
(-0.00503939 0.0766295 -0.0152977)
(0.0477808 0.268211 -0.0403961)
(0.142926 0.364113 -0.0463975)
(0.222441 0.386921 -0.0271459)
(0.280589 0.38313 -0.00668397)
(0.314362 0.361267 0.00588222)
(0.323562 0.343186 0.012126)
(0.310086 0.324648 0.0128614)
(0.28802 0.313722 0.0121429)
(0.25956 0.304051 0.00888527)
(0.230876 0.292573 0.00662058)
(0.198996 0.275015 0.0036202)
(0.163244 0.255694 0.00179398)
(0.131611 0.234581 0.000451811)
(0.102811 0.21509 0.00294174)
(0.0761141 0.203715 -0.00174982)
(0.0548833 0.191878 -0.00777272)
(0.0376617 0.178528 -0.00495251)
(0.0204952 0.165933 -0.00440938)
(0.00050153 0.147082 -0.000282914)
(-0.0161523 0.124834 0.00417203)
(-0.0330603 0.103562 0.0066242)
(-0.0515899 0.084407 0.00690126)
(-0.0721774 0.0665185 0.00725327)
(-0.0941785 0.048292 0.00357052)
(-0.121212 0.0309151 0.00172592)
(-0.142825 0.0036231 0.00176551)
(-0.165654 -0.0316523 0.00136692)
(-0.201052 -0.0685679 0.00464737)
(-0.242718 -0.111586 0.00935635)
(-0.290398 -0.161873 0.012855)
(-0.338938 -0.226184 0.0135339)
(-0.381545 -0.300003 0.009755)
(-0.411214 -0.379836 0.00042557)
(-0.411363 -0.446125 -0.0137816)
(-0.371539 -0.477314 -0.0319214)
(-0.279615 -0.439228 -0.0545948)
(-0.166582 -0.307244 -0.0558153)
(-0.0457083 -0.0870069 -0.0208528)
(0.00937518 0.0366152 -0.00768102)
(-0.00604186 0.166898 -0.00764683)
(0.0435869 0.376654 -0.0227277)
(0.131904 0.476429 -0.0333871)
(0.213532 0.499312 -0.0134856)
(0.278932 0.487855 -0.00542994)
(0.320385 0.457463 0.0117304)
(0.338452 0.422132 0.0150909)
(0.33698 0.407139 0.0168547)
(0.332691 0.408993 0.0121887)
(0.312566 0.406271 0.00675561)
(0.282403 0.394476 0.000972847)
(0.244006 0.370638 -0.00318139)
(0.201044 0.33893 -0.00635439)
(0.1594 0.305888 -0.00638434)
(0.126268 0.271606 -0.00536651)
(0.0994418 0.241069 -0.00211279)
(0.0690075 0.213315 -0.0077958)
(0.0489592 0.187529 -0.00873709)
(0.035416 0.156555 -0.00646125)
(0.0160392 0.132031 -0.00370776)
(-0.000719128 0.110645 0.00128856)
(-0.016686 0.0861418 0.00516508)
(-0.0321938 0.066246 0.00618595)
(-0.0517474 0.0454687 0.0085352)
(-0.0739199 0.0271999 0.00151057)
(-0.0974349 0.0086417 0.00513283)
(-0.120499 -0.00550471 0.00400883)
(-0.144395 -0.0316449 -0.000627271)
(-0.173846 -0.0691805 -0.00581612)
(-0.213338 -0.117964 -0.00825441)
(-0.26187 -0.169642 -0.00707958)
(-0.312157 -0.230101 -0.00464654)
(-0.355948 -0.297209 -0.00198674)
(-0.386637 -0.38162 -0.00648016)
(-0.390569 -0.462815 -0.0197445)
(-0.366394 -0.527631 -0.0477723)
(-0.301478 -0.520308 -0.0739182)
(-0.192755 -0.395442 -0.0699719)
(-0.0548843 -0.156271 -0.0422552)
(0.0103356 0.0339861 -0.00624791)
(-0.018871 0.251267 -0.0228905)
(0.0172048 0.492466 -0.0441385)
(0.106481 0.602679 -0.0528211)
(0.190781 0.643826 -0.0395783)
(0.261577 0.636256 -0.0285983)
(0.308152 0.609052 -0.0133093)
(0.346399 0.566474 -0.00245359)
(0.372981 0.539119 -0.00204199)
(0.366298 0.519748 -0.006773)
(0.328836 0.491564 -0.00972424)
(0.283864 0.45546 -0.0105591)
(0.235877 0.41183 -0.0110978)
(0.192447 0.363111 -0.0103144)
(0.156609 0.316512 -0.00897898)
(0.126193 0.272516 -0.00698255)
(0.101413 0.233192 -0.00410857)
(0.0827326 0.19791 -0.000370566)
(0.0611931 0.171072 -0.00549409)
(0.0439337 0.143596 -0.00561549)
(0.0324641 0.116894 -0.00413678)
(0.0142226 0.0936795 -0.00167033)
(-0.00259093 0.0738177 0.00279685)
(-0.0180527 0.0487268 0.00560835)
(-0.0366482 0.0300892 0.00628658)
(-0.0541475 0.0118679 0.00529716)
(-0.0725625 -0.0040925 0.00936357)
(-0.0944079 -0.018876 0.00850844)
(-0.129215 -0.0366201 0.00489127)
(-0.170645 -0.0625656 0.00435332)
(-0.203515 -0.103627 0.0037994)
(-0.234221 -0.154074 0.000354246)
(-0.262916 -0.227319 -0.00632888)
(-0.297523 -0.318068 -0.0161757)
(-0.332449 -0.440032 -0.0247529)
(-0.353578 -0.554787 -0.0341254)
(-0.345898 -0.659865 -0.0543633)
(-0.278072 -0.690041 -0.0789475)
(-0.184352 -0.581826 -0.0885909)
(-0.0633343 -0.298748 -0.0626705)
(0.0106974 -0.00929576 -0.0100734)
(-0.000181289 0.217388 0.00184903)
(0.037158 0.459804 -0.0345575)
(0.10967 0.584369 -0.0465732)
(0.192319 0.639716 -0.0421256)
(0.261294 0.643255 -0.0330751)
(0.310427 0.622622 -0.0224761)
(0.347123 0.586631 -0.0150156)
(0.370768 0.546327 -0.00701345)
(0.36623 0.504795 -0.00807331)
(0.330666 0.466815 -0.0072876)
(0.287073 0.428227 -0.00677871)
(0.239018 0.388082 -0.0055066)
(0.194866 0.344824 -0.00479936)
(0.157713 0.303363 -0.00351541)
(0.129909 0.261021 -0.00369145)
(0.108976 0.223203 -0.00171021)
(0.0881058 0.185808 -0.00168803)
(0.073818 0.154227 0.000657937)
(0.058355 0.131006 -9.59892e-05)
(0.0407473 0.104726 -0.00332561)
(0.0286935 0.0838021 -0.0012044)
(0.0091982 0.0609932 0.000322188)
(-0.00593541 0.0425466 0.00831529)
(-0.018333 0.0214359 0.00671738)
(-0.0358356 0.0045196 0.00605894)
(-0.0523368 -0.0117198 0.0092052)
(-0.0707414 -0.0287158 0.0104692)
(-0.0960303 -0.0457355 0.00889997)
(-0.134211 -0.056221 0.0051957)
(-0.176646 -0.0732112 0.00417334)
(-0.22785 -0.104416 0.00476318)
(-0.283126 -0.161155 0.00738583)
(-0.33603 -0.242706 0.00933201)
(-0.357665 -0.361643 0.0059551)
(-0.351722 -0.492668 -0.00342248)
(-0.334854 -0.634576 -0.017223)
(-0.271989 -0.722159 -0.0360452)
(-0.163077 -0.704768 -0.0582593)
(-0.0321695 -0.443021 -0.0583776)
(0.0217356 -0.0792455 0.000985791)
(-8.14219e-05 0.23504 1.02749e-05)
(0.0362847 0.452527 -0.0293602)
(0.103601 0.575313 -0.0398782)
(0.179913 0.631656 -0.0375434)
(0.247537 0.637132 -0.0233067)
(0.29821 0.615204 -0.0167859)
(0.339826 0.576702 -0.00749305)
(0.36612 0.53699 -0.00170648)
(0.362725 0.491416 -0.00145239)
(0.3297 0.452866 -0.000796298)
(0.284603 0.412517 -0.000511004)
(0.23535 0.371264 -0.000137565)
(0.193444 0.329843 -0.000217781)
(0.159578 0.290307 -0.000518308)
(0.13208 0.251202 -0.000600359)
(0.110552 0.212145 0.000319561)
(0.0956365 0.17447 0.00137281)
(0.0853887 0.140928 0.00254591)
(0.0703135 0.114311 0.0023406)
(0.0581965 0.0917622 0.00470394)
(0.0408551 0.0722029 0.00108312)
(0.0246607 0.0528456 0.000720395)
(0.0100588 0.0345722 0.00458417)
(-0.00673702 0.0178336 0.00588981)
(-0.0178131 -0.00331017 0.00691951)
(-0.0332217 -0.0195404 0.00822953)
(-0.0505668 -0.0388866 0.00975779)
(-0.0704581 -0.0592271 0.0105808)
(-0.0988574 -0.0769741 0.0105586)
(-0.132836 -0.0949722 0.00883973)
(-0.174454 -0.113701 0.00897833)
(-0.21524 -0.145488 0.0087624)
(-0.270544 -0.18649 0.00920775)
(-0.317523 -0.258552 0.00977847)
(-0.349113 -0.36185 0.00698784)
(-0.363411 -0.508556 0.0024986)
(-0.330706 -0.622072 -0.00988673)
(-0.230811 -0.656147 -0.0320882)
(-0.0606996 -0.448007 -0.0463972)
(0.0255681 -0.0441252 -0.0215311)
(0.00653674 0.207193 5.42869e-05)
(0.0440553 0.404871 -0.0240944)
(0.104398 0.535161 -0.0331165)
(0.177862 0.596441 -0.0322487)
(0.243231 0.612105 -0.0197554)
(0.293464 0.593744 -0.0124087)
(0.337059 0.557915 -0.00306867)
(0.361147 0.514756 0.00194914)
(0.3584 0.465441 0.00272424)
(0.328721 0.423287 0.00293363)
(0.28352 0.382136 0.00350442)
(0.236927 0.344369 0.00400189)
(0.19736 0.308105 0.00356269)
(0.164306 0.272211 0.00326101)
(0.137318 0.23592 0.00250428)
(0.116919 0.199973 0.00279708)
(0.0995839 0.166067 0.00356354)
(0.0934345 0.131189 0.00590927)
(0.0854743 0.104189 0.00568141)
(0.0713367 0.0796629 0.0050518)
(0.0595235 0.0639444 0.00557919)
(0.0394368 0.0443536 0.00486234)
(0.0259698 0.0290827 0.0037632)
(0.0109055 0.0120191 0.00306256)
(-0.00482302 -0.0042288 0.00685167)