/*--------------------------------*- C++ -*----------------------------------*\
| =========                 |                                                 |
| \\      /  F ield         | OpenFOAM: The Open Source CFD Toolbox           |
|  \\    /   O peration     | Version:  v1806                                 |
|   \\  /    A nd           | Web:      www.OpenFOAM.com                      |
|    \\/     M anipulation  |                                                 |
\*---------------------------------------------------------------------------*/
FoamFile
{
    version     2.0;
    format      ascii;
    class       surfaceScalarField;
    location    "0.088";
    object      phi;
}
// * * * * * * * * * * * * * * * * * * * * * * * * * * * * * * * * * * * * * //

dimensions      [0 3 -1 0 0 0 0];
oriented        oriented;


internalField   nonuniform List<scalar> 
187200
(
7.48828e-06
2.50825e-06
-9.99795e-06
5.32389e-05
-2.31136e-05
-2.2637e-05
7.57044e-05
-1.06169e-05
-1.18485e-05
9.4942e-05
-9.48978e-06
-9.74766e-06
0.000110573
-5.89607e-06
-9.73464e-06
0.000127611
-5.11368e-06
-1.19246e-05
0.000142786
-8.51097e-07
-1.43235e-05
0.000159637
5.66585e-07
-1.74172e-05
0.000173135
5.20647e-06
-1.87041e-05
0.000185364
6.81107e-06
-1.90409e-05
0.000197532
7.64718e-06
-1.98144e-05
0.000205854
1.25603e-05
-2.0883e-05
0.000198062
2.18692e-05
-1.40776e-05
0.00017078
3.61007e-05
-8.81915e-06
0.000126588
4.48281e-05
-6.369e-07
8.86566e-05
2.93267e-05
8.60424e-06
3.61689e-05
3.19857e-05
2.05017e-05
-1.50957e-05
4.53847e-05
5.87992e-06
-0.000111754
9.92558e-05
-2.59727e-06
-0.000247968
0.000138935
-2.72178e-06
-0.000505918
0.000228812
2.91384e-05
-0.000693675
0.000236786
-4.90306e-05
-0.000829052
0.000283518
-0.000148141
-0.000874949
0.000308393
-0.000262496
-0.000860191
0.000339046
-0.000353804
-0.00079125
0.000367657
-0.000436598
-0.000680674
0.000392811
-0.000503386
-0.000540731
0.000408588
-0.000548531
-0.000374363
0.000402261
-0.00056863
-0.000208321
0.000386062
-0.000552104
-7.46232e-05
0.000344861
-0.00047856
1.32267e-05
0.000298752
-0.000386603
4.85316e-05
0.000237435
-0.00027274
4.40256e-05
0.000174557
-0.000170052
2.19631e-05
0.000120685
-9.86225e-05
1.97969e-06
8.10385e-05
-6.10548e-05
-8.24445e-06
5.51546e-05
-4.49306e-05
-1.1941e-05
4.2669e-05
-3.89726e-05
-1.04154e-05
3.30406e-05
-3.45661e-05
2.32687e-05
-3.36848e-05
3.62179e-06
1.72638e-05
-1.83773e-05
4.5174e-05
-3.24264e-05
-3.22393e-05
8.71203e-05
-2.49577e-05
-2.76053e-05
0.000118046
-1.44418e-05
-2.5974e-05
0.00014032
-3.3824e-06
-2.47871e-05
0.000157216
6.90204e-06
-2.89112e-05
0.000165161
2.62693e-05
-3.50645e-05
0.000168948
3.79353e-05
-4.11564e-05
0.000162536
6.30544e-05
-5.14356e-05
0.000145921
8.16273e-05
-5.82013e-05
0.000104545
0.000124576
-7.55533e-05
4.11226e-05
0.000166319
-9.03371e-05
-4.32858e-05
0.000202992
-9.6715e-05
-0.000145295
0.000245744
-0.000107636
-0.000268314
0.000300617
-0.00013277
-0.000448371
0.000374196
-0.000164814
-0.00062284
0.000450203
-0.000243749
-0.000807041
0.000532285
-0.0003027
-0.000971821
0.000635727
-0.000371692
-0.00113144
0.000738286
-0.000439737
-0.00128948
0.000866026
-0.000479173
-0.00139041
0.000942174
-0.000604454
-0.0014534
0.00104812
-0.000701617
-0.00144685
0.00109076
-0.000788918
-0.00136758
0.00113521
-0.000875437
-0.00122587
0.00115887
-0.000932928
-0.00103385
0.00116556
-0.000964775
-0.000806167
0.00114312
-0.00096221
-0.000567878
0.00108501
-0.000921034
-0.00033946
0.00100452
-0.000846879
-0.000144852
0.000878889
-0.000728636
1.46259e-05
0.000734755
-0.000595481
0.000104299
0.000580281
-0.00043252
0.000131827
0.000451745
-0.000304714
0.000121158
0.000332867
-0.000201513
9.36226e-05
0.000246919
-0.000138345
6.24381e-05
0.000185483
-9.91442e-05
3.79453e-05
0.00014561
-7.84489e-05
1.40857e-05
0.000116029
-5.9129e-05
8.04614e-05
-4.31074e-05
1.90152e-05
1.08264e-05
-1.25778e-05
5.80856e-05
-3.63063e-05
-3.51908e-05
9.9108e-05
-2.54715e-05
-4.05086e-05
0.000129095
-2.70731e-06
-4.17217e-05
0.00014491
2.84842e-05
-4.76806e-05
0.00015042
5.84121e-05
-5.70197e-05
0.000141843
9.99149e-05
-6.50688e-05
0.000125227
0.00013742
-8.28679e-05
9.7687e-05
0.000198076
-0.000107482
4.15142e-05
0.000265805
-0.000128005
-4.1817e-05
0.000348442
-0.000140535
-0.000146483
0.000433111
-0.000162126
-0.000301713
0.000537226
-0.000179005
-0.000478289
0.00064497
-0.00022265
-0.000675112
0.000754378
-0.000256939
-0.000857751
0.000864866
-0.00030803
-0.00101671
0.000974174
-0.000365012
-0.00115796
0.00109552
-0.00042199
-0.00129043
0.00124155
-0.000473353
-0.0014228
0.00139017
-0.000519509
-0.00155202
0.00152875
-0.000533496
-0.00162316
0.00161383
-0.000600515
-0.00164836
0.00171978
-0.000646463
-0.00161872
0.0017375
-0.000676368
-0.00152827
0.00176007
-0.000715305
-0.00139019
0.00174746
-0.000726671
-0.00121487
0.00170742
-0.000717179
-0.00101435
0.00162699
-0.000684388
-0.000801483
0.00150859
-0.000636451
-0.000581396
0.00135893
-0.000574497
-0.000390335
0.00118114
-0.000493314
-0.000229195
0.000999484
-0.000425869
-0.000109172
0.000798222
-0.000337964
-2.56623e-05
0.000636668
-0.000268433
1.89431e-05
0.00048805
-0.000199789
3.54297e-05
0.000382854
-0.000152421
3.81387e-05
0.000304427
-0.000121653
3.06373e-05
0.000253626
-0.000100515
1.38331e-05
0.000205005
-7.21727e-05
0.000137515
-4.32211e-05
2.13436e-05
7.22224e-06
-1.77396e-05
5.96575e-05
-2.7409e-05
-4.72113e-05
9.96803e-05
-6.35016e-06
-5.91441e-05
0.000121391
4.17075e-05
-6.61256e-05
0.000125931
9.5782e-05
-7.18368e-05
0.000115125
0.000154173
-8.49552e-05
9.53912e-05
0.000229013
-0.000109364
5.84979e-05
0.000309508
-0.000135195
2.67578e-06
0.000420864
-0.000166966
-7.98038e-05
0.000534767
-0.000186482
-0.000197793
0.000668486
-0.000202056
-0.00034259
0.000799245
-0.000221337
-0.000502043
0.000931238
-0.00023456
-0.00065578
0.00105014
-0.000251438
-0.000805886
0.00117802
-0.000273536
-0.000946081
0.00130635
-0.000301294
-0.00107411
0.00143259
-0.000330384
-0.00118665
0.00155554
-0.000347477
-0.00129264
0.00170048
-0.000352946
-0.00139887
0.00183287
-0.00033646
-0.0015202
0.00193085
-0.000280783
-0.00158612
0.00197071
-0.000290952
-0.00160954
0.00203216
-0.000288962
-0.00158865
0.00199388
-0.000277267
-0.00151824
0.00197194
-0.000282276
-0.00141659
0.00191554
-0.000269734
-0.0012908
0.00183364
-0.000252012
-0.0011484
0.00171714
-0.000232542
-0.000994381
0.00156511
-0.000210548
-0.00082693
0.00139786
-0.000206381
-0.000647593
0.00120704
-0.000205231
-0.00047011
0.00102592
-0.000203923
-0.000312386
0.000838631
-0.000198133
-0.000185764
0.0007013
-0.000191255
-9.68352e-05
0.000570938
-0.000171817
-3.60141e-05
0.000472498
-0.000150466
2.50319e-06
0.000401502
-0.000135592
1.71502e-05
0.000349403
-0.000110424
1.50922e-05
0.000286254
-7.91914e-05
0.000193529
-4.09228e-05
2.16817e-05
2.14913e-05
-3.59509e-05
6.10536e-05
9.02229e-06
-7.58029e-05
0.000103827
4.28066e-05
-9.19301e-05
0.000122171
0.000121603
-9.82387e-05
0.000117764
0.000206386
-0.000106197
8.95376e-05
0.000303491
-0.000121092
4.76895e-05
0.000422898
-0.000152037
4.50964e-06
0.000534482
-0.000181794
-4.24373e-05
0.000677329
-0.000209518
-0.000114857
0.000827169
-0.000219982
-0.000208634
0.000984223
-0.000221959
-0.000314547
0.00112398
-0.000218819
-0.000441209
0.00126839
-0.000210494
-0.000579069
0.00139833
-0.000210329
-0.000716215
0.00151981
-0.00020464
-0.000837712
0.00162889
-0.000201039
-0.000939966
0.00172355
-0.000188705
-0.00101484
0.00178925
-0.000158839
-0.00110475
0.00188174
-9.13458e-05
-0.00120233
0.00195185
-2.13996e-05
-0.00134219
0.0019917
7.90083e-05
-0.00141586
0.00194272
0.000101648
-0.00145668
0.00195955
0.000113432
-0.00146723
0.00188906
0.000115366
-0.00144169
0.00184936
9.70343e-05
-0.001397
0.00178413
8.67252e-05
-0.0013334
0.00169771
7.23318e-05
-0.00126325
0.00158898
5.80061e-05
-0.00116708
0.00145231
1.66372e-05
-0.00104612
0.00130543
-2.85323e-05
-0.000897778
0.00113945
-8.0758e-05
-0.000729795
0.000987889
-0.000129948
-0.000560416
0.000830436
-0.000161184
-0.000394523
0.000714575
-0.000179169
-0.000255476
0.000616308
-0.000184417
-0.00014039
0.000525988
-0.000168576
-5.75425e-05
0.000467807
-0.000149152
-6.72338e-06
0.000421756
-0.000123173
8.83527e-06
0.00035384
-8.31442e-05
0.000239144
-3.67793e-05
1.47343e-05
6.99779e-05
-6.32206e-05
6.3429e-05
7.72021e-05
-0.000116874
0.000107395
0.000137611
-0.00013877
0.000126181
0.000241466
-0.00013865
0.000115788
0.0003552
-0.000138421
8.45249e-05
0.000484392
-0.000149638
5.49161e-05
0.000637434
-0.000184927
2.40441e-05
0.000782397
-0.000217043
-2.25419e-05
0.000953269
-0.000229354
-8.56415e-05
0.00110822
-0.000217955
-0.000158084
0.0012561
-0.000199433
-0.000240748
0.00138323
-0.000176585
-0.000326593
0.00150383
-0.000149596
-0.000408241
0.00160003
-0.000120046
-0.000489818
0.00168709
-8.57123e-05
-0.000557124
0.00174519
-4.89949e-05
-0.000642047
0.00178936
1.91107e-05
-0.000743607
0.0018057
8.51044e-05
-0.0008454
0.00181869
0.000164843
-0.00094198
0.00179669
0.000251743
-0.00108619
0.00181875
0.000317158
-0.00119111
0.00171791
0.000329739
-0.00126701
0.0017076
0.000327856
-0.00132467
0.00162481
0.000321903
-0.00135127
0.0015778
0.000298161
-0.00136396
0.0015186
0.000278222
-0.00136176
0.00144999
0.00024551
-0.00134855
0.00136923
0.000206549
-0.00130968
0.00126781
0.000145629
-0.00122403
0.00116307
5.67103e-05
-0.00110782
0.00104209
-1.88399e-05
-0.000943111
0.000927961
-0.000104784
-0.000764747
0.000813425
-0.000161353
-0.000568075
0.000717715
-0.000199813
-0.000387878
0.000648137
-0.000212026
-0.0002349
0.000567608
-0.000194598
-0.000112961
0.000520399
-0.000174531
-3.27868e-05
0.00047919
-0.000137607
5.16752e-06
0.00040632
-9.04349e-05
0.000279887
-3.55753e-05
1.7572e-05
0.000147544
-9.51373e-05
8.20329e-05
0.000182621
-0.000169879
0.000132153
0.000272765
-0.000185274
0.000154001
0.000395944
-0.000176326
0.000145345
0.000535256
-0.0001714
9.97592e-05
0.000704206
-0.000174228
9.03698e-05
0.000858808
-0.000211985
6.97992e-05
0.00102415
-0.000221182
5.0721e-05
0.00118189
-0.000209543
1.20593e-05
0.00132255
-0.000175667
-3.85849e-05
0.00144772
-0.000140976
-0.00010352
0.00155106
-0.0001029
-0.000172786
0.00163664
-6.35401e-05
-0.000242984
0.0016895
-1.92717e-05
-0.000313681
0.00172058
3.72073e-05
-0.000374691
0.0017186
8.76048e-05
-0.000440829
0.00170664
0.000148856
-0.000507016
0.00165578
0.000216106
-0.000608253
0.00162362
0.000296302
-0.000713997
0.00153599
0.000366441
-0.000855946
0.00153414
0.000426558
-0.000998594
0.00141631
0.000444252
-0.00108749
0.00137254
0.000423954
-0.00119267
0.00132469
0.000405289
-0.00126855
0.00128968
0.000364008
-0.001336
0.00125702
0.000329029
-0.00138731
0.00121962
0.000281673
-0.00142122
0.0011738
0.00022934
-0.00142993
0.00111584
0.000160685
-0.00137906
0.00105212
6.00819e-05
-0.00129122
0.000970183
-1.59354e-05
-0.00114841
0.00088263
-9.74761e-05
-0.000961065
0.000796286
-0.000170209
-0.000737629
0.000704806
-0.000210526
-0.00050444
0.000662627
-0.000247679
-0.000321286
0.00061207
-0.000227617
-0.000160711
0.000566297
-0.000206473
-5.49552e-05
0.000532935
-0.000159501
4.78648e-07
0.000455725
-0.00010484
0.000318954
-3.8588e-05
2.74997e-05
0.000248349
-0.000128305
0.000109593
0.000318144
-0.000217616
0.000174402
0.000435612
-0.000227656
0.000200469
0.000571485
-0.000201608
0.000193855
0.00072319
-0.000181319
0.000177998
0.00090095
-0.000180887
0.000185674
0.00105282
-0.000201693
0.000183574
0.00122051
-0.000194258
0.000170927
0.00135749
-0.000162954
0.000132302
0.00147822
-0.000117039
8.58952e-05
0.00157361
-7.94888e-05
3.00273e-05
0.00163805
-3.1123e-05
-3.052e-05
0.00167489
2.22945e-05
-9.45488e-05
0.00167368
7.98454e-05
-0.000156138
0.00164986
0.000132307
-0.00021981
0.00159367
0.000188599
-0.000285027
0.00152873
0.000243128
-0.000355064
0.00143969
0.000286131
-0.000443371
0.00137343
0.000338498
-0.000551008
0.00126276
0.000380866
-0.000671725
0.00123273
0.000422128
-0.000844666
0.00116014
0.000429103
-0.000959523
0.00108249
0.000404906
-0.00110152
0.00108603
0.000380665
-0.00121767
0.00106309
0.000342737
-0.00132018
0.00105516
0.000304373
-0.00140718
0.00104242
0.000264199
-0.00147633
0.00102135
0.000221601
-0.00151306
0.000996526
0.000156045
-0.0014955
0.000952349
8.22012e-05
-0.00143196
0.000893449
1.31976e-05
-0.0013095
0.000822436
-6.22611e-05
-0.00111965
0.000756424
-0.000149989
-0.00089973
0.000690807
-0.000205925
-0.000643328
0.000650814
-0.000244588
-0.000414168
0.00064191
-0.000259
-0.000216896
0.000598561
-0.000229536
-8.04055e-05
0.000579118
-0.000182672
-6.61383e-06
0.000499335
-0.000117403
0.000355525
-4.31853e-05
4.5655e-05
0.000360344
-0.00015765
0.000152111
0.000471947
-0.000260258
0.000245501
0.000610709
-0.000268488
0.000289364
0.000752421
-0.000224799
0.000285784
0.000916679
-0.000189909
0.000283453
0.00107957
-0.000176288
0.000282243
0.00122398
-0.000169949
0.000285263
0.00136787
-0.000150386
0.000281362
0.0014774
-0.00011601
0.000252488
0.00157227
-6.51822e-05
0.000208991
0.0016281
-1.09927e-05
0.000156576
0.00164806
4.24053e-05
9.11209e-05
0.0016416
9.87454e-05
2.31197e-05
0.00159552
0.000146157
-4.39914e-05
0.0015258
0.000191177
-0.000114075
0.00143089
0.000232869
-0.000186208
0.00133469
0.000266179
-0.000260933
0.00122651
0.000287902
-0.000338441
0.0011428
0.000308139
-0.000455001
0.00104684
0.00033248
-0.000567006
0.000993274
0.000351458
-0.000738852
0.000974013
0.000357978
-0.00089092
0.000889892
0.00034467
-0.00104497
0.000919871
0.000320208
-0.00118556
0.00090597
0.000297708
-0.0013067
0.000913845
0.000262461
-0.00141832
0.000910115
0.000243918
-0.00150963
0.000909127
0.000203534
-0.00157674
0.000890217
0.000173413
-0.00159605
0.000854696
0.00011697
-0.00155169
0.000803673
4.54076e-05
-0.00144389
0.000747571
-3.29329e-05
-0.00125883
0.000688937
-0.000117576
-0.00102556
0.000641244
-0.000183699
-0.000751538
0.000609481
-0.000232692
-0.000493408
0.000636841
-0.000253062
-0.000269312
0.000622502
-0.000248037
-0.000102357
0.000612553
-0.000200389
-1.49213e-05
0.000543391
-0.000131491
0.000390666
-5.00635e-05
6.40917e-05
0.000469709
-0.000173456
0.000196274
0.000631199
-0.000291434
0.000316174
0.000786154
-0.000295344
0.000374224
0.000928824
-0.000234452
0.000389838
0.00108117
-0.000180102
0.000389878
0.00122404
-0.000144512
0.000380363
0.00135707
-0.000123571
0.000377239
0.00146959
-9.85975e-05
0.000368729
0.00154963
-6.37139e-05
0.000352907
0.00159918
-1.10806e-05
0.000318457
0.00162636
3.61892e-05
0.000250664
0.00161561
0.000100241
0.000180473
0.00156504
0.00014675
0.000106232
0.00148055
0.000189217
3.04083e-05
0.00138044
0.000221186
-4.80866e-05
0.00126525
0.000244133
-0.000126468
0.00115679
0.000256273
-0.000207153
0.00105015
0.000257049
-0.000291121
0.000970147
0.00025662
-0.00040796
0.000901845
0.000261834
-0.000534077
0.000847903
0.000271487
-0.000682801
0.000842413
0.000280325
-0.000855879
0.000777213
0.000285757
-0.00100033
0.000795284
0.000269038
-0.00114955
0.000789662
0.000265523
-0.00127426
0.000800555
0.000238003
-0.00139899
0.00080036
0.000234485
-0.00151185
0.000799949
0.000222041
-0.00159827
0.00077634
0.0002003
-0.00164336
0.000744978
0.000154803
-0.00162599
0.000706019
8.02809e-05
-0.00153724
0.000662866
-4.04495e-06
-0.00137327
0.000618517
-9.35494e-05
-0.00114005
0.000581651
-0.000173628
-0.000865368
0.000547167
-0.000212366
-0.000570608
0.000581016
-0.000238935
-0.000320953
0.000617405
-0.000244558
-0.00012846
0.000627997
-0.000207937
-2.36172e-05
0.000576695
-0.000138147
0.000421731
-5.46819e-05
8.05731e-05
0.000568616
-0.00017948
0.000242436
0.000780231
-0.000310896
0.000389369
0.000948722
-0.000309501
0.000466138
0.00108732
-0.00023527
0.000498033
0.00121825
-0.000168975
0.000496888
0.00133703
-0.00011184
0.000487469
0.00144573
-7.92438e-05
0.000471886
0.00152888
-4.37039e-05
0.000446094
0.00158495
-9.5356e-06
0.00041145
0.0016077
2.61145e-05
0.000376338
0.00158771
7.37681e-05
0.000321395
0.00153885
0.000131707
0.000247516
0.0014662
0.000172717
0.000159164
0.00135953
0.000209368
7.30033e-05
0.00123944
0.000227153
-1.44847e-05
0.00111818
0.00023455
-0.000101361
0.00101231
0.000231363
-0.000189867
0.000916325
0.000222327
-0.000284895
0.000850083
0.000215091
-0.000391256
0.00079749
0.000210716
-0.000513279
0.000755802
0.000214125
-0.0006339
0.00073706
0.000225973
-0.000806083
0.000706478
0.000242918
-0.000944798
0.000693117
0.000240881
-0.00108811
0.00068729
0.000245684
-0.0012182
0.000688667
0.000241974
-0.0013508
0.00069183
0.000241129
-0.0014797
0.0006795
0.000249352
-0.00158949
0.000660153
0.000225982
-0.00165836
0.000634351
0.000179491
-0.00167783
0.00059832
0.00012717
-0.00162026
0.000571843
3.34537e-05
-0.00147426
0.000534981
-6.24615e-05
-0.00123081
0.000509472
-0.000171273
-0.000941144
0.000480882
-0.000223379
-0.000633575
0.000510549
-0.000237103
-0.000367502
0.000576134
-0.000224802
-0.000150432
0.000630609
-0.000219681
-3.02874e-05
0.000600114
-0.000143564
0.000453124
-6.16803e-05
9.34433e-05
0.00065002
-0.000174848
0.000282152
0.000910708
-0.000319186
0.000453942
0.00109274
-0.000315806
0.000549145
0.00121992
-0.000227801
0.000593115
0.00132603
-0.000151758
0.000596474
0.00141703
-8.33645e-05
0.000585301
0.00149756
-4.06512e-05
0.00055827
0.00155354
2.37215e-06
0.000518992
0.0015842
4.00329e-05
0.000466734
0.00157495
8.50167e-05
0.000410191
0.00153756
0.000106691
0.000343009
0.00146032
0.000145716
0.00027352
0.00135296
0.000182731
0.000190001
0.00123499
0.000208057
9.97417e-05
0.00111331
0.000216395
6.92555e-06
0.000998289
0.000212712
-8.32275e-05
0.000900577
0.000201883
-0.000177157
0.000819119
0.000191136
-0.000279616
0.000767741
0.000184801
-0.00037962
0.000718926
0.000178569
-0.000490557
0.000684653
0.000182086
-0.00059419
0.000646816
0.000193877
-0.000743039
0.000637181
0.000218146
-0.000869419
0.000597446
0.000222051
-0.00100094
0.000581259
0.000237553
-0.0011262
0.000575418
0.000238507
-0.00126775
0.000566638
0.000266749
-0.00140747
0.000556684
0.000262533
-0.00153178
0.000542833
0.000241633
-0.00163275
0.00052617
0.00020915
-0.00167172
0.000513756
0.000123537
-0.00164746
0.000493941
5.36426e-05
-0.00154047
0.000461405
-3.34183e-05
-0.00133689
0.000435427
-0.000129534
-0.00104083
0.00042002
-0.000235201
-0.000702757
0.000432196
-0.00025972
-0.000401488
0.000503496
-0.00022863
-0.000173724
0.000601423
-0.000198578
-3.77481e-05
0.000610911
-0.000146772
0.000480246
-6.48692e-05
0.000104006
0.000707151
-0.000161137
0.00031632
0.00101468
-0.000316284
0.0005142
0.00120704
-0.000312181
0.000629441
0.00131971
-0.000215031
0.000679624
0.00140526
-0.000129405
0.000688134
0.00147009
-6.15725e-05
0.000674872
0.0015194
-8.58419e-06
0.000640993
0.00154627
4.11486e-05
0.00058988
0.00154982
8.5488e-05
0.000522619
0.00152179
0.000120412
0.000447331
0.0014608
0.000152046
0.000365016
0.00136977
0.00017286
0.000283175
0.00125373
0.000181076
0.000197623
0.00112608
0.000194466
0.000109585
0.00100631
0.000195038
1.95846e-05
0.000900095
0.000188194
-6.92472e-05
0.000813697
0.000175713
-0.000162341
0.000742847
0.000169366
-0.000259332
0.000698487
0.000166245
-0.00035693
0.000650132
0.000166392
-0.000453607
0.000611098
0.000170232
-0.000547514
0.000562103
0.000178621
-0.000666498
0.000557059
0.000199106
-0.0007715
0.000498932
0.000203515
-0.000886518
0.000475683
0.000220594
-0.00101077
0.000457573
0.0002421
-0.00115154
0.000448031
0.000259378
-0.00129643
0.000440002
0.000261574
-0.00143969
0.000433825
0.000252264
-0.00155618
0.000434541
0.000208125
-0.00164134
0.000433193
0.000165719
-0.001653
0.000409145
9.64505e-05
-0.00159281
0.000367988
3.32346e-05
-0.00142438
0.000330303
-6.33058e-05
-0.00114931
0.000318197
-0.000173248
-0.000796315
0.000340328
-0.000261132
-0.000452326
0.000423193
-0.000263686
-0.000196234
0.000538034
-0.000192701
-4.55221e-05
0.000607079
-0.000146879
0.000506085
-7.13607e-05
0.000107781
0.000744213
-0.000144844
0.000338856
0.0010911
-0.000307501
0.00056114
0.00129262
-0.000307871
0.00069404
0.00139234
-0.000205527
0.000750488
0.00145634
-0.000107531
0.000758738
0.00149726
-3.54154e-05
0.000741145
0.00152237
1.4621e-05
0.000696833
0.00151968
7.09025e-05
0.000637234
0.0014982
0.000111224
0.000564977
0.00144695
0.000147101
0.000478194
0.00137212
0.000175467
0.000382465
0.00127026
0.000195242
0.000285501
0.00115295
0.000197743
0.000201692
0.00102678
0.000183104
0.000116424
0.000913626
0.000177949
3.40202e-05
0.000817958
0.000164541
-5.17258e-05
0.000741855
0.000157588
-0.000142445
0.000678134
0.000155432
-0.000228304
0.000629544
0.000154802
-0.000318278
0.000579453
0.000160653
-0.000398903
0.000528874
0.000162849
-0.000489742
0.000484451
0.000168491
-0.000572035
0.0004626
0.000176751
-0.000660172
0.000402052
0.000185018
-0.000763455
0.000374132
0.000204834
-0.00087708
0.000344484
0.000226714
-0.00100929
0.000335494
0.000244745
-0.00115173
0.000329782
0.000252663
-0.00129848
0.000338247
0.000242329
-0.00144675
0.000348543
0.000234268
-0.00155762
0.000338717
0.000205343
-0.0016238
0.000300455
0.00017487
-0.0016093
0.000248305
0.000105182
-0.00148728
0.000197377
1.09036e-05
-0.00124031
0.000171237
-0.000100009
-0.000892364
0.000199923
-0.000207541
-0.000509436
0.000311714
-0.000271448
-0.000218528
0.000469665
-0.000222539
-4.99837e-05
0.000586209
-0.000147672
0.00053288
-7.67772e-05
0.00011327
0.000749023
-0.00011808
0.000362095
0.001129
-0.000286719
0.000604028
0.00134281
-0.00029212
0.000753741
0.00143693
-0.000194305
0.000815422
0.00148139
-8.67358e-05
0.000821298
0.00149706
-5.67398e-06
0.000796413
0.00149423
5.30266e-05
0.000750545
0.00146978
9.57604e-05
0.000685466
0.00142676
0.000136515
0.00060486
0.00136128
0.000166276
0.000511845
0.00127417
0.000190965
0.00040899
0.00116671
0.000206406
0.000302535
0.00105152
0.000207882
0.000207886
0.000934876
0.000186555
0.000122518
0.000833048
0.000165946
4.52058e-05
0.00074211
0.00015316
-3.08833e-05
0.000673994
0.000143951
-0.000115091
0.00061374
0.000148602
-0.000190514
0.000557034
0.000147932
-0.000270126
0.000505625
0.00015344
-0.000343471
0.000449086
0.000153133
-0.000418193
0.000404473
0.000154699
-0.000475761
0.000369543
0.000150624
-0.000550089
0.000315626
0.000160754
-0.000637163
0.00028678
0.000174426
-0.000737121
0.000247837
0.000196605
-0.00085396
0.000236471
0.000215861
-0.00098673
0.000238608
0.000223945
-0.00113993
0.000256726
0.000234725
-0.0012879
0.00025946
0.000237046
-0.00143104
0.000239785
0.000242074
-0.00154072
0.000197586
0.000212546
-0.00158318
0.000133542
0.000157223
-0.00152015
6.06866e-05
7.36632e-05
-0.00131994
9.86579e-06
-3.88374e-05
-0.00100241
2.31083e-05
-0.000140719
-0.000594173
0.000141453
-0.000237978
-0.000247199
0.000377655
-0.000254965
-6.04616e-05
0.000544612
-0.00014514
0.000550519
-7.80977e-05
0.000113591
0.000730717
-9.52855e-05
0.000371823
0.00113435
-0.000263581
0.000627886
0.00136138
-0.000274635
0.000790969
0.00145278
-0.000178928
0.000860278
0.00148391
-7.18299e-05
0.000862333
0.00147431
2.06971e-05
0.000831944
0.00145008
7.45382e-05
0.000776555
0.00140297
0.000122201
0.000706347
0.00134445
0.000152523
0.000624489
0.00126688
0.000176255
0.000527805
0.00117011
0.000200736
0.00042312
0.00106395
0.000207439
0.000318149
0.000951962
0.000204529
0.000220131
0.000845714
0.000187181
0.00013871
0.000751458
0.000163011
6.43411e-05
0.000669743
0.000146737
-3.76355e-06
0.000602589
0.000139509
-7.78014e-05
0.000547769
0.000140009
-0.00014949
0.00048877
0.000139952
-0.000212601
0.000427477
0.00014126
-0.000280167
0.000375041
0.000141611
-0.000340726
0.000333212
0.00013182
-0.000393065
0.000292754
0.000129129
-0.000450329
0.000242663
0.000130226
-0.000521643
0.000211804
0.00014629
-0.000610507
0.000172498
0.000164202
-0.000705641
0.000153396
0.000178208
-0.000830839
0.000165508
0.000198298
-0.000962914
0.000169676
0.000219126
-0.00111399
0.00016055
0.000249987
-0.00127174
0.000140162
0.000257368
-0.00141219
9.3063e-05
0.000244982
-0.00150198
2.30703e-05
0.00020026
-0.00149615
-7.10389e-05
0.000125898
-0.00136001
-0.000151348
2.50678e-05
-0.00107375
-0.000175963
-8.71894e-05
-0.000680558
-6.53952e-05
-0.00018634
-0.000280368
0.000209779
-0.000232314
-6.50587e-05
0.000492019
-0.000162718
0.000561982
-7.65222e-05
0.000125892
0.00064028
-3.54549e-05
0.000394818
0.00108413
-0.000218711
0.000663585
0.00133361
-0.000240989
0.000844973
0.00142373
-0.000152347
0.000917021
0.00144468
-3.28118e-05
0.000913787
0.00141994
5.76032e-05
0.000873031
0.00137533
0.000115512
0.000813553
0.00131019
0.000152262
0.000741239
0.00124114
0.000175619
0.000657372
0.00115865
0.000192097
0.000563915
0.00106604
0.000197531
0.000459806
0.000962883
0.000205177
0.000354605
0.000861048
0.000196116
0.000255205
0.000763826
0.000181289
0.000169502
0.000677594
0.000159567
9.0562e-05
0.000605038
0.000143645
1.84956e-05
0.000540896
0.000133759
-4.02768e-05
0.000476146
0.000130396
-9.53448e-05
0.000417385
0.000126453
-0.000157709
0.000366285
0.000123556
-0.000221809
0.000319727
0.000119414
-0.000273051
0.000272521
0.000111932
-0.000318949
0.000229927
0.000108724
-0.000368761
0.000184584
0.000107892
-0.000421763
0.000147445
0.000117362
-0.0004965
0.000111649
0.000135585
-0.000580447
8.514e-05
0.000152203
-0.000681043
8.93055e-05
0.000176799
-0.00080228
7.90546e-05
0.000211858
-0.000946792
6.4467e-05
0.000240596
-0.00110809
3.93558e-05
0.000262109
-0.0012651
-1.3036e-05
0.000263103
-0.00138984
-8.91719e-05
0.000236988
-0.00143651
-0.000200348
0.000175977
-0.00136209
-0.000308954
8.3181e-05
-0.00113748
-0.000373311
-2.72585e-05
-0.00077555
-0.000298779
-0.000128547
-0.000346807
-3.22708e-05
-0.000186691
-6.67426e-05
0.000395426
-0.000183471
0.000561583
-6.63445e-05
0.000120466
0.000531693
-1.18787e-05
0.000377958
0.00102982
-0.000203182
0.000658322
0.00129296
-0.000239715
0.000854874
0.00138403
-0.000156843
0.00093965
0.00139423
-3.43338e-05
0.000938693
0.00135031
7.05868e-05
0.000901941
0.00128536
0.00012672
0.00083435
0.00121433
0.000163451
0.000749198
0.00114043
0.00018586
0.000658499
0.00105067
0.000198675
0.000564306
0.000955824
0.000204409
0.000466872
0.000860126
0.000200191
0.000370065
0.0007661
0.000191756
0.000279857
0.000682936
0.000171098
0.000201579
0.000604068
0.000151804
0.000133355
0.000536165
0.000137097
6.95194e-05
0.000474565
0.000130165
1.22877e-06
0.00041919
0.000125246
-6.05381e-05
0.000365012
0.00011414
-0.000115907
0.000314346
0.000107308
-0.000167861
0.000269593
0.000102087
-0.000213526
0.000222834
9.53516e-05
-0.000257898
0.000181166
9.31324e-05
-0.000301288
0.000137747
9.02276e-05
-0.000347839
9.57956e-05
9.82005e-05
-0.000407442
5.59079e-05
0.000115344
-0.000480566
2.07614e-05
0.000137503
-0.000559849
-4.31252e-08
0.000168632
-0.000659464
-2.29786e-05
0.000201647
-0.000780001
-5.00605e-05
0.000235066
-0.000926865
-7.56123e-05
0.000261832
-0.00108796
-0.000126968
0.000275023
-0.00123911
-0.000201097
0.000263075
-0.0013351
-0.000321491
0.000217134
-0.00132169
-0.000461316
0.000138957
-0.00115083
-0.000587294
4.31171e-05
-0.000813729
-0.00056521
-7.06663e-05
-0.000402051
-0.000297083
-0.000146866
-6.59317e-05
0.000213157
-0.000153849
0.000543384
-4.7733e-05
0.000150594
0.000331591
4.95074e-05
0.000387692
0.000912449
-0.000119727
0.000673881
0.00119114
-0.000184372
0.000875581
0.00128873
-0.000106401
0.000969549
0.00129107
9.19813e-06
0.000963809
0.00124765
0.000108401
0.000915901
0.00117285
0.000160421
0.000846729
0.00108872
0.000194781
0.000776699
0.00100393
0.000206535
0.000703539
0.000914868
0.000208964
0.000623091
0.000832533
0.00020374
0.000533499
0.000754163
0.000195555
0.000439474
0.000679173
0.000180953
0.000346746
0.000611731
0.000163934
0.000264482
0.00055034
0.000135992
0.000187998
0.000494025
0.000118625
0.000114733
0.000436407
0.000111423
3.96364e-05
0.000380091
0.000114195
-2.54259e-05
0.000326568
0.000103506
-7.7914e-05
0.000275438
9.1396e-05
-0.000124615
0.000227133
8.91602e-05
-0.00016486
0.000181952
8.11262e-05
-0.000204778
0.000140414
8.06692e-05
-0.000241476
9.73707e-05
7.70741e-05
-0.000286499
5.55695e-05
8.52488e-05
-0.000333368
7.28496e-06
9.54921e-05
-0.000393683
-3.29142e-05
0.00011399
-0.000461713
-7.63675e-05
0.000144354
-0.000553216
-0.000111235
0.000179759
-0.000668821
-0.000150499
0.000216043
-0.0008061
-0.000194646
0.000256312
-0.000956205
-0.000271379
0.000294516
-0.00111288
-0.000358392
0.000313973
-0.00123849
-0.000493909
0.000298024
-0.00127627
-0.000669079
0.000245541
-0.00117756
-0.000850281
0.000164276
-0.000887518
-0.000901846
4.65983e-05
-0.000453428
-0.000672215
-5.8959e-05
-8.44724e-05
-4.95165e-05
-0.000106281
0.000477374
-1.8463e-05
0.000122477
0.000197148
1.19653e-05
0.000339744
0.000832518
-0.000137337
0.000629237
0.00110726
-0.000205611
0.000844432
0.00120657
-0.00013304
0.000957409
0.00119458
-1.64875e-05
0.000982832
0.0011359
8.63218e-05
0.000953979
0.00104462
0.000157081
0.000897519
0.000965398
0.00017978
0.000823016
0.000892668
0.000185763
0.00073531
0.000819504
0.00018307
0.000643496
0.000747315
0.000177032
0.000548925
0.000679351
0.000169384
0.000457241
0.000614055
0.000156802
0.000369123
0.000558252
0.000141597
0.000285967
0.000505178
0.000128318
0.000215248
0.000456294
0.000108449
0.00015138
0.000404564
9.57114e-05
8.97526e-05
0.00034922
9.24983e-05
2.4486e-05
0.000295999
9.58348e-05
-2.77911e-05
0.000239458
8.82572e-05
-7.80743e-05
0.000196713
8.07026e-05
-0.000120275
0.000148364
7.57883e-05
-0.000159234
0.000106145
7.32288e-05
-0.000195475
6.2457e-05
7.11546e-05
-0.00023633
1.60539e-05
8.03709e-05
-0.000283463
-3.11144e-05
8.55311e-05
-0.000335164
-7.30384e-05
9.18245e-05
-0.000389134
-0.000136165
0.000113766
-0.000448666
-0.000197279
0.000145576
-0.000518718
-0.000264694
0.000184247
-0.000613008
-0.000330551
0.000230195
-0.000740371
-0.000422055
0.00027804
-0.000904022
-0.00051606
0.000321318
-0.00106934
-0.000675341
0.000346745
-0.00118875
-0.000880364
0.000330701
-0.00117151
-0.00112852
0.000261007
-0.000990822
-0.00123964
0.000157096
-0.00057786
-0.00111161
2.64343e-05
-0.000155223
-0.000449667
-2.2484e-05
0.000279867
4.22851e-05
8.9263e-05
9.14332e-05
1.64511e-05
0.000332314
0.000711058
-0.000121593
0.000613643
0.0010128
-0.00018687
0.00084595
0.00112115
-0.00014689
0.000970706
0.00111301
-4.31897e-05
0.00100095
0.00105198
5.36764e-05
0.000957941
0.000958907
0.00012872
0.000890205
0.000871546
0.000161588
0.000825226
0.0007922