/*--------------------------------*- C++ -*----------------------------------*\
| =========                 |                                                 |
| \\      /  F ield         | OpenFOAM: The Open Source CFD Toolbox           |
|  \\    /   O peration     | Version:  v1806                                 |
|   \\  /    A nd           | Web:      www.OpenFOAM.com                      |
|    \\/     M anipulation  |                                                 |
\*---------------------------------------------------------------------------*/
FoamFile
{
    version     2.0;
    format      ascii;
    class       volScalarField;
    location    "0.089";
    object      p;
}
// * * * * * * * * * * * * * * * * * * * * * * * * * * * * * * * * * * * * * //

dimensions      [0 2 -2 0 0 0 0];


internalField   nonuniform List<scalar> 
64000
(
-5.96698e-05
-0.110803
-0.2691
-0.371656
-0.44983
-0.515436
-0.576506
-0.630972
-0.683131
-0.735908
-0.783124
-0.828885
-0.890331
-0.96568
-0.990934
-1.07672
-1.05434
-1.17723
-1.07996
-1.32576
-1.09002
-1.33857
-1.27942
-1.35372
-1.24807
-1.2243
-1.10619
-1.06535
-1.00449
-1.00556
-0.997638
-1.03726
-1.09544
-1.14243
-1.19773
-1.22044
-1.26009
-1.26661
-1.27888
-1.27292
-0.1025
-0.214363
-0.310717
-0.386852
-0.456771
-0.513607
-0.567344
-0.61872
-0.66717
-0.711461
-0.761201
-0.813183
-0.84607
-0.90472
-0.921614
-0.988857
-1.01945
-1.12974
-1.03731
-1.23844
-1.03627
-1.25493
-1.23769
-1.29396
-1.18249
-1.16217
-1.06009
-1.0308
-0.983637
-0.984624
-1.0055
-1.00557
-1.07549
-1.10998
-1.16895
-1.19372
-1.23431
-1.24683
-1.26551
-1.26388
-0.244162
-0.290658
-0.349247
-0.411445
-0.469289
-0.516241
-0.57137
-0.615785
-0.653052
-0.71097
-0.756728
-0.820003
-0.865409
-0.962953
-1.00352
-1.09752
-1.08919
-1.21331
-1.14197
-1.38157
-1.24635
-1.5034
-1.55804
-1.66048
-1.59127
-1.60115
-1.51901
-1.49077
-1.41674
-1.36836
-1.32742
-1.28749
-1.28566
-1.24905
-1.2648
-1.25782
-1.2765
-1.27667
-1.28857
-1.28928
-0.314855
-0.337307
-0.373096
-0.42448
-0.461599
-0.506128
-0.552455
-0.59589
-0.661329
-0.724243
-0.782039
-0.872846
-0.944286
-1.04504
-1.09737
-1.19508
-1.23479
-1.38076
-1.35633
-1.62137
-1.52811
-1.80298
-1.91771
-2.04189
-2.00112
-2.01771
-1.93811
-1.89311
-1.79751
-1.71066
-1.61979
-1.51653
-1.44819
-1.37995
-1.35154
-1.3187
-1.33016
-1.31327
-1.32023
-1.32393
-0.358269
-0.356271
-0.396635
-0.425568
-0.482902
-0.517809
-0.587508
-0.635392
-0.712358
-0.793588
-0.886725
-1.00892
-1.10005
-1.2229
-1.30932
-1.43818
-1.49691
-1.65436
-1.63823
-1.91769
-1.86167
-2.13586
-2.27005
-2.4057
-2.37792
-2.39497
-2.31224
-2.25532
-2.14824
-2.04113
-1.91392
-1.78521
-1.65623
-1.55214
-1.47089
-1.40767
-1.38073
-1.36551
-1.36946
-1.37266
-0.378526
-0.384961
-0.404129
-0.449592
-0.482563
-0.540176
-0.601981
-0.699898
-0.818821
-0.952395
-1.07615
-1.18623
-1.29385
-1.41696
-1.51006
-1.65118
-1.70981
-1.86009
-1.89118
-2.12734
-2.10254
-2.37095
-2.51979
-2.63514
-2.61249
-2.62404
-2.54067
-2.48643
-2.36799
-2.26576
-2.12034
-1.97668
-1.82742
-1.71446
-1.60904
-1.48343
-1.45071
-1.42485
-1.42816
-1.43449
-0.418427
-0.402862
-0.441698
-0.491315
-0.576048
-0.634364
-0.760484
-0.889409
-1.01367
-1.1274
-1.24774
-1.38528
-1.50949
-1.6523
-1.7553
-1.88646
-1.96023
-2.10258
-2.12642
-2.354
-2.39006
-2.54224
-2.70084
-2.79959
-2.7829
-2.79176
-2.71833
-2.66484
-2.56106
-2.4574
-2.30757
-2.15604
-1.9723
-1.82864
-1.70638
-1.56569
-1.50631
-1.48448
-1.48633
-1.49578
-0.438217
-0.43238
-0.471625
-0.542429
-0.634313
-0.725741
-0.905958
-0.968335
-1.13977
-1.27649
-1.43105
-1.57633
-1.71944
-1.85112
-1.96939
-2.10188
-2.17898
-2.31429
-2.36628
-2.5194
-2.61646
-2.68246
-2.82799
-2.93305
-2.91924
-2.9281
-2.86043
-2.81596
-2.7173
-2.62569
-2.48654
-2.32875
-2.15187
-1.97334
-1.86061
-1.67843
-1.60128
-1.56806
-1.56608
-1.57913
-0.468803
-0.449222
-0.512576
-0.590721
-0.715828
-0.854792
-1.00763
-1.14893
-1.2776
-1.45918
-1.60626
-1.76603
-1.90482
-2.05513
-2.18029
-2.31113
-2.40522
-2.52399
-2.59247
-2.68302
-2.79848
-2.84041
-2.92648
-3.05231
-3.04298
-3.05344
-2.99566
-2.94653
-2.87052
-2.78011
-2.64093
-2.48012
-2.30184
-2.10108
-1.95739
-1.80165
-1.67488
-1.64386
-1.63358
-1.65087
-0.525409
-0.513598
-0.580172
-0.682536
-0.825232
-0.986524
-1.1412
-1.29199
-1.45239
-1.60526
-1.75481
-1.92407
-2.06684
-2.2114
-2.34131
-2.47472
-2.57485
-2.69072
-2.77109
-2.85794
-2.95221
-3.02845
-3.0228
-3.17117
-3.17313
-3.18359
-3.13085
-3.09088
-3.01602
-2.9222
-2.80244
-2.6457
-2.46333
-2.26661
-2.1027
-1.94283
-1.79989
-1.74965
-1.73416
-1.75418
-0.561572
-0.546702
-0.633249
-0.744825
-0.928853
-1.076
-1.25409
-1.42235
-1.58844
-1.75951
-1.90547
-2.06224
-2.18007
-2.34998
-2.48044
-2.61246
-2.71968
-2.8257
-2.90489
-3.00233
-3.07065
-3.16979
-3.13859
-3.29203
-3.29231
-3.31796
-3.25982
-3.23203
-3.15215
-3.07107
-2.93936
-2.79405
-2.60672
-2.38972
-2.19479
-2.0516
-1.89588
-1.82641
-1.81226
-1.83115
-0.660248
-0.650769
-0.737408
-0.877733
-1.04839
-1.21697
-1.38881
-1.56597
-1.73896
-1.89728
-2.05193
-2.20447
-2.33799
-2.44811
-2.60458
-2.73411
-2.84678
-2.95732
-3.03075
-3.15395
-3.20589
-3.30921
-3.28046
-3.42893
-3.43957
-3.45143
-3.41612
-3.37368
-3.30651
-3.21532
-3.10075
-2.94084
-2.74678
-2.55012
-2.33439
-2.18845
-2.03247
-1.96608
-1.93624
-1.96127
-0.702616
-0.691639
-0.796967
-0.939459
-1.12584
-1.29558
-1.48939
-1.65719
-1.83008
-1.99161
-2.15036
-2.30092
-2.44998
-2.59506
-2.69873
-2.85521
-2.98256
-3.09276
-3.18236
-3.29638
-3.34542
-3.44134
-3.40563
-3.55813
-3.55806
-3.58896
-3.54901
-3.51437
-3.43733
-3.35558
-3.19939
-3.07513
-2.91703
-2.72355
-2.49421
-2.30131
-2.13815
-2.05046
-2.01887
-2.04144
-0.827552
-0.823572
-0.924758
-1.07249
-1.25301
-1.43055
-1.61782
-1.78779
-1.95555
-2.11422
-2.2693
-2.43021
-2.57473
-2.72824
-2.85334
-2.97291
-3.12152
-3.23636
-3.345
-3.44599
-3.4965
-3.57459
-3.49268
-3.65237
-3.70106
-3.72536
-3.69709
-3.6533
-3.58977
-3.46222
-3.40845
-3.27012
-3.1077
-2.90974
-2.70059
-2.49525
-2.3087
-2.21812
-2.1717
-2.20037
-0.867081
-0.863262
-0.974652
-1.12446
-1.31422
-1.49038
-1.67645
-1.83372
-2.00254
-2.15936
-2.32386
-2.48635
-2.65629
-2.81557
-3.00557
-3.11017
-3.29813
-3.4051
-3.53558
-3.61123
-3.69355
-3.6277
-3.6918
-3.79523
-3.83759
-3.87868
-3.84682
-3.80568
-3.68037
-3.64724
-3.5349
-3.40886
-3.24803
-3.05794
-2.84433
-2.62925
-2.44991
-2.28979
-2.25392
-2.27546
-0.994359
-0.989309
-1.09143
-1.23884
-1.42029
-1.5924
-1.76546
-1.92359
-2.09613
-2.2698
-2.45916
-2.64377
-2.82996
-2.99718
-3.16997
-3.33392
-3.44887
-3.57492
-3.74804
-3.82652
-3.79837
-3.83994
-3.88752
-3.95545
-3.97877
-4.00953
-3.97659
-3.88906
-3.87315
-3.79412
-3.71436
-3.60259
-3.46532
-3.29215
-3.08756
-2.87688
-2.67122
-2.55905
-2.44063
-2.46666
-0.984466
-1.00073
-1.11198
-1.26682
-1.45434
-1.64003
-1.80711
-1.95616
-2.11973
-2.29554
-2.483
-2.69013
-2.89029
-3.08667
-3.27744
-3.50615
-3.66827
-3.84046
-3.93543
-3.99053
-4.03436
-4.08215
-4.12138
-4.15168
-4.1603
-4.16897
-4.15938
-4.08927
-4.001
-3.8975
-3.78804
-3.66636
-3.53652
-3.36969
-3.17485
-2.97343
-2.77631
-2.63214
-2.52161
-2.56125
-1.0647
-1.05919
-1.14625
-1.27782
-1.4472
-1.60805
-1.78655
-1.95058
-2.15422
-2.37077
-2.62558
-2.86687
-3.10324
-3.29261
-3.49644
-3.71255
-3.85592
-4.11512
-4.19036
-4.26901
-4.3282
-4.34922
-4.36613
-4.3663
-4.36649
-4.30804
-4.27983
-4.20643
-4.14105
-4.06188
-3.99626
-3.91702
-3.80518
-3.66712
-3.50117
-3.2724
-3.06801
-2.87988
-2.72214
-2.71281
-0.928617
-0.935668
-1.03301
-1.17155
-1.37271
-1.55696
-1.73959
-1.8838
-2.06985
-2.32258
-2.62542
-2.9529
-3.22631
-3.47375
-3.65765
-3.89013
-4.14941
-4.48388
-4.57545
-4.67774
-4.67695
-4.67474
-4.6502
-4.60033
-4.57139
-4.54426
-4.41787
-4.33105
-4.18619
-4.02377
-3.86919
-3.80674
-3.73652
-3.60618
-3.41129
-3.22696
-3.11037
-2.94272
-2.92533
-2.91956
-0.985216
-0.929289
-0.973494
-1.03813
-1.16018
-1.26064
-1.38704
-1.62222
-2.01888
-2.4214
-2.85663
-3.27677
-3.62849
-3.8777
-4.10245
-4.30943
-4.55516
-4.81189
-5.04081
-5.06928
-5.05546
-5.01637
-4.93853
-4.87722
-4.85666
-4.73924
-4.57902
-4.41262
-4.35295
-4.30788
-4.31495
-4.14016
-4.00142
-3.87332
-3.7597
-3.54283
-3.27288
-3.11667
-2.65364
-2.7877
-0.977363
-0.983164
-1.02612
-1.12184
-1.26286
-1.39627
-1.51937
-1.7112
-2.06941
-2.46786
-2.90874
-3.36986
-3.75577
-4.06785
-4.34503
-4.59363
-4.89544
-5.17147
-5.40028
-5.48569
-5.47083
-5.30768
-5.27444
-5.16906
-5.02241
-4.84788
-4.70616
-4.53915
-4.38148
-4.16666
-3.97855
-3.81981
-3.80581
-3.85836
-3.8932
-3.75952
-3.67263
-3.48432
-3.56205
-3.32878
-1.03232
-1.02577
-1.05852
-1.1261
-1.24353
-1.3648
-1.50007
-1.68351
-2.0792
-2.5328
-3.04904
-3.57491
-3.98687
-4.33071
-4.65855
-4.95516
-5.26064
-5.50048
-5.74972
-5.85017
-5.78805
-5.65765
-5.51805
-5.36815
-5.19263
-4.98891
-4.83697
-4.64844
-4.51921
-4.31729
-4.166
-3.93241
-3.7142
-3.37667
-3.06373
-2.90641
-2.80928
-2.73267
-2.66078
-2.68403
-1.07856
-1.07881
-1.12364
-1.19482
-1.32213
-1.44362
-1.58064
-1.7536
-2.13316
-2.61576
-3.18129
-3.69246
-4.11848
-4.49274
-4.8617
-5.19504
-5.53262
-5.76768
-5.98301
-6.09718
-6.10916
-5.81869
-5.68861
-5.47247
-5.32707
-5.07932
-4.91642
-4.71758
-4.56863
-4.36737
-4.21067
-3.98067
-3.84988
-3.57516
-3.37753
-3.13992
-2.98331
-2.78445
-2.76131
-2.86056
-1.14655
-1.13317
-1.19988
-1.25474
-1.38364
-1.50677
-1.64894
-1.84067
-2.2002
-2.707
-3.26454
-3.75995
-4.19639
-4.59044
-4.98899
-5.34783
-5.67704
-5.89402
-6.04577
-6.19517
-6.19034
-6.00171
-5.77467
-5.54108
-5.33147
-5.14836
-4.95736
-4.73442
-4.58998
-4.35796
-4.21575
-3.96318
-3.79256
-3.51411
-3.34723
-3.12688
-2.97402
-2.76506
-2.60061
-2.6853
-1.2234
-1.2077
-1.28057
-1.33466
-1.45759
-1.58305
-1.72576
-1.89148
-2.22826
-2.73585
-3.2953
-3.78863
-4.21576
-4.60467
-5.01724
-5.36693
-5.6945
-5.87648
-6.05893
-6.2123
-6.28603
-6.02627
-5.8469
-5.55737
-5.3797
-5.06093
-4.96952
-4.7464
-4.61877
-4.40931
-4.30753
-4.08757
-3.98279
-3.73669
-3.62451
-3.40211
-3.28868
-3.07306
-2.96882
-3.02942
-1.28351
-1.25527
-1.33648
-1.38975
-1.50904
-1.64588
-1.76139
-1.99988
-2.33833
-2.78564
-3.27341
-3.70251
-4.1273
-4.50416
-4.93665
-5.25673
-5.57626
-5.74457
-6.00529
-6.12848
-6.2317
-6.0452
-5.7979
-5.57655
-5.35188
-5.09691
-4.85577
-4.68698
-4.54584
-4.28224
-4.14215
-3.84607
-3.71389
-3.44596
-3.35925
-3.1504
-3.06844
-2.88904
-2.76348
-2.7768
-1.38398
-1.35879
-1.42694
-1.48517
-1.59128
-1.71937
-1.86794
-2.10205
-2.43017
-2.82976
-3.27035
-3.66449
-4.05522
-4.3958
-4.71775
-5.06542
-5.41166
-5.65432
-5.84103
-6.00403
-6.08851
-5.96866
-5.74732
-5.49982
-5.32121
-5.04751
-4.92475
-4.65042
-4.64562
-4.48691
-4.5793
-4.50346
-4.5811
-4.41123
-4.38303
-4.13515
-4.01286
-3.73072
-3.52141
-3.29376
-1.42469
-1.40963
-1.44121
-1.52558
-1.6247
-1.74424
-1.91558
-2.13743
-2.45428
-2.80229
-3.19468
-3.55156
-3.92551
-4.25209
-4.61639
-4.85656
-5.22266
-5.47629
-5.74637
-5.77656
-5.88934
-5.84551
-5.6666
-5.45911
-5.28484
-5.04265
-4.93464
-4.71178
-4.80118
-4.6322
-4.6761
-4.44131
-4.43993
-4.22661
-4.28586
-4.12984
-4.20261
-4.06563
-4.13689
-4.18012
-1.54002
-1.52697
-1.55685
-1.60716
-1.72311
-1.80966
-2.01219
-2.21972
-2.51082
-2.81489
-3.16371
-3.47808
-3.82324
-4.11635
-4.43845
-4.71778
-4.90889
-5.23882
-5.48938
-5.56835
-5.62136
-5.60864
-5.49926
-5.33141
-5.26118
-5.06478
-4.97798
-4.82882
-4.82404
-4.66198
-4.71552
-4.47093
-4.48431
-4.24049
-4.28895
-4.09542
-4.14498
-3.93133
-3.9211
-3.76343
-1.55771
-1.54488
-1.57181
-1.60967
-1.71953
-1.8321
-2.01972
-2.20805
-2.48586
-2.74148
-3.05705
-3.33231
-3.65099
-3.90533
-4.21331
-4.37918
-4.72763
-4.89531
-5.14596
-5.2684
-5.31987
-5.30367
-5.25469
-5.1289
-5.05583
-4.94321
-4.87321
-4.74881
-4.76535
-4.56169
-4.58727
-4.30071
-4.34383
-4.05268
-4.15346
-3.88277
-3.97969
-3.69447
-3.6805
-3.54436
-1.68874
-1.68336
-1.69761
-1.70105
-1.80008
-1.92352
-2.10757
-2.27697
-2.51892
-2.74539
-3.02037
-3.2593
-3.53809
-3.7776
-3.99377
-4.27162
-4.5041
-4.69026
-4.80248
-4.95231
-4.99276
-5.01926
-5.01926
-4.90366
-4.89616
-4.79801
-4.54155
-4.79812
-4.64406
-4.52898
-4.62355
-4.28271
-4.36492
-4.00432
-4.14099
-3.825
-3.89497
-3.5262
-3.43102
-3.19191
-1.66983
-1.65921
-1.67713
-1.67876
-1.72104
-1.86414
-2.059
-2.19737
-2.43149
-2.61949
-2.88915
-3.0857
-3.36897
-3.53239
-3.8476
-4.04007
-4.2592
-4.44514
-4.51525
-4.60487
-4.59928
-4.70182
-4.71601
-4.62424
-4.63121
-4.57424
-4.29796
-4.78039
-4.55172
-4.4465
-4.47563
-4.24262
-4.29419
-3.89918
-4.03236
-3.59119
-3.74527
-3.22775
-3.12604
-2.70424
-1.82068
-1.8199
-1.82518
-1.82617
-1.84414
-1.92111
-2.13927
-2.2455
-2.44978
-2.60636
-2.8418
-3.01214
-3.24551
-3.47612
-3.69468
-3.88432
-4.05904
-4.22713
-4.28354
-4.37777
-4.27858
-4.45961
-4.44785
-4.36215
-4.39873
-4.3597
-4.07205
-4.71295
-4.45016
-4.38804
-4.46313
-4.14042
-4.34442
-3.87539
-4.0576
-3.52671
-3.63324
-3.04202
-2.83708
-2.18758
-1.7504
-1.73078
-1.76759
-1.71162
-1.7729
-1.73881
-2.02692
-2.09453
-2.30127
-2.4444
-2.66134
-2.83931
-3.10434
-3.28132
-3.51227
-3.68486
-3.83767
-4.00963
-4.02776
-4.12136
-4.03634
-4.20947
-4.17151
-4.09277
-4.14741
-4.13399
-3.86637
-4.60365
-4.33319
-4.37691
-4.3657
-4.06342
-4.24746
-3.79704
-4.00833
-3.35804
-3.49646
-2.57924
-2.47005
-1.37972
-1.9247
-1.93781
-1.92566
-1.9035
-1.92056
-1.83928
-2.06318
-2.12755
-2.3097
-2.40571
-2.63365
-2.79561
-3.02824
-3.20881
-3.42414
-3.58622
-3.72714
-3.90027
-3.91217
-4.01981
-3.85294
-4.03568
-3.97602
-3.88008
-3.93197
-3.89759
-3.7058
-4.45129
-4.32242
-4.24838
-4.41652
-4.02614
-4.31343
-3.74738
-4.09138
-3.38213
-3.57796
-2.38029
-2.17679
-0.524396
-1.8293
-1.75867
-1.82252
-1.69732
-1.78206
-1.63826
-1.84933
-1.90526
-2.08687
-2.21856
-2.43975
-2.59625
-2.83948
-3.01657
-3.23693
-3.42108
-3.56644
-3.75282
-3.75062
-3.86729
-3.65735
-3.81004
-3.73317
-3.62813
-3.67688
-3.63901
-3.58211
-4.29388
-4.28497
-4.21991
-4.39483
-3.90182
-4.28484
-3.63481
-3.96785
-3.16567
-3.43635
-1.80276
-1.60993
1.14985
-2.00557
-2.07708
-1.98567
-1.9777
-1.88717
-1.85192
-1.82933
-1.92278
-2.07785
-2.18174
-2.38728
-2.53423
-2.75793
-2.92804
-3.14522
-3.33322
-3.50792
-3.68485
-3.72918
-3.79671
-3.55854
-3.67475
-3.58035
-3.43641
-3.46577
-3.37734
-3.48087
-4.12818
-4.28361
-4.17686
-4.43738
-3.97912
-4.32077
-3.63699
-4.13645
-3.11324
-3.67867
-1.61532
-1.23126
2.85148
-2.31813
-1.86568
-1.97844
-1.63351
-1.69695
-1.51394
-1.56974
-1.67563
-1.84252
-1.96191
-2.18398
-2.33046
-2.57045
-2.74406
-2.97476
-3.17614
-3.36926
-3.58588
-3.63988
-3.65956
-3.42524
-3.45306
-3.31648
-3.16901
-3.21338
-3.11712
-3.43674
-3.96106
-4.27125
-4.15656
-4.4473
-3.92419
-4.26157
-3.44819
-3.92237
-2.59405
-3.03959
-0.48407
0.293555
7.35564
-2.18277
-2.41601
-2.23716
-2.20273
-1.76243
-1.67431
-1.59576
-1.65741
-1.8096
-1.90585
-2.10579
-2.2479
-2.47361
-2.64288
-2.86632
-3.0715
-3.28986
-3.5363
-3.69651
-3.59671
-3.42715
-3.35555
-3.18078
-2.94398
-3.03339
-2.89194
-3.38274
-3.8029
-4.21614
-4.1069
-4.45775
-3.95517
-4.35632
-3.52741
-4.08029
-2.70818
-3.28086
0.267161
1.88275
11.3691
-4.71222
-1.88966
-2.20147
-1.76216
-1.64767
-1.39421
-1.45162
-1.50094
-1.68612
-1.80929
-2.03423
-2.17267
-2.4051
-2.57151
-2.79541
-3.00052
-3.27317
-3.5154
-3.69013
-3.5056
-3.29882
-3.14884
-2.90348
-2.66034
-2.87235
-2.85411
-3.51632
-3.91064
-4.35153
-4.17877
-4.46754
-3.84414
-4.19199
-3.33241
-3.68908
-1.91185
-1.59249
4.36345
9.32454
24.3413
-0.114225
-0.223013
-0.31759
-0.394658
-0.463007
-0.522963
-0.581201
-0.636292
-0.691462
-0.746425
-0.780466
-0.856359
-0.897543
-0.972568
-1.00222
-1.0864
-1.07093
-1.19502
-1.14278
-1.37178
-1.17118
-1.36267
-1.37918
-1.43046
-1.32732
-1.30811
-1.20251
-1.17287
-1.116
-1.10182
-1.1002
-1.0931
-1.15278
-1.17461
-1.21956
-1.23237
-1.26154
-1.267
-1.27649
-1.26915
-0.21624
-0.278359
-0.343964
-0.408994
-0.465696
-0.523117
-0.570003
-0.62758
-0.652517
-0.721326
-0.747542
-0.840868
-0.855508
-0.921042
-0.933086
-1.01472
-1.01649
-1.14
-1.0565
-1.28139
-1.17773
-1.3546
-1.37234
-1.43946
-1.34628
-1.35058
-1.25887
-1.24026
-1.18905
-1.16496
-1.15479
-1.15839
-1.14503
-1.16324
-1.20316
-1.21921
-1.2524
-1.25618
-1.2681
-1.25825
-0.301073
-0.327206
-0.371787
-0.419105
-0.474099
-0.519471
-0.573584
-0.610138
-0.684152
-0.727726
-0.773201
-0.830394
-0.874217
-0.951352
-1.00045
-1.11961
-1.12232
-1.24633
-1.19629
-1.4532
-1.41805
-1.64273
-1.74503
-1.86043
-1.79756
-1.81836
-1.73898
-1.713
-1.63653
-1.56629
-1.48239
-1.39698
-1.35539
-1.31265
-1.30722
-1.27925
-1.29327
-1.28647
-1.29326
-1.28837
-0.341073
-0.362376
-0.391156
-0.432182
-0.468102
-0.516218
-0.562279
-0.61598
-0.669271
-0.73328
-0.786082
-0.867091
-0.939467
-1.05792
-1.11527
-1.24484
-1.27708
-1.43163
-1.41851
-1.70025
-1.73461
-1.9969
-2.13525
-2.26105
-2.2082
-2.22289
-2.13286
-2.07589
-1.96741
-1.85661
-1.73751
-1.60439
-1.49843
-1.40761
-1.38107
-1.33833
-1.34316
-1.3236
-1.32746
-1.3258
-0.375758
-0.385537
-0.408518
-0.439482
-0.496928
-0.51553
-0.582111
-0.649122
-0.726371
-0.80473
-0.894489
-1.01984
-1.12201
-1.24029
-1.32919
-1.48181
-1.53983
-1.70398
-1.74013
-1.99177
-2.02451
-2.28726
-2.44517
-2.55809
-2.50183
-2.51826
-2.42489
-2.36818
-2.23438
-2.10057
-1.94586
-1.8119
-1.68009
-1.56152
-1.47481
-1.41712
-1.39188
-1.37494
-1.37309
-1.37595
-0.401949
-0.401275
-0.431253
-0.470337
-0.488781
-0.534489
-0.602188
-0.699144
-0.829685
-0.957865
-1.08058
-1.19441
-1.30534
-1.43995
-1.53864
-1.70372
-1.7834
-1.92465
-1.94169
-2.17265
-2.23544
-2.49238
-2.65068
-2.76108
-2.71811
-2.70667
-2.61725
-2.53366
-2.44034
-2.29323
-2.1404
-1.97018
-1.82855
-1.71581
-1.60387
-1.5015
-1.46811
-1.44157
-1.43546
-1.4411
-0.427832
-0.430548
-0.469177
-0.505799
-0.562843
-0.606264
-0.72427
-0.900887
-1.01246
-1.12832
-1.25052
-1.39223
-1.52188
-1.66062
-1.78121
-1.9098
-1.99482
-2.13524
-2.17134
-2.3537
-2.44085
-2.61701
-2.76782
-2.87302
-2.83461
-2.82981
-2.74992
-2.68642
-2.56066
-2.44522
-2.28568
-2.11898
-1.95142
-1.80424
-1.70365
-1.57477
-1.51884
-1.49674
-1.48974
-1.49881
-0.457722
-0.463116
-0.507663
-0.564474
-0.641514
-0.704545
-0.894921
-0.981559
-1.13782
-1.28051
-1.42396
-1.58145
-1.71744
-1.86275
-1.97389
-2.10973
-2.18684
-2.31646
-2.37095
-2.50089
-2.60768
-2.71842
-2.84509
-2.96431
-2.94543
-2.94686
-2.88285
-2.82082
-2.72321
-2.59399
-2.44868
-2.29226
-2.12435
-1.95756
-1.8378
-1.7018
-1.62331
-1.59287
-1.57798
-1.58785
-0.486062
-0.489863
-0.550359
-0.615716
-0.725998
-0.826074
-0.999147
-1.14458
-1.28876
-1.45075
-1.60099
-1.75204
-1.90074
-2.04685
-2.1676
-2.29284
-2.38307
-2.49598
-2.56243
-2.65391
-2.74748
-2.83763
-2.92354
-3.05708
-3.05578
-3.06597
-3.01126
-2.95611
-2.84106
-2.73178
-2.59689
-2.43001
-2.27347
-2.0482
-1.92902
-1.77923
-1.69427
-1.64947
-1.6433
-1.65325
-0.547577
-0.551697
-0.625217
-0.716247
-0.831798
-0.969194
-1.12328
-1.27965
-1.43676
-1.60814
-1.7419
-1.91641
-2.05725
-2.2005
-2.32372
-2.44889
-2.54215
-2.65365
-2.72984
-2.82023
-2.8954
-2.99586
-3.02619
-3.1595
-3.18532
-3.19107
-3.15561
-3.07982
-2.99298
-2.85787
-2.75206
-2.65498
-2.48217
-2.32755
-2.09649
-1.93199
-1.80657
-1.77075
-1.74483
-1.76194
-0.581576
-0.585524
-0.675694
-0.769273
-0.956032
-1.05336
-1.24354
-1.39706
-1.55238
-1.74644
-1.8997
-2.05916
-2.19574
-2.33633
-2.46875
-2.58957
-2.68797
-2.78901
-2.87015
-2.96312
-3.02803
-3.13994
-3.14377
-3.28501
-3.3048
-3.32495
-3.2696
-3.22835
-3.09111
-3.03776
-2.94041
-2.76474
-2.60221
-2.37616
-2.20848
-2.01615
-1.88011
-1.83854
-1.81925
-1.83366
-0.682295
-0.690992
-0.783563
-0.918167
-1.0708
-1.22237
-1.36651
-1.54496
-1.70904
-1.85674
-2.0059
-2.19612
-2.32934
-2.45996
-2.59144
-2.71815
-2.81743
-2.92138
-3.00708
-3.10625
-3.17231
-3.27784
-3.28455
-3.41871
-3.44646
-3.45408
-3.4252
-3.33192
-3.2831
-3.212
-3.0522
-2.94366
-2.77991
-2.64773
-2.42159
-2.22469
-2.0052
-1.95781
-1.94307
-1.96318
-0.731422
-0.737475
-0.849128
-0.986416
-1.16358
-1.31029
-1.48913
-1.63039
-1.78583
-1.96074
-2.11395
-2.25512
-2.42135
-2.5772
-2.72199
-2.85114
-2.95978
-3.06183
-3.15433
-3.25638
-3.3156
-3.41667
-3.40106
-3.53422
-3.56197
-3.58955
-3.53567
-3.49016
-3.44536
-3.31975
-3.26908
-3.12948
-2.94812
-2.71139
-2.50586
-2.33648
-2.16618
-2.0067
-2.02833
-2.03635
-0.858393
-0.868227
-0.980108
-1.12214
-1.2933
-1.45276
-1.62553
-1.77983
-1.92907
-2.079
-2.2055
-2.39823
-2.51958
-2.68761
-2.86444
-2.99456
-3.10753
-3.21299
-3.31911
-3.41071
-3.47184
-3.52944
-3.49146
-3.62721
-3.69458
-3.72473
-3.65327
-3.65157
-3.56435
-3.53914
-3.43222
-3.29754
-3.11481
-2.92514
-2.67286
-2.50103
-2.34823
-2.20774
-2.15282
-2.20721
-0.906644
-0.914213
-1.03267
-1.1795
-1.361
-1.52624
-1.70581
-1.84415
-1.9973
-2.14858
-2.29919
-2.4518
-2.59539
-2.73283
-3.04212
-3.15644
-3.28715
-3.39609
-3.50581
-3.58929
-3.6435
-3.60168
-3.66852
-3.78113
-3.83908
-3.87486
-3.85471
-3.79566
-3.73488
-3.66767
-3.56594
-3.43162
-3.2646
-3.05646
-2.8189
-2.60756
-2.42959
-2.34753
-2.19862
-2.27869
-1.01754
-1.02614
-1.14284
-1.28927
-1.47132
-1.63208
-1.79437
-1.9423
-2.10302
-2.26523
-2.43979
-2.62705
-2.80348
-2.93969
-3.14253
-3.34209
-3.46538
-3.58294
-3.71203
-3.78756
-3.76002
-3.80995
-3.87324
-3.95266
-3.96621
-4.01072
-3.90595
-3.91962
-3.89215
-3.82498
-3.73351
-3.62331
-3.47653
-3.29622
-3.0677
-2.848
-2.63363
-2.55899
-2.42193
-2.46718
-1.0452
-1.06129
-1.1786
-1.33663
-1.5287
-1.67613
-1.8492
-1.98508
-2.1393
-2.30308
-2.47972
-2.67833
-2.87662
-3.06729
-3.22365
-3.54694
-3.67665
-3.83044
-3.92747
-3.96723
-4.01323
-4.06597
-4.12384
-4.15756
-4.1529
-4.16434
-4.24367
-4.1277
-4.04675
-3.93411
-3.83176
-3.71012
-3.57609
-3.39997
-3.1898
-2.96925
-2.76031
-2.62111
-2.52996
-2.51548
-1.07541
-1.08825
-1.18291
-1.33449
-1.50736
-1.66761
-1.82555
-1.97608
-2.15951
-2.36426
-2.61099
-2.85719
-3.08596
-3.27405
-3.45543
-3.78028
-3.87846
-4.08402
-4.18989
-4.27126
-4.33071
-4.36111
-4.3888
-4.39929
-4.45396
-4.34359
-4.298
-4.24415
-4.17619
-4.09311
-4.01818
-3.93418
-3.82833
-3.68609
-3.49362
-3.27294
-2.99103
-2.86583
-2.77184
-2.74723
-0.982899
-1.02029
-1.10352
-1.25967
-1.4166
-1.59807
-1.74929
-1.90099
-2.08359
-2.33482
-2.62631
-2.93972
-3.20187
-3.44259
-3.63587
-3.86789
-4.26633
-4.47154
-4.59847
-4.67838
-4.71639
-4.70106
-4.68261
-4.6411
-4.67164
-4.52986
-4.40612
-4.29604
-4.20894
-4.08988
-3.99982
-3.9063
-3.81849
-3.68033
-3.5087
-3.35459
-3.13827
-2.93532
-2.94238
-2.92994
-0.951966
-0.953563
-1.00501
-1.09948
-1.20814
-1.3243
-1.42617
-1.64632
-2.00536
-2.39172
-2.81441
-3.23584
-3.58802
-3.83816
-4.06495
-4.29448
-4.55451
-4.93182
-5.05177
-5.10911
-5.11534
-5.06197
-4.99978
-4.9789
-4.79539
-4.69739
-4.55739
-4.39571
-4.28484
-4.2037
-4.16841
-4.08028
-3.99905
-3.91266
-3.7791
-3.57459
-3.28124
-3.04202
-2.84004
-2.84208
-1.01003
-0.970197
-1.01499
-1.10277
-1.22634
-1.34628
-1.44553
-1.67019
-2.01523
-2.42176
-2.86515
-3.33967
-3.73987
-4.07644
-4.35434
-4.61465
-4.93514
-5.23505
-5.50698
-5.52284
-5.52579
-5.40541
-5.29904
-5.17104
-5.01491
-4.85608
-4.70219
-4.51377
-4.35491
-4.15617
-3.98891
-3.81206
-3.75989
-3.74174
-3.77294
-3.65823
-3.49493
-3.35338
-3.30858
-3.39135
-1.0395
-0.998548
-1.03627
-1.09905
-1.23104
-1.31608
-1.44022
-1.63973
-2.02166
-2.48326
-3.00827
-3.54794
-3.98889
-4.34665
-4.67877
-4.98515
-5.31062
-5.58284
-5.85215
-5.94157
-5.8477
-5.73899
-5.57333
-5.38558
-5.20405
-5.00386
-4.84135
-4.64303
-4.4857
-4.27289
-4.11587
-3.89562
-3.70626
-3.42218
-3.11604
-2.92532
-2.80272
-2.69139
-2.63489
-2.70063
-1.06612
-1.06028
-1.10182
-1.17479
-1.29943
-1.4134
-1.53922
-1.72273
-2.08081
-2.56614
-3.13195
-3.67637
-4.12496
-4.51234
-4.88198
-5.22517
-5.57647
-5.83701
-6.12809
-6.23877
-6.22478
-5.90817
-5.84835
-5.56762
-5.35336
-5.11187
-4.93047
-4.71693
-4.55623
-4.33677
-4.16524
-3.93291
-3.78533
-3.50907
-3.26818
-3.04395
-2.88724
-2.73177
-2.61507
-2.73172
-1.13727
-1.1272
-1.17133
-1.23246
-1.35606
-1.4742
-1.61109
-1.78829
-2.12785
-2.63702
-3.21739
-3.74861
-4.20445
-4.60207
-4.99415
-5.35463
-5.71571
-5.98606
-6.22519
-6.38396
-6.35951
-6.14046
-5.87703
-5.54183
-5.43101
-5.16169
-4.97782
-4.72908
-4.57902
-4.3336
-4.18565
-3.92081
-3.73754
-3.43765
-3.2536
-3.03286
-2.8923
-2.6852
-2.51988
-2.58187
-1.21707
-1.21025
-1.2598
-1.32213
-1.44006
-1.57823
-1.707
-1.88006
-2.20242
-2.69215
-3.24974
-3.76073
-4.21302
-4.60598
-5.01172
-5.38127
-5.75185
-6.00323
-6.24467
-6.40549
-6.41912
-6.22113
-6.00402
-5.5947
-5.43608
-5.08425
-4.97951
-4.7433
-4.59392
-4.3692
-4.25003
-4.01179
-3.89272
-3.63707
-3.52497
-3.31556
-3.21158
-3.00439
-2.85491
-2.92796
-1.286
-1.2651
-1.32387
-1.3818
-1.49275
-1.61361
-1.75736
-1.94993
-2.27168
-2.71824
-3.22695
-3.6974
-4.12493
-4.51229
-4.92606
-5.28618
-5.65097
-5.90045
-6.18116
-6.27674
-6.28951
-6.12515
-5.88993
-5.64755
-5.35166
-5.09893
-4.86556
-4.66948
-4.54287
-4.24404
-4.12215
-3.81554
-3.70338
-3.42443
-3.34428
-3.12392
-3.049
-2.82809
-2.72148
-2.71462
-1.37777
-1.36776
-1.41271
-1.47918
-1.58169
-1.70389
-1.85934
-2.05205
-2.36498
-2.76772
-3.21718
-3.62434
-4.03066
-4.39711
-4.786
-5.13617
-5.50506
-5.80133
-6.0247
-6.09189
-6.10692
-6.10475
-5.89669
-5.57765
-5.39467
-5.01493
-4.91023
-4.67919
-4.58432
-4.43424
-4.51081
-4.40436
-4.48195
-4.31111
-4.31236
-4.08259
-3.98817
-3.75269
-3.52242
-3.37505
-1.42771
-1.41682
-1.44655
-1.51079
-1.61411
-1.72593
-1.90282
-2.10115
-2.40388
-2.74979
-3.14202
-3.50592
-3.88701
-4.23172
-4.61587
-4.93725
-5.31509
-5.58948
-5.78783
-5.79358
-5.98368
-5.92531
-5.74732
-5.52537
-5.35297
-5.08429
-4.93334
-4.70895
-4.7491
-4.58447
-4.65897
-4.42785
-4.46141
-4.24008
-4.31498
-4.13792
-4.2205
-4.07923
-4.0012
-4.04871
-1.54381
-1.5368
-1.56115
-1.60038
-1.71353
-1.81374
-1.99902
-2.18674
-2.47735
-2.7761
-3.12334
-3.4382
-3.78718
-4.09778
-4.45609
-4.76693
-5.0947
-5.33167
-5.47928
-5.66854
-5.63744
-5.64182
-5.52988
-5.36782
-5.28083
-5.06896
-4.98968
-4.84174
-4.7976
-4.58755
-4.70279
-4.49656
-4.53799
-4.29574
-4.37761
-4.17236
-4.23874
-3.9938
-3.93873
-3.82376
-1.56363
-1.5555
-1.57974
-1.59467
-1.70936
-1.81984
-2.00504
-2.18376
-2.44029
-2.70799
-3.01727
-3.29641
-3.61505
-3.88968
-4.21982
-4.49161
-4.78986
-4.96234
-5.16933
-5.26892
-5.29482
-5.2398
-5.24749
-5.12761
-5.08065
-4.92188
-4.83738
-4.73434
-4.79989
-4.59031
-4.62144
-4.32302
-4.37807
-4.11229
-4.23114
-3.94585
-4.091
-3.74059
-3.75026
-3.52678
-1.69689
-1.69295
-1.70799
-1.70999
-1.79186
-1.92286
-2.09813
-2.24684
-2.49519
-2.70855
-2.99054
-3.23005
-3.51503
-3.75654
-4.03715
-4.2932
-4.54075
-4.69126
-4.87553
-4.98238
-5.06594
-4.98638
-4.99492
-4.88678
-4.8646
-4.73116
-4.6045
-4.79611
-4.69251
-4.54795
-4.58957
-4.3536
-4.39564
-4.02869
-4.2361
-3.90141
-4.05506
-3.63238
-3.581
-3.23149
-1.67924
-1.66464
-1.6905
-1.6761
-1.73119
-1.85542
-2.05142
-2.18572
-2.40885
-2.60157
-2.84794
-3.06959
-3.33894
-3.55146
-3.84187
-4.07393
-4.28331
-4.51977
-4.58974
-4.65793
-4.60637
-4.65038
-4.67749
-4.60017
-4.59879
-4.50229
-4.39816
-4.74432
-4.62316
-4.46015
-4.45942
-4.2547
-4.36053
-3.95647
-4.09977
-3.6893
-3.96183
-3.40373
-3.41545
-2.87227
-1.82977
-1.82395
-1.83354
-1.83229
-1.84875
-1.92229
-2.12955
-2.24091
-2.42259
-2.59449
-2.82764
-3.0211
-3.24929
-3.43702
-3.62907
-3.80721
-3.99222
-4.21365
-4.31555
-4.44445
-4.31067
-4.41528
-4.415
-4.34473
-4.35592
-4.29211
-4.18271
-4.63006
-4.55424
-4.40051
-4.45939
-4.14062
-4.36864
-3.89856
-4.21977
-3.64283
-3.91104
-3.34224
-3.36007
-2.55161
-1.75779
-1.73106
-1.78143
-1.70911
-1.78128
-1.74768
-2.01599
-2.09385
-2.29971
-2.42545
-2.6672
-2.84229
-3.06953
-3.24492
-3.48279
-3.66437
-3.83489
-4.00993
-4.03769
-4.14819
-4.03315
-4.14746
-4.12915
-4.07644
-4.10427
-4.08319
-3.98903
-4.49297
-4.44204
-4.32386
-4.38338
-4.05511
-4.25
-3.83283
-4.09299
-3.5918
-3.85727
-2.98891
-3.2828
-1.99507
-1.93444
-1.94945
-1.93621
-1.9301
-1.90173
-1.86273
-2.04703
-2.13847
-2.31077
-2.41742
-2.63171
-2.78991
-3.01361
-3.19735
-3.38551
-3.56569
-3.74137
-3.91092
-3.93205
-3.9917
-3.83174
-3.96365
-3.93846
-3.86701
-3.87808
-3.8389
-3.79976
-4.33313
-4.40547
-4.30189
-4.46581
-4.0164
-4.33666
-3.7727
-4.18262
-3.52792
-4.03217
-3.07033
-3.17935
-1.45287
-1.82122
-1.77331
-1.83171
-1.7169
-1.80324
-1.63526
-1.84848
-1.92966
-2.12441
-2.24037
-2.45828
-2.6003
-2.84632
-3.00541
-3.2348
-3.43713
-3.61591
-3.7744
-3.7904
-3.87753
-3.67817
-3.745
-3.69297
-3.61011
-3.6329
-3.57126
-3.64942
-4.15991
-4.34342
-4.21907
-4.44581
-3.95715
-4.29965
-3.64577
-4.12231
-3.26569
-3.89807
-2.57662
-3.12587
0.00272497
-2.00295
-2.09981
-2.00996
-2.00849
-1.93216
-1.85326
-1.86754
-1.97905
-2.12415
-2.22942
-2.41742
-2.57265
-2.79252
-2.96191
-3.1786
-3.37024
-3.55608
-3.7157
-3.79032
-3.83851
-3.6542
-3.63534
-3.5564
-3.43417
-3.41714
-3.32498
-3.52724
-3.99261
-4.29699
-4.17542
-4.48382
-4.0087
-4.39088
-3.69562
-4.27365
-3.28228
-4.044
-2.37224
-3.07999
1.76921
-2.25485
-1.8477
-1.97782
-1.66816
-1.72338
-1.57605
-1.60645
-1.71882
-1.89892
-2.01091
-2.24559
-2.38588
-2.63187
-2.80949
-3.05162
-3.27256
-3.45553
-3.69339
-3.79667
-3.74385
-3.54063
-3.52081
-3.3425
-3.14837
-3.20238
-3.06153
-3.4396
-3.86464
-4.29359
-4.16319
-4.51251
-3.9445
-4.36031
-3.54672
-4.08924
-2.81
-3.4026
-1.08954
-0.802774
6.92019
-1.98147
-2.40361
-2.27429
-2.26411
-1.95916
-1.71457
-1.69715
-1.73777
-1.87584
-1.97062
-2.17523
-2.33602
-2.56583
-2.738
-2.97148
-3.20309
-3.44705
-3.66726
-3.86566
-3.77984
-3.60051
-3.49365
-3.21926
-2.95683
-3.02521
-2.85809
-3.35651
-3.68459
-4.20983
-4.10933
-4.48416
-3.98022
-4.40767
-3.53062
-4.12465
-2.76268
-3.2696
0.148955
2.25341
13.8559
-4.62468
-1.83152
-2.09669
-1.69959
-1.62231
-1.42182
-1.47196
-1.52474
-1.72056
-1.84208
-2.06338
-2.19388
-2.43766
-2.6297
-2.89265
-3.14216
-3.43309
-3.73528
-3.90979
-3.63345
-3.44468
-3.24941
-2.90638
-2.6407
-2.84098
-2.78492
-3.47988
-3.81874
-4.34019
-4.19759
-4.53189
-3.86164
-4.20936
-3.29356
-3.67087
-1.81307
-1.23838
4.86457
12.3546
30.7471
-0.24651
-0.293897
-0.350278
-0.406607
-0.468832
-0.524774
-0.583853
-0.633177
-0.685933
-0.732338
-0.792213
-0.85702
-0.901128
-0.981515
-1.00298
-1.101
-1.10696
-1.21524
-1.12164
-1.34848
-1.1116
-1.40614
-1.40149
-1.46013
-1.34666
-1.29784
-1.17727
-1.12453
-1.05914
-1.04487
-1.05006
-1.08364
-1.07616
-1.16073
-1.2096
-1.23822
-1.26719
-1.26563
-1.27429
-1.26822
-0.296906
-0.32259
-0.367835
-0.41108
-0.473137