/*--------------------------------*- C++ -*----------------------------------*\
| =========                 |                                                 |
| \\      /  F ield         | OpenFOAM: The Open Source CFD Toolbox           |
|  \\    /   O peration     | Version:  v1806                                 |
|   \\  /    A nd           | Web:      www.OpenFOAM.com                      |
|    \\/     M anipulation  |                                                 |
\*---------------------------------------------------------------------------*/
FoamFile
{
    version     2.0;
    format      ascii;
    class       volVectorField;
    location    "0.089";
    object      U;
}
// * * * * * * * * * * * * * * * * * * * * * * * * * * * * * * * * * * * * * //

dimensions      [0 1 -1 0 0 0 0];


internalField   nonuniform List<vector> 
64000
(
(-0.0101038 -0.011699 -0.00815034)
(0.0150496 -0.0113966 -0.00568196)
(0.0212647 -0.00384212 0.000351893)
(0.0259322 -0.0032809 0.00111728)
(0.0271709 -0.00231955 0.00145237)
(0.0275431 -0.00271086 0.0020598)
(0.0271131 -0.00370939 0.00225565)
(0.0238852 -0.00405832 0.00273959)
(0.0226728 -0.00501377 0.00411206)
(0.0157513 -0.00469456 0.00373799)
(0.0101054 -0.00524396 0.00553529)
(-0.00215805 -0.00807861 0.00669368)
(-0.0200983 -0.0124552 0.00597643)
(-0.0445133 -0.017491 0.00384143)
(-0.0725229 -0.0180316 0.00476942)
(-0.108964 -0.0170469 0.00240208)
(-0.136644 -7.70984e-06 0.0015089)
(-0.181776 -0.00447282 -0.0028177)
(-0.179842 -0.00954071 0.00491646)
(-0.241046 -0.0271632 -0.0142987)
(-0.211922 -0.0211239 -0.0212569)
(-0.105995 -0.0228938 -0.0382031)
(-0.109344 -0.00790496 -0.0253497)
(-0.107478 -0.00294848 -0.0371403)
(-0.125271 0.0032084 -0.0481673)
(-0.119441 0.0113788 -0.0578087)
(-0.107884 0.0214642 -0.0624666)
(-0.0715292 0.0322407 -0.0587005)
(-0.0374525 0.0391916 -0.0541176)
(0.00625291 0.0509733 -0.039522)
(0.0512472 0.0479867 -0.0320013)
(0.0874781 0.0383638 -0.0247158)
(0.103738 0.0279858 -0.0125437)
(0.100635 0.0143403 -0.0051305)
(0.0870484 0.00577739 0.00105557)
(0.0686967 -0.00221668 0.00366081)
(0.049701 -0.00622054 0.00473275)
(0.0296594 -0.00557991 0.00557372)
(0.015792 -0.00410532 0.00603958)
(0.00206564 -0.00266359 0.00392958)
(-0.00723244 0.00229509 -0.00454)
(0.00877998 -0.0163435 -0.00429576)
(0.0240859 -0.010587 -0.00186972)
(0.0345971 -0.0070446 -0.000942105)
(0.0402651 -0.00239167 -0.00138364)
(0.0403625 -0.000482768 -0.00174115)
(0.0391514 0.00348442 -0.00323157)
(0.0320715 0.00503568 -0.0029222)
(0.0249637 0.01048 -0.00722595)
(0.00758078 0.016242 -0.00410045)
(-0.0160727 0.0248541 -0.0082596)
(-0.0531685 0.0321013 0.000775765)
(-0.10009 0.0425776 -0.00404572)
(-0.152506 0.0620612 -0.00681461)
(-0.210639 0.0754881 -0.0113724)
(-0.268764 0.084429 -0.0182657)
(-0.34644 0.0929601 -0.0438314)
(-0.452024 0.0950561 -0.0587672)
(-0.497994 0.101265 -0.0762927)
(-0.584508 0.100652 -0.0978675)
(-0.538295 0.128193 -0.0950692)
(-0.404085 0.143252 -0.1257)
(-0.389019 0.188676 -0.135513)
(-0.373453 0.212631 -0.145616)
(-0.36446 0.237227 -0.157386)
(-0.32559 0.258588 -0.163654)
(-0.277309 0.279521 -0.165082)
(-0.205185 0.294859 -0.153484)
(-0.129873 0.301044 -0.133668)
(-0.0569401 0.305237 -0.109954)
(0.00702612 0.289796 -0.0767474)
(0.0704407 0.259258 -0.0467022)
(0.108089 0.211299 -0.0390118)
(0.12049 0.159711 -0.0262969)
(0.11557 0.10922 -0.0128603)
(0.0970067 0.0695512 -0.00539003)
(0.077783 0.0410389 -0.00103462)
(0.0534215 0.0262678 -5.01614e-05)
(0.0319225 0.0164326 0.00141873)
(0.00773606 0.00800353 0.00150951)
(-0.000492269 -0.00483782 0.0015508)
(0.0151855 -0.022211 -0.00195007)
(0.0320958 -0.016982 -0.002998)
(0.0428983 -0.00491728 -0.00423376)
(0.0451697 0.00469105 -0.00588321)
(0.043083 0.0158553 -0.00721362)
(0.0359152 0.030917 -0.00832377)
(0.021676 0.045078 -0.0098274)
(0.00596305 0.0691754 -0.00181001)
(-0.0243113 0.0900337 -0.00498897)
(-0.0621988 0.116781 -0.0081662)
(-0.115015 0.149153 -0.0132559)
(-0.169821 0.182762 -0.0178316)
(-0.24813 0.211488 -0.0323974)
(-0.343754 0.231541 -0.0357393)
(-0.440277 0.245157 -0.0423725)
(-0.524264 0.250272 -0.0591035)
(-0.612582 0.270033 -0.0778712)
(-0.6534 0.300397 -0.0956414)
(-0.724843 0.335192 -0.11599)
(-0.664625 0.373354 -0.105324)
(-0.503893 0.403164 -0.123821)
(-0.465339 0.460076 -0.125274)
(-0.438575 0.490657 -0.123421)
(-0.420583 0.522783 -0.126396)
(-0.377442 0.544236 -0.124929)
(-0.328656 0.558631 -0.120331)
(-0.26242 0.561742 -0.105108)
(-0.196449 0.551688 -0.0829304)
(-0.130445 0.531479 -0.0594693)
(-0.0750328 0.499761 -0.0400211)
(-0.0305775 0.452123 -0.0278606)
(0.00286375 0.379601 -0.0172621)
(0.0251183 0.306933 -0.00866574)
(0.0386838 0.227468 -0.0107481)
(0.0451228 0.162795 -0.0109341)
(0.0457919 0.11537 -0.00730378)
(0.0371744 0.0784418 -0.00509117)
(0.0265222 0.0523104 -0.00143484)
(0.00769318 0.0259986 0.00128222)
(0.000737256 -0.00895341 0.00195048)
(0.0175432 -0.0233396 -0.00125297)
(0.0383659 -0.0106937 -0.00381016)
(0.0459798 0.00629106 -0.00699771)
(0.0440722 0.0302199 -0.00772846)
(0.0400689 0.054686 -0.00929853)
(0.0274018 0.0899429 -0.00907543)
(0.00890203 0.122724 -0.00589539)
(-0.0180988 0.167396 -0.0106155)
(-0.0639276 0.207407 -0.0130229)
(-0.10981 0.251593 -0.0173786)
(-0.174609 0.288859 -0.025006)
(-0.258275 0.317853 -0.0274756)
(-0.348939 0.334639 -0.029171)
(-0.434849 0.355785 -0.0318871)
(-0.514244 0.379128 -0.0365357)
(-0.582425 0.409513 -0.0516751)
(-0.657625 0.438339 -0.0616688)
(-0.684508 0.480198 -0.0711828)
(-0.742059 0.525311 -0.0777987)
(-0.671004 0.558573 -0.0469761)
(-0.489278 0.579342 -0.0456668)
(-0.436478 0.621591 -0.0400518)
(-0.409923 0.628075 -0.0294864)
(-0.392981 0.641299 -0.0273083)
(-0.358979 0.641548 -0.0223616)
(-0.321865 0.634179 -0.0188939)
(-0.272305 0.615302 -0.0112585)
(-0.223933 0.58958 0.000718891)
(-0.178206 0.556755 0.00795291)
(-0.147086 0.51581 0.0128764)
(-0.121668 0.471159 0.0115852)
(-0.0978499 0.411999 0.00574347)
(-0.0754563 0.349479 -0.00226617)
(-0.0519896 0.269828 -0.0058275)
(-0.021942 0.202237 -0.0106391)
(-0.00105832 0.147514 -0.0108558)
(0.00791671 0.111311 -0.00812022)
(0.0162203 0.0782185 -0.00361249)
(0.00608463 0.0383763 0.00100052)
(0.00106942 -0.00923548 0.000662476)
(0.0233942 -0.0124856 -0.00414549)
(0.045708 0.00437031 -0.00782244)
(0.0545323 0.038646 -0.00875936)
(0.0520458 0.0758641 -0.00839849)
(0.0462493 0.121637 -0.0156364)
(0.0281269 0.176238 -0.0134844)
(0.000256066 0.235989 -0.00653731)
(-0.0326345 0.292148 -0.00803561)
(-0.0858133 0.33938 -0.010179)
(-0.14588 0.376798 -0.0129788)
(-0.224298 0.396899 -0.0156221)
(-0.298892 0.419543 -0.0164124)
(-0.373841 0.444258 -0.0215091)
(-0.445996 0.474306 -0.020929)
(-0.513879 0.506949 -0.0215847)
(-0.569205 0.535109 -0.0256997)
(-0.625601 0.570372 -0.0233998)
(-0.632885 0.617143 -0.0178681)
(-0.675663 0.663966 -0.0261259)
(-0.605974 0.691733 0.0048455)
(-0.417953 0.697119 0.0166337)
(-0.360706 0.710134 0.0278835)
(-0.343568 0.683196 0.0365698)
(-0.338687 0.666401 0.0367632)
(-0.32395 0.639985 0.0425199)
(-0.306823 0.608113 0.0437324)
(-0.275807 0.57118 0.0477466)
(-0.248076 0.53004 0.0409688)
(-0.222441 0.490222 0.032717)
(-0.202529 0.445088 0.0225757)
(-0.192503 0.411879 0.0153777)
(-0.183923 0.374172 0.00781357)
(-0.177232 0.343329 -0.00420387)
(-0.15412 0.278879 -0.0138693)
(-0.104606 0.209505 -0.0147486)
(-0.0531021 0.161577 -0.0139766)
(-0.0174769 0.131164 -0.0118241)
(0.00253816 0.0970438 -0.0063242)
(0.00321919 0.0482545 0.000989901)
(0.00582029 -0.00374045 -0.00011917)
(0.028435 0.00261739 -0.00682054)
(0.0597695 0.0293661 -0.00651996)
(0.0716236 0.0813313 -0.0101628)
(0.0661653 0.139163 -0.015123)
(0.0625833 0.202676 -0.0188623)
(0.0463236 0.277967 -0.0140891)
(0.0125022 0.332234 -0.00547958)
(-0.040402 0.377416 -0.00565398)
(-0.110494 0.411566 -0.00783091)
(-0.179859 0.441369 -0.00995997)
(-0.245241 0.468723 -0.0101405)
(-0.304531 0.502175 -0.00842868)
(-0.363116 0.530135 -0.0054024)
(-0.41286 0.559966 0.000263838)
(-0.465375 0.588389 0.00593978)
(-0.497656 0.618461 0.00887899)
(-0.532265 0.649572 0.00853133)
(-0.533658 0.698025 0.0104571)
(-0.563161 0.733171 0.00947925)
(-0.497211 0.757619 0.0387755)
(-0.326566 0.708573 0.0529966)
(-0.285686 0.690706 0.0633304)
(-0.290423 0.632789 0.0749921)
(-0.300274 0.592404 0.0769497)
(-0.3045 0.549504 0.0764547)
(-0.3034 0.506859 0.0737385)
(-0.292554 0.464775 0.0673188)
(-0.278213 0.417676 0.0652111)
(-0.26665 0.37907 0.0439086)
(-0.256923 0.335478 0.0324719)
(-0.245866 0.304752 0.017512)
(-0.231727 0.27875 0.00663054)
(-0.238624 0.266931 -0.00517305)
(-0.241707 0.242653 -0.0169454)
(-0.175872 0.19373 -0.0148028)
(-0.0937168 0.162568 -0.0155698)
(-0.0410294 0.136691 -0.012164)
(-0.00506905 0.10507 -0.00711245)
(0.00226451 0.0519195 0.00151835)
(0.00659873 0.00175137 -0.000969658)
(0.0379266 0.015803 -0.0102387)
(0.0807886 0.0564327 -0.0104506)
(0.105164 0.111716 -0.0126414)
(0.100199 0.1777 -0.0176437)
(0.0974865 0.250837 -0.0202151)
(0.0592372 0.318688 -0.0135207)
(-0.00458312 0.34717 0.00116085)
(-0.0559222 0.391034 -0.00379433)
(-0.113299 0.429003 -0.00439105)
(-0.162115 0.473804 -0.00440726)
(-0.213141 0.516003 -0.00247524)
(-0.259714 0.555888 0.000971413)
(-0.306928 0.589418 0.00602577)
(-0.346656 0.622578 0.0141659)
(-0.381776 0.647427 0.0195033)
(-0.404127 0.675187 0.0257328)
(-0.422502 0.687111 0.0290319)
(-0.41085 0.713032 0.0272826)
(-0.431268 0.72557 0.0178139)
(-0.425897 0.745679 0.0348352)
(-0.289376 0.638847 0.0561813)
(-0.234669 0.589988 0.0605383)
(-0.256509 0.527238 0.0722097)
(-0.276912 0.485218 0.0721694)
(-0.297973 0.44665 0.0713168)
(-0.312805 0.411603 0.0673618)
(-0.318613 0.376945 0.0599805)
(-0.317421 0.340011 0.0466823)
(-0.317901 0.305629 0.0306771)
(-0.314712 0.272477 0.0172961)
(-0.306549 0.24441 0.00451536)
(-0.29199 0.224165 -0.00372961)
(-0.286949 0.208677 -0.0110623)
(-0.289944 0.219278 -0.0196673)
(-0.227916 0.19419 -0.0213764)
(-0.128318 0.168394 -0.0222979)
(-0.0563756 0.14783 -0.0172082)
(-0.0102509 0.11428 -0.0110683)
(0.00222216 0.0570229 -0.000236633)
(0.0072633 0.00809142 -0.00378841)
(0.0454472 0.034549 -0.0139122)
(0.0993878 0.0836261 -0.0139293)
(0.125411 0.139734 -0.0117353)
(0.128221 0.199104 -0.0126743)
(0.11754 0.27243 -0.0137889)
(0.0569942 0.305309 -0.00366344)
(0.00583023 0.352159 0.00435532)
(-0.0258678 0.39845 9.91938e-05)
(-0.0760401 0.452423 0.00165878)
(-0.118402 0.497251 0.0021191)
(-0.161555 0.535291 0.00872965)
(-0.197912 0.56933 0.0144668)
(-0.22989 0.596688 0.0227495)
(-0.256909 0.623178 0.0271666)
(-0.286068 0.638561 0.0315083)
(-0.304008 0.6508 0.0344375)
(-0.322177 0.648888 0.0337655)
(-0.319484 0.644867 0.0310348)
(-0.332554 0.619454 0.0154171)
(-0.374778 0.625307 0.0171941)
(-0.291707 0.544106 0.0365724)
(-0.222254 0.462588 0.0392755)
(-0.244525 0.420982 0.0504188)
(-0.272678 0.385661 0.0537163)
(-0.303965 0.360337 0.0548471)
(-0.328987 0.334785 0.0556904)
(-0.346258 0.308624 0.0481509)
(-0.35637 0.28101 0.0384314)
(-0.363555 0.250776 0.0161464)
(-0.364722 0.21924 0.00715939)
(-0.354854 0.194474 -0.00223701)
(-0.33976 0.181762 -0.00960768)
(-0.321526 0.172068 -0.0136067)
(-0.328286 0.193438 -0.0230447)
(-0.277796 0.197707 -0.021328)
(-0.162436 0.173921 -0.022939)
(-0.0749479 0.157229 -0.017819)
(-0.0154051 0.121682 -0.0106666)
(0.0032201 0.0610037 0.000574736)
(0.00589187 0.0214479 -0.00652386)
(0.0538661 0.0659126 -0.0179523)
(0.119782 0.122331 -0.0194719)
(0.152091 0.17824 -0.0137891)
(0.160508 0.239526 -0.0142556)
(0.131425 0.293097 -0.0138482)
(0.0755383 0.326375 -0.00402798)
(0.0351302 0.384894 0.00370295)
(0.00799852 0.422555 0.00994648)
(-0.0263254 0.463658 0.00953228)
(-0.0660803 0.501024 0.0137992)
(-0.0978794 0.529055 0.0191917)
(-0.124139 0.552245 0.0267532)
(-0.14928 0.56616 0.0331135)
(-0.172725 0.571556 0.0354469)
(-0.198649 0.568473 0.0359737)
(-0.220738 0.562949 0.0346984)
(-0.247575 0.54638 0.0300147)
(-0.268346 0.532432 0.024013)
(-0.283235 0.497435 0.0100733)
(-0.334902 0.487389 -0.000467825)
(-0.314998 0.457469 0.0110946)
(-0.242428 0.358873 0.0204645)
(-0.243306 0.3406 0.026674)
(-0.276759 0.315619 0.0343657)
(-0.312198 0.300608 0.0384297)
(-0.346599 0.282874 0.0436024)
(-0.371405 0.261136 0.0392008)
(-0.391612 0.237785 0.0235684)
(-0.408522 0.204782 0.00760512)
(-0.410346 0.179916 -0.0022155)
(-0.397067 0.156824 -0.00810061)
(-0.381515 0.143532 -0.0133243)
(-0.353121 0.144023 -0.0221294)
(-0.342303 0.157087 -0.0257385)
(-0.307766 0.192974 -0.029944)
(-0.198082 0.176982 -0.0267312)
(-0.0902113 0.166955 -0.0249616)
(-0.0204501 0.13205 -0.0139229)
(0.00414605 0.0675693 -0.00163112)
(0.00772319 0.0373738 -0.00914709)
(0.0629406 0.103869 -0.0255407)
(0.138474 0.164444 -0.0245001)
(0.177531 0.21841 -0.0150267)
(0.180953 0.273214 -0.0156966)
(0.150201 0.306771 -0.0148461)
(0.106888 0.35262 -0.00520368)
(0.0742879 0.39985 0.00652117)
(0.0439882 0.438582 0.0136128)
(0.0192009 0.465214 0.0244496)
(-0.00705328 0.48893 0.0217082)
(-0.0375795 0.502335 0.0320219)
(-0.0609153 0.510778 0.0373273)
(-0.0842842 0.502656 0.0429567)
(-0.107391 0.488247 0.0432961)
(-0.134554 0.465404 0.0401371)
(-0.162174 0.442932 0.0347467)
(-0.193426 0.417095 0.0270332)
(-0.22533 0.400332 0.0182238)
(-0.255194 0.381019 0.00435077)
(-0.307431 0.364831 -0.00879223)
(-0.339488 0.364463 -0.00696677)
(-0.274562 0.29589 0.00954957)
(-0.241368 0.286163 0.0118424)
(-0.277844 0.268372 0.0228239)
(-0.313817 0.260399 0.029669)
(-0.354005 0.241706 0.0391089)
(-0.386365 0.225466 0.0325431)
(-0.415223 0.195894 0.0242736)
(-0.430066 0.169344 0.00852423)
(-0.435352 0.141373 0.00961104)
(-0.429554 0.119226 0.0163525)
(-0.409571 0.0999053 0.0127389)
(-0.383409 0.101451 0.00837897)
(-0.362961 0.114722 -0.0146338)
(-0.330894 0.162981 -0.0255767)
(-0.228494 0.174113 -0.0257462)
(-0.10824 0.167071 -0.0217207)
(-0.0263429 0.139793 -0.0130882)
(0.00509041 0.0719667 -0.000469611)
(0.00881619 0.0607993 -0.0117625)
(0.0719124 0.147695 -0.0318265)
(0.156485 0.211774 -0.0310827)
(0.201867 0.261308 -0.0190211)
(0.20072 0.300428 -0.0117957)
(0.174837 0.333448 -0.0151022)
(0.146751 0.37391 -0.00445576)
(0.115831 0.411679 0.00309016)
(0.0906958 0.440768 0.0112397)
(0.0627445 0.462427 0.0271827)
(0.0344882 0.468736 0.0358927)
(0.0164719 0.469502 0.0460973)
(-0.00638498 0.457781 0.0471251)
(-0.0353953 0.435638 0.0493679)
(-0.0626458 0.408069 0.0480113)
(-0.0943445 0.375997 0.0418301)
(-0.127118 0.3469 0.0333906)
(-0.16317 0.31982 0.0241569)
(-0.198332 0.303262 0.0153145)
(-0.236636 0.290212 0.00243902)
(-0.286788 0.279629 -0.00795926)
(-0.334367 0.283401 -0.0116034)
(-0.280356 0.263109 0.00239319)
(-0.235496 0.249922 0.00338739)
(-0.266471 0.237345 0.0158063)
(-0.305233 0.225488 0.0241151)
(-0.350819 0.210717 0.033247)
(-0.387495 0.188362 0.0307719)
(-0.420202 0.162872 0.0197115)
(-0.443169 0.133079 0.0291334)
(-0.456949 0.0983992 0.0307617)
(-0.457817 0.0700746 0.016879)
(-0.443058 0.0546412 0.0121041)
(-0.408753 0.0517468 0.00330167)
(-0.370471 0.0661548 -0.00170481)
(-0.339181 0.114372 -0.023985)
(-0.252855 0.153757 -0.0289427)
(-0.125405 0.164009 -0.0239455)
(-0.0294913 0.144338 -0.0151865)
(0.00445912 0.0772792 -0.00213582)
(0.00992648 0.0794352 -0.0124733)
(0.0779065 0.187426 -0.035815)
(0.170391 0.254443 -0.0343869)
(0.215572 0.293165 -0.0182051)
(0.219604 0.321304 -0.0104453)
(0.204045 0.353743 -0.00793471)
(0.181414 0.385708 -0.00675224)
(0.155366 0.410426 0.00613042)
(0.128796 0.431129 0.0116449)
(0.104616 0.440189 0.0232121)
(0.0817722 0.444153 0.0350952)
(0.0532554 0.433772 0.0505847)
(0.0272209 0.409426 0.0549354)
(0.00299839 0.375115 0.0548969)
(-0.0281959 0.34269 0.0484207)
(-0.063726 0.310103 0.0397025)
(-0.100866 0.284023 0.0286757)
(-0.138046 0.261578 0.0191827)
(-0.176325 0.252423 0.0103481)
(-0.21971 0.241524 5.86317e-05)
(-0.26683 0.237207 -0.00754033)
(-0.311965 0.23793 -0.0118111)
(-0.265423 0.239008 -0.000398556)
(-0.218279 0.223717 -0.00137735)
(-0.246898 0.208329 0.0108606)
(-0.283083 0.19282 0.0198726)
(-0.331428 0.176358 0.0278716)
(-0.371693 0.153524 0.0219811)
(-0.408704 0.126308 0.0376396)
(-0.441108 0.0913167 0.0445561)
(-0.462443 0.0571834 0.0379225)
(-0.464018 0.0311636 0.048637)
(-0.45631 0.00884654 0.0384029)
(-0.436926 0.00512262 0.0347802)
(-0.39816 0.0141984 0.0245934)
(-0.354431 0.060511 0.0030988)
(-0.265958 0.115974 -0.0257833)
(-0.139558 0.151493 -0.0255414)
(-0.0356602 0.142752 -0.0147387)
(0.00556369 0.0801639 -0.0020957)
(0.010575 0.101285 -0.0115248)
(0.0830127 0.228895 -0.0381278)
(0.176534 0.296754 -0.0373)
(0.227087 0.326034 -0.019012)
(0.241872 0.348461 -0.00614507)
(0.234294 0.372234 -0.000514234)
(0.213846 0.394872 0.00373439)
(0.189637 0.409731 0.00463781)
(0.168718 0.41967 0.0145177)
(0.145556 0.422063 0.0252511)
(0.118904 0.413177 0.0345786)
(0.0921035 0.394658 0.0416161)
(0.0590533 0.36699 0.0544472)
(0.0267467 0.331398 0.0547592)
(-0.00194235 0.291074 0.0480817)
(-0.0383433 0.264372 0.0351347)
(-0.0781504 0.240816 0.0229412)
(-0.114449 0.224525 0.0143817)
(-0.153619 0.219022 0.00563904)
(-0.198023 0.210466 -0.000426657)
(-0.23977 0.210981 -0.00666805)
(-0.276737 0.207859 -0.00960213)
(-0.233961 0.226355 -0.00173283)
(-0.194585 0.203921 -0.00389313)
(-0.217336 0.181845 0.00709591)
(-0.252378 0.160616 0.0153222)
(-0.299256 0.137647 0.020049)
(-0.342231 0.115446 0.0325317)
(-0.387053 0.083022 0.0447881)
(-0.425205 0.050284 0.0459522)
(-0.448023 0.018776 0.0662143)
(-0.471768 -0.0186574 0.047166)
(-0.477943 -0.0581088 0.0341327)
(-0.46102 -0.0786483 0.0118893)
(-0.419501 -0.0664318 0.00393432)
(-0.37297 -0.0193919 0.00736283)
(-0.286849 0.0650877 -0.00287528)
(-0.15451 0.122221 -0.031423)
(-0.0406504 0.136669 -0.0146054)
(0.00552916 0.0834154 -0.00362665)
(0.0101946 0.107224 -0.0106735)
(0.0816714 0.251465 -0.0404393)
(0.176931 0.322354 -0.0411386)
(0.23314 0.348943 -0.0220517)
(0.258718 0.363126 -0.00379096)
(0.258698 0.375304 0.00579924)
(0.240585 0.387422 0.0120231)
(0.218244 0.39632 0.0153532)
(0.198165 0.401912 0.0185131)
(0.175676 0.396751 0.0226303)
(0.151944 0.382412 0.0283943)
(0.120142 0.358899 0.0394317)
(0.0862719 0.326837 0.0410057)
(0.0486168 0.294691 0.0490388)
(0.0175222 0.259467 0.0459825)
(-0.013592 0.22936 0.0288747)
(-0.0555091 0.211639 0.0176572)
(-0.0880975 0.197929 0.0103558)
(-0.127086 0.19295 0.0027212)
(-0.167029 0.187795 -0.000207826)
(-0.204948 0.185991 -0.00511718)
(-0.223002 0.188662 -0.00448457)
(-0.189011 0.217233 -0.000890253)
(-0.17079 0.186471 -0.00196587)
(-0.189591 0.155735 0.00359944)
(-0.218976 0.125333 0.0111112)
(-0.260438 0.102284 0.0155988)
(-0.303238 0.0733351 0.0334884)
(-0.349203 0.0448937 0.0406159)
(-0.38624 0.0155207 0.0625094)
(-0.433562 -0.0256263 0.046087)
(-0.4752 -0.0785872 0.0381491)
(-0.491987 -0.122952 0.0235132)
(-0.478694 -0.155238 0.0124889)
(-0.4375 -0.157437 -0.00817702)
(-0.376761 -0.117407 -0.0072801)
(-0.293126 -0.0163104 -0.00124128)
(-0.172281 0.0796236 -0.0173556)
(-0.0451358 0.121349 -0.0204581)
(0.00685682 0.0828279 -0.00233325)
(0.00907539 0.117926 -0.00842746)
(0.0807963 0.276386 -0.0395977)
(0.177106 0.352033 -0.0423665)
(0.23969 0.375978 -0.0228368)
(0.2724 0.382492 -0.00242698)
(0.277987 0.381888 0.0115488)
(0.266452 0.384637 0.0212871)
(0.249574 0.387492 0.0239969)
(0.231084 0.386602 0.0267168)
(0.207442 0.376427 0.0288607)
(0.180876 0.358479 0.0305492)
(0.149499 0.329674 0.0290725)
(0.112673 0.299201 0.0299244)
(0.0740819 0.262904 0.0317082)
(0.0359315 0.236866 0.0351824)
(0.00412773 0.203877 0.0235409)
(-0.029625 0.187152 0.0120707)
(-0.0620675 0.177208 0.00730724)
(-0.0951281 0.169273 0.000889975)
(-0.133031 0.163778 -0.000378388)
(-0.159439 0.162063 -0.00175301)
(-0.158396 0.183086 0.00261331)
(-0.142128 0.191898 0.000333208)
(-0.152596 0.161543 -0.000239632)
(-0.166636 0.129034 0.00287436)
(-0.185197 0.0936543 0.00701211)
(-0.220614 0.0667003 0.0198227)
(-0.259728 0.036727 0.0287686)
(-0.29818 0.0106971 0.0480199)
(-0.3508 -0.0273622 0.0411873)
(-0.408133 -0.0798279 0.0386925)
(-0.456223 -0.13095 0.0286272)
(-0.486183 -0.18237 0.0177986)
(-0.488939 -0.223042 0.00215276)
(-0.454509 -0.24193 -0.0134261)
(-0.388025 -0.21147 -0.0214454)
(-0.297937 -0.122114 -0.0188227)
(-0.181678 0.0220436 0.00115109)
(-0.05438 0.100507 -0.0269743)
(0.00578141 0.0856283 -0.00366032)
(0.00672997 0.0978077 -0.00883076)
(0.0745462 0.269796 -0.0398401)
(0.171135 0.351439 -0.0417375)
(0.238338 0.37602 -0.0223855)
(0.278225 0.377335 0.00103727)
(0.292345 0.372557 0.0151528)
(0.288271 0.370929 0.0213979)
(0.272493 0.365907 0.0251168)
(0.253256 0.357868 0.0275409)
(0.230788 0.345387 0.0284516)
(0.204283 0.325192 0.0280915)
(0.170963 0.300395 0.0249721)
(0.132578 0.268642 0.0204739)
(0.0942517 0.238441 0.0139911)
(0.0563103 0.211584 0.0188478)
(0.0230412 0.191676 0.0131416)
(-0.00385474 0.17167 0.00766779)
(-0.0315046 0.161162 0.00267835)
(-0.0646831 0.149075 -0.000733815)
(-0.0928781 0.147631 0.0003127)
(-0.0979043 0.157541 0.00360862)
(-0.100473 0.168598 0.00431017)
(-0.111715 0.157683 0.00316906)
(-0.129051 0.132091 0.00245456)
(-0.146009 0.108211 0.00292067)
(-0.160879 0.0693711 0.00568956)
(-0.186211 0.0401296 0.0147828)
(-0.216163 0.0106804 0.0315726)
(-0.259109 -0.0228842 0.0313791)
(-0.314091 -0.0695085 0.0342736)
(-0.36975 -0.117737 0.0304498)
(-0.422507 -0.17443 0.0259798)
(-0.460896 -0.232872 0.015725)
(-0.477155 -0.287755 0.00216969)
(-0.455437 -0.320529 -0.015255)
(-0.396215 -0.309877 -0.0280019)
(-0.291999 -0.230761 -0.031597)
(-0.181626 -0.0779057 -0.0192473)
(-0.060871 0.0551764 -0.0194417)
(0.00746602 0.0745014 -0.00794287)
(0.00733052 0.106079 -0.00354081)
(0.0736408 0.284608 -0.0340093)
(0.169054 0.370089 -0.0389327)
(0.242588 0.392269 -0.0183282)
(0.292026 0.387926 0.00643749)
(0.315609 0.374346 0.0153004)
(0.314303 0.364798 0.0232442)
(0.299218 0.353815 0.0249637)
(0.282423 0.344151 0.024009)
(0.259484 0.327713 0.0214496)
(0.233641 0.305371 0.0184544)
(0.199809 0.277112 0.0138848)
(0.159541 0.247421 0.00972686)
(0.120239 0.217432 0.00622575)
(0.0829208 0.194173 0.00447558)
(0.0490128 0.176751 0.00365596)
(0.0189491 0.164862 0.000755775)
(-0.00632431 0.154497 -0.00069188)
(-0.0275021 0.149203 -0.00032973)
(-0.0394682 0.150485 0.00166272)
(-0.0495823 0.15373 0.00412765)
(-0.0661121 0.141049 0.00621438)
(-0.0835535 0.126237 0.00587351)
(-0.103614 0.105313 0.00494056)
(-0.126017 0.084585 0.00704818)
(-0.141903 0.0539849 0.00577668)
(-0.157386 0.0188133 0.0144376)
(-0.187975 -0.0140107 0.0157587)
(-0.228739 -0.0560073 0.0207502)
(-0.277997 -0.0979363 0.0221097)
(-0.332388 -0.145812 0.0236682)
(-0.385354 -0.201959 0.0214586)
(-0.428256 -0.26374 0.0155921)
(-0.453689 -0.32915 0.00358423)
(-0.444412 -0.378498 -0.0129285)
(-0.395408 -0.391476 -0.0300084)
(-0.302194 -0.327583 -0.0434922)
(-0.186901 -0.179359 -0.0324821)
(-0.0592034 0.0120914 -0.00886603)
(0.00659984 0.0733344 -0.0123945)
(-0.00293312 0.0781313 -0.0152281)
(0.0524805 0.265059 -0.0405039)
(0.149525 0.360905 -0.046348)
(0.230676 0.385441 -0.026336)
(0.289769 0.383141 -0.00462314)
(0.324876 0.362925 0.00876653)
(0.334932 0.346111 0.0149069)
(0.323546 0.327665 0.015556)
(0.304658 0.3146 0.0141853)
(0.278796 0.3039 0.010641)
(0.250081 0.290946 0.00771278)
(0.215903 0.272629 0.00461962)
(0.176436 0.251085 0.00206161)
(0.139394 0.229445 0.000303358)
(0.106313 0.208804 0.00100741)
(0.0777532 0.197938 0.00175907)
(0.0544198 0.190954 -0.00414873)
(0.0334559 0.182416 -0.00265289)
(0.0137479 0.174372 -0.00170028)
(-0.0037398 0.16284 0.00249928)
(-0.0211478 0.141656 0.00525757)
(-0.0408321 0.122203 0.00764897)
(-0.0598644 0.102305 0.00703225)
(-0.0813527 0.0830216 0.00711979)
(-0.104413 0.0637331 0.0045636)
(-0.127363 0.0429707 0.0036681)
(-0.145065 0.00829819 0.00258467)
(-0.169015 -0.027728 0.00525515)
(-0.203538 -0.0658312 0.0085644)
(-0.243971 -0.111493 0.0125725)
(-0.290626 -0.163895 0.0147141)
(-0.339633 -0.22862 0.0145008)
(-0.384725 -0.299417 0.010246)
(-0.417174 -0.37815 0.000863703)
(-0.420006 -0.443753 -0.0138811)
(-0.380774 -0.474213 -0.0311261)
(-0.291258 -0.431477 -0.0553228)
(-0.179142 -0.302192 -0.0507082)
(-0.0536822 -0.0740146 -0.0169993)
(0.00663566 0.0500241 -0.00412983)
(-0.00351004 0.151301 -0.0054702)
(0.0486846 0.35488 -0.0202072)
(0.139412 0.453979 -0.0311414)
(0.22368 0.4756 -0.0116053)
(0.291214 0.463871 -0.00441794)
(0.332523 0.431842 0.0123369)
(0.348321 0.396097 0.0158893)
(0.343311 0.382245 0.0183473)
(0.3387 0.387883 0.0146169)
(0.321551 0.389524 0.0101398)
(0.293963 0.381766 0.00434686)
(0.256255 0.362639 0.000305202)
(0.214164 0.334199 -0.00280456)
(0.17231 0.30452 -0.00349519)
(0.139697 0.274621 -0.00285707)
(0.114558 0.248953 0.00106152)
(0.0844578 0.227227 -0.00348358)
(0.0575271 0.207418 -0.00767728)
(0.0342878 0.183339 -0.00468117)
(0.00964208 0.159546 -0.00252035)
(-0.00894418 0.134341 0.00458499)
(-0.0250394 0.10761 0.00648982)
(-0.0427033 0.0866327 0.00745745)
(-0.0614269 0.0653717 0.00869451)
(-0.0826065 0.0451893 0.00255157)
(-0.108644 0.0253747 0.00243217)
(-0.130851 0.00279082 0.00157914)
(-0.152388 -0.0314912 -0.00391916)
(-0.185894 -0.0707635 -0.00527224)
(-0.227381 -0.114684 -0.00328674)
(-0.273232 -0.158032 0.0021417)
(-0.317194 -0.214539 0.00704342)
(-0.358463 -0.283006 0.0086672)
(-0.390948 -0.367114 0.00348326)
(-0.394831 -0.448667 -0.010166)
(-0.366608 -0.51745 -0.0347313)
(-0.304083 -0.516402 -0.0655086)
(-0.190737 -0.389626 -0.0597393)
(-0.0494337 -0.17144 -0.0362951)
(0.00922291 0.0265407 -0.00463273)
(-0.0180767 0.235069 -0.0236854)
(0.0190584 0.475541 -0.0430574)
(0.109034 0.58528 -0.0514187)
(0.194525 0.624475 -0.0366974)
(0.266519 0.615283 -0.0257635)
(0.315366 0.585215 -0.00888481)
(0.358693 0.540761 0.000890162)
(0.392956 0.515377 0.00128611)
(0.392163 0.504096 -0.00497179)
(0.35683 0.483779 -0.0091203)
(0.311983 0.455589 -0.0109717)
(0.260739 0.419504 -0.0117708)
(0.212191 0.377445 -0.0113229)
(0.172099 0.33489 -0.00987893)
(0.138889 0.295096 -0.00767707)
(0.113886 0.256276 -0.00366693)
(0.0942308 0.22248 0.000657129)
(0.0698076 0.193939 -0.00184285)
(0.0447226 0.170983 -0.00395395)
(0.0251473 0.143624 -0.00163833)
(0.00311789 0.12169 0.00156545)
(-0.0138855 0.0951319 0.00568492)
(-0.0282172 0.071987 0.00695134)
(-0.0485706 0.0492342 0.00677498)
(-0.0678932 0.0268511 0.00302087)
(-0.0887267 0.00584443 0.00668261)
(-0.113631 -0.00994022 0.00592131)
(-0.142835 -0.0337321 0.00392231)
(-0.170359 -0.0638922 0.00137304)
(-0.191998 -0.107215 -0.00267595)
(-0.222542 -0.159376 -0.00897251)
(-0.262045 -0.233085 -0.014599)
(-0.303773 -0.319456 -0.0185071)
(-0.341398 -0.428094 -0.0236525)
(-0.370228 -0.529358 -0.0321548)
(-0.368955 -0.630269 -0.0488474)
(-0.296565 -0.657572 -0.0717733)
(-0.216151 -0.549499 -0.0860187)
(-0.0834203 -0.265011 -0.0458012)
(0.0145549 0.00872299 -0.00441575)
(0.000425665 0.205581 0.00124847)
(0.038706 0.449191 -0.0360812)
(0.113118 0.574685 -0.0486273)
(0.19832 0.631438 -0.0445274)
(0.269413 0.636439 -0.0364469)
(0.319875 0.61737 -0.0251453)
(0.359504 0.581243 -0.0181988)
(0.389198 0.538986 -0.00863188)
(0.390118 0.497196 -0.010177)
(0.357165 0.460475 -0.0091796)
(0.315447 0.424551 -0.00868178)
(0.266357 0.388202 -0.00679308)
(0.219164 0.348966 -0.0051811)
(0.179111 0.312372 -0.00301298)
(0.148195 0.275557 -0.0025304)
(0.126115 0.242215 0.000214213)
(0.103253 0.20752 0.00156899)
(0.0851129 0.176492 0.00423591)
(0.0609482 0.15488 0.00420226)
(0.0347505 0.131762 -0.00064431)
(0.0148702 0.109016 0.00219493)
(-0.00412357 0.0851536 0.00436954)
(-0.0188898 0.0603974 0.00733078)
(-0.0365862 0.036953 0.00680024)
(-0.0540773 0.0178526 0.00578453)
(-0.0699025 -0.00301679 0.00910732)
(-0.0885481 -0.0192534 0.00917354)
(-0.114767 -0.036068 0.00607144)
(-0.153045 -0.0503247 0.0029805)
(-0.194477 -0.0799058 0.00344974)
(-0.240428 -0.124342 0.00620136)
(-0.281949 -0.192822 0.00828363)
(-0.317663 -0.280044 0.00765748)
(-0.332825 -0.411502 -0.000187228)
(-0.338901 -0.557069 -0.0112743)
(-0.33248 -0.698437 -0.0237016)
(-0.277364 -0.776093 -0.046259)
(-0.16642 -0.748925 -0.0628292)
(-0.0457708 -0.461905 -0.0673141)
(0.00511268 -0.0966194 0.00648655)
(0.000414346 0.220843 -0.00134023)
(0.037237 0.439586 -0.031843)
(0.10525 0.563329 -0.0427626)
(0.183371 0.61983 -0.0407371)
(0.252991 0.625908 -0.0262685)
(0.306207 0.604373 -0.0201129)
(0.351367 0.566417 -0.0108705)
(0.385586 0.525975 -0.00393335)
(0.390572 0.481787 -0.00387242)
(0.361828 0.44667 -0.00280333)
(0.318668 0.411272 -0.00210929)
(0.267185 0.373219 -0.000760759)
(0.221242 0.335415 0.000412756)
(0.184801 0.299194 0.00125351)
(0.154326 0.264903 0.00187543)
(0.129935 0.229416 0.00350091)
(0.110177 0.194391 0.00514174)
(0.0959549 0.159741 0.00732096)
(0.0756482 0.13293 0.00769015)
(0.0519956 0.112532 0.0083128)
(0.0266106 0.0939142 0.00410371)
(0.00574165 0.0712905 0.00412021)
(-0.0089847 0.0478719 0.00986753)
(-0.0234286 0.0271061 0.00787325)
(-0.0386668 0.00663897 0.00703282)
(-0.0536044 -0.0114768 0.00906779)
(-0.0691704 -0.0314261 0.00966716)
(-0.0879807 -0.0524524 0.00975921)
(-0.11542 -0.0688651 0.00793661)
(-0.147769 -0.0869929 0.00569942)
(-0.188367 -0.10494 0.00557476)
(-0.232306 -0.143098 0.00594021)
(-0.294233 -0.196425 0.00842232)
(-0.349694 -0.293512 0.0126038)
(-0.373753 -0.418296 0.0122239)
(-0.371523 -0.575603 0.00717281)
(-0.328783 -0.695011 -0.00692729)
(-0.228255 -0.724546 -0.0298918)
(-0.0609659 -0.514052 -0.0435153)
(0.0247926 -0.0887911 -0.0215622)
(0.00670826 0.195996 -0.00193191)
(0.0455758 0.394531 -0.0256997)
(0.107217 0.526326 -0.0354853)
(0.18185 0.588065 -0.0347429)
(0.248792 0.60486 -0.0225625)
(0.300862 0.587518 -0.0148587)
(0.347505 0.551706 -0.00565531)
(0.379426 0.508487 0.000517358)
(0.386565 0.458878 0.00092452)
(0.363201 0.418155 0.00126331)
(0.319403 0.378762 0.00207484)
(0.270276 0.341486 0.00395637)
(0.227741 0.307374 0.00488462)
(0.193139 0.274083 0.00562298)
(0.16346 0.241799 0.00545855)
(0.139974 0.20902 0.00624651)
(0.116106 0.177639 0.00734551)
(0.103264 0.142703 0.0106948)
(0.0898213 0.113325 0.0125517)
(0.0681965 0.09126 0.0115774)
(0.0431114 0.0778625 0.0106534)
(0.017446 0.0576283 0.00955719)
(0.00359509 0.0391 0.00790359)
(-0.0108966 0.0195143 0.00836158)
(-0.0244512 -0.00105142 0.00906975)
(-0.037396 -0.019645 0.00872784)
(-0.0548401 -0.0373824 0.00901662)