/*--------------------------------*- C++ -*----------------------------------*\
| =========                 |                                                 |
| \\      /  F ield         | OpenFOAM: The Open Source CFD Toolbox           |
|  \\    /   O peration     | Version:  v1806                                 |
|   \\  /    A nd           | Web:      www.OpenFOAM.com                      |
|    \\/     M anipulation  |                                                 |
\*---------------------------------------------------------------------------*/
FoamFile
{
    version     2.0;
    format      ascii;
    class       vectorField;
    location    "0.0425";
    object      currentcloudofpoints;
}
// * * * * * * * * * * * * * * * * * * * * * * * * * * * * * * * * * * * * * //


2409
(
(0.749018 1.29614 1.00039)
(0.822022 0.824373 0.999705)
(1.21549 1.35705 0.999589)
(0.994059 1.06063 0.737731)
(0.996247 1.06079 1.26307)
(1.07834 1.0908 1.00006)
(0.609433 1.40551 0.999651)
(0.704202 0.666442 1.00087)
(1.31053 1.53623 0.99992)
(0.988352 1.06179 0.560814)
(0.983112 1.06575 1.43353)
(1.20598 1.34061 1.08699)
(1.1754 1.29884 1.16318)
(1.12468 1.23766 1.22301)
(1.06113 1.15261 1.26443)
(1.21124 1.35013 1.04349)
(1.19196 1.31979 1.12549)
(1.15069 1.26886 1.19258)
(1.09237 1.19807 1.24484)
(1.02941 1.10404 1.26836)
(0.833767 0.834225 1.05289)
(0.862627 0.868177 1.1063)
(0.901859 0.922119 1.16535)
(0.948025 0.98767 1.21715)
(0.828044 0.829677 1.02581)
(0.849827 0.85138 1.07697)
(0.883012 0.894783 1.13484)
(0.927187 0.955458 1.18834)
(0.970706 1.02411 1.23926)
(1.20534 1.34071 0.912312)
(1.17432 1.29852 0.836832)
(1.12351 1.23625 0.778343)
(1.0609 1.15076 0.736792)
(1.21104 1.34998 0.955654)
(1.19099 1.31994 0.874213)
(1.14945 1.26812 0.807896)
(1.09199 1.19591 0.756846)
(1.02745 1.10331 0.733011)
(0.948685 0.986975 0.782852)
(0.902279 0.92126 0.834782)
(0.859619 0.867684 0.892143)
(0.834423 0.835379 0.946499)
(0.970644 1.02376 0.761045)
(0.927537 0.954395 0.811183)
(0.881783 0.893892 0.864891)
(0.847932 0.851664 0.92155)
(0.829806 0.830985 0.973754)
(0.936451 1.11435 1.21619)
(0.863749 1.17639 1.16867)
(0.802298 1.2313 1.11094)
(0.762865 1.27576 1.07007)
(0.968315 1.08541 1.23343)
(0.901663 1.14369 1.19332)
(0.832233 1.20547 1.1353)
(0.781325 1.25224 1.08821)
(0.753718 1.28748 1.03693)
(0.763968 1.27594 0.930936)
(0.801336 1.23233 0.887253)
(0.862723 1.17628 0.830785)
(0.933959 1.11394 0.785956)
(0.754663 1.28685 0.964308)
(0.781561 1.25365 0.910464)
(0.831211 1.20498 0.864752)
(0.899668 1.14433 0.806045)
(0.966056 1.08464 0.768773)
(0.750726 0.928061 0.999738)
(0.699586 1.02777 0.999504)
(0.677499 1.12348 0.99996)
(0.695129 1.21917 0.999717)
(0.791328 0.878118 1.00026)
(0.728534 0.979359 0.999041)
(0.690354 1.07468 0.999867)
(0.684221 1.17074 0.99984)
(0.721165 1.25752 0.999944)
(0.82501 1.3544 1.00127)
(0.918174 1.39024 1.00216)
(1.02137 1.40119 1.00026)
(1.12654 1.39364 0.999425)
(0.786041 1.32378 1.00062)
(0.871041 1.37224 1.00199)
(0.969936 1.3948 1.00119)
(1.07552 1.39633 0.9997)
(1.1723 1.37971 0.999385)
(0.716789 0.679363 1.10461)
(0.737943 0.702383 1.20219)
(0.769946 0.733111 1.27409)
(0.804494 0.776958 1.32806)
(0.847528 0.832338 1.36586)
(0.88783 0.901567 1.40381)
(0.938931 0.981516 1.42734)
(0.707865 0.672968 1.05315)
(0.728551 0.690222 1.15458)
(0.753765 0.719337 1.24018)
(0.7884 0.754025 1.30125)
(0.826411 0.804787 1.34652)
(0.868482 0.865265 1.38334)
(0.915007 0.941764 1.41422)
(0.963481 1.02354 1.43145)
(1.03856 1.14134 1.4332)
(1.10588 1.21444 1.4094)
(1.16832 1.28864 1.37364)
(1.21826 1.36163 1.32588)
(1.26401 1.42633 1.25776)
(1.2895 1.48488 1.1784)
(1.30525 1.52386 1.09196)
(1.00809 1.10475 1.4329)
(1.07245 1.17728 1.42142)
(1.14001 1.24987 1.39019)
(1.19301 1.32529 1.34985)
(1.24256 1.39266 1.29274)
(1.27779 1.4554 1.21768)
(1.29809 1.50502 1.13575)
(1.30841 1.53074 1.04623)
(0.716059 0.678008 0.89414)
(0.738831 0.702456 0.798802)
(0.769583 0.731147 0.723731)
(0.800988 0.775614 0.6699)
(0.843791 0.829929 0.630629)
(0.88653 0.901039 0.596379)
(0.937909 0.980838 0.573053)
(0.709696 0.670454 0.947477)
(0.726888 0.692031 0.845312)
(0.755659 0.716313 0.758959)
(0.785779 0.753884 0.696554)
(0.823284 0.802302 0.651365)
(0.865111 0.863988 0.61361)
(0.914205 0.941244 0.587269)
(0.964643 1.02111 0.565852)
(1.30509 1.52395 0.908039)
(1.2897 1.48534 0.821539)
(1.26397 1.42596 0.742423)
(1.21857 1.36103 0.674232)
(1.16872 1.28898 0.625163)
(1.10572 1.21515 0.59096)
(1.04214 1.14032 0.567034)
(1.30822 1.53074 0.953652)
(1.29811 1.50534 0.864288)
(1.27798 1.4556 0.782256)
(1.24262 1.39192 0.707655)
(1.19349 1.32512 0.649516)
(1.14012 1.25055 0.60901)
(1.07286 1.17747 0.580225)
(1.01463 1.10187 0.563216)
(0.615767 1.39891 1.09663)
(0.635367 1.37989 1.19124)
(0.672506 1.34451 1.27829)
(0.730432 1.29429 1.34134)
(0.790797 1.24227 1.37039)
(0.852441 1.18875 1.3967)
(0.919151 1.13372 1.4091)
(0.612321 1.40325 1.0493)
(0.627057 1.3898 1.14675)
(0.654078 1.363 1.23794)
(0.703273 1.3188 1.31349)
(0.761348 1.26803 1.35756)
(0.823298 1.21554 1.37873)
(0.88287 1.16118 1.40322)
(0.95464 1.10252 1.42287)
(0.617554 1.39792 0.90258)
(0.632129 1.38165 0.811125)
(0.676548 1.34333 0.721719)
(0.727497 1.29571 0.655963)
(0.792648 1.24195 0.631833)
(0.85303 1.18931 0.608897)
(0.925107 1.13106 0.585949)
(0.615612 1.40147 0.949552)
(0.624719 1.39084 0.854446)
(0.655186 1.36307 0.762831)
(0.703216 1.31931 0.686055)
(0.761109 1.26827 0.641537)
(0.825111 1.21571 0.624442)
(0.884238 1.1602 0.600112)
(0.961817 1.0988 0.56764)
(0.628052 0.741052 1.00073)
(0.575258 0.817322 0.999941)
(0.538199 0.903656 0.999648)
(0.51602 0.999684 0.999975)
(0.512306 1.10083 1)
(0.521271 1.20295 0.999827)
(0.553189 1.30569 0.9996)
(0.663986 0.706185 1.00083)
(0.600598 0.779038 1.00042)
(0.55721 0.859779 0.999557)
(0.525813 0.950574 0.999782)
(0.513793 1.04928 0.999981)
(0.516812 1.15128 0.999906)
(0.535583 1.25377 0.999733)
(0.580823 1.35542 0.999612)
(0.681008 1.49022 0.999472)
(0.761322 1.55319 0.999817)
(0.854637 1.59538 1.00036)
(0.955816 1.61368 1.00066)
(1.04869 1.61274 1.00025)
(1.13145 1.59773 0.999819)
(1.21708 1.57258 0.999945)
(0.646258 1.44957 0.999673)
(0.722915 1.52317 0.99958)
(0.809332 1.57567 1.00004)
(0.907625 1.6051 1.00056)
(1.00435 1.61289 1.00053)
(1.09029 1.60266 0.999919)
(1.17272 1.58419 0.999867)
(1.26335 1.55312 0.99993)
(0.978925 1.06661 0.657453)
(0.989723 1.06407 0.602719)
(0.983569 1.06188 0.699213)
(0.982872 1.06415 1.34367)
(0.988542 1.06012 1.30324)
(0.985827 1.06589 1.39305)
(0.747344 0.757274 0.998663)
(0.781865 0.792095 0.998773)
(0.72092 0.703375 1.00024)
(1.26803 1.43578 0.999747)
(1.23948 1.39495 0.999727)
(1.29457 1.48333 0.999772)
(0.846618 1.49678 1.25568)
(0.855391 1.55623 1.17091)
(0.97315 1.31929 1.397)
(1.04563 1.58098 1.15699)
(0.713724 1.50991 1.08047)
(1.01604 1.23992 1.4244)
(1.20898 1.54993 1.13577)
(1.12586 1.54217 1.21579)
(0.753539 1.50558 1.1743)
(0.948779 1.55368 1.21428)
(0.933998 1.59267 1.11344)
(0.754093 1.41373 1.29029)
(1.03335 1.51169 1.27453)
(1.12274 1.57899 1.12986)
(0.944355 1.47092 1.31157)
(1.16484 1.58426 1.06491)
(1.06462 1.31324 1.40577)
(1.08966 1.59796 1.07301)
(0.671369 1.45729 1.12929)
(0.927445 1.22278 1.40282)
(0.874391 1.30696 1.38135)
(1.02228 1.41233 1.35853)
(1.19935 1.48866 1.23895)
(0.821539 1.57154 1.08263)
(0.688987 1.43068 1.21214)
(0.935686 1.38585 1.36533)
(1.17847 1.42605 1.30721)
(1.11279 1.46825 1.30352)
(0.655311 1.46111 1.06055)
(0.978084 1.16672 1.42531)
(1.24139 1.55906 1.0593)
(0.857576 1.41231 1.3354)
(0.800002 1.3353 1.35529)
(1.12411 1.38195 1.35649)
(0.891218 1.59942 1.04964)
(1.01667 1.6053 1.06984)
(1.0231 1.19244 1.43072)
(1.05453 1.22727 1.42242)
(0.978637 1.11735 1.42979)
(1.00414 1.15554 1.43384)
(0.99694 1.20375 1.42426)
(1.08335 1.26355 1.40826)
(1.11481 1.29799 1.38776)
(1.04176 1.2767 1.41615)
(1.14577 1.3346 1.36349)
(1.17049 1.37035 1.33884)
(1.09463 1.34618 1.38097)
(1.19812 1.39297 1.31527)
(1.22187 1.42383 1.28056)
(1.15073 1.40407 1.33236)
(1.23277 1.45552 1.24649)
(1.24267 1.48462 1.20693)
(1.19217 1.45562 1.27325)
(1.24881 1.51677 1.15796)
(1.2559 1.53505 1.11374)
(1.20358 1.52078 1.18945)
(1.27328 1.54154 1.07567)
(1.2766 1.54705 1.0298)
(1.22463 1.55436 1.09758)
(1.22933 1.56569 1.02969)
(0.740619 1.5324 1.04015)
(0.698166 1.50125 1.04123)
(0.685 1.4865 1.07147)
(0.668712 1.47646 1.03008)
(0.633046 1.43446 1.03209)
(0.840489 1.58358 1.04166)
(0.794015 1.56287 1.04234)
(0.770288 1.54176 1.08341)
(0.925202 1.60625 1.02566)
(0.873749 1.59769 1.02522)
(0.857523 1.58618 1.06621)
(1.03277 1.60822 1.03524)
(0.987867 1.60869 1.03523)
(0.95843 1.60145 1.06075)
(1.1101 1.59658 1.03686)
(1.06934 1.60334 1.03641)
(1.05398 1.60032 1.07187)
(1.19043 1.57778 1.03315)
(1.14784 1.59039 1.03204)
(1.1263 1.58955 1.06937)
(1.20159 1.57059 1.06298)
(0.800777 1.50252 1.21742)
(0.805636 1.53144 1.17475)
(0.851046 1.52782 1.21411)
(0.903312 1.55558 1.19359)
(0.898481 1.52624 1.23622)
(0.790467 1.54036 1.12919)
(0.8399 1.56485 1.12657)
(0.896249 1.57627 1.14208)
(0.942734 1.57472 1.16392)
(0.879517 1.58371 1.09844)
(0.999536 1.28127 1.40642)
(1.02186 1.31885 1.40161)
(0.976969 1.23376 1.4091)
(0.951289 1.27212 1.39799)
(0.999199 1.36447 1.37994)
(1.04473 1.36304 1.38278)
(0.923397 1.31385 1.38762)
(0.900449 1.26544 1.39167)
(0.954708 1.35145 1.38137)
(0.905473 1.34632 1.37409)
(0.979916 1.39924 1.36142)
(1.03128 1.59182 1.11346)
(1.06753 1.5879 1.11558)
(0.993019 1.585 1.13729)
(0.97773 1.59738 1.093)
(1.07997 1.52406 1.24729)
(1.04013 1.54852 1.2177)
(1.08495 1.56144 1.18698)
(1.08426 1.57839 1.1443)
(1.12454 1.56168 1.17308)
(1.10564 1.58784 1.10114)
(1.0004 1.56643 1.18746)
(0.99236 1.533 1.24594)
(0.713367 1.48236 1.15405)
(0.693107 1.48461 1.10508)
(0.7355 1.50832 1.12879)
(0.664136 1.45939 1.09585)
(0.644246 1.42874 1.1151)
(0.654075 1.41929 1.16232)
(0.635596 1.43076 1.07927)
(0.662476 1.40551 1.20323)
(0.680781 1.38776 1.2486)
(0.681014 1.44477 1.17227)
(0.713804 1.37922 1.28637)
(0.74352 1.35249 1.32054)
(0.721325 1.42338 1.25377)
(0.795596 1.28817 1.36373)
(0.76528 1.31514 1.34833)
(0.779215 1.37329 1.32774)
(0.83254 1.27498 1.37346)
(0.862854 1.2487 1.38489)
(0.838099 1.32044 1.36722)
(0.887618 1.20595 1.40015)
(0.922131 1.17886 1.40407)
(0.950202 1.15161 1.4145)
(0.956128 1.19632 1.40922)
(0.801709 1.45508 1.27583)
(0.853326 1.45447 1.29923)
(0.807552 1.41298 1.31469)
(0.902163 1.44107 1.32456)
(0.897838 1.48337 1.28573)
(0.755042 1.46135 1.23676)
(0.946385 1.51334 1.26519)
(1.18605 1.5671 1.10086)
(0.829098 1.37354 1.34645)
(0.867324 1.35737 1.36092)
(0.898085 1.39879 1.35064)
(0.940822 1.42752 1.34162)
(0.913963 1.59556 1.08134)
(1.16454 1.56374 1.1349)
(1.16683 1.54458 1.17789)
(1.16166 1.51512 1.23129)
(1.14295 1.58018 1.09797)
(1.11992 1.50388 1.26206)
(1.07264 1.48904 1.29025)
(1.15774 1.47622 1.27354)
(0.722166 1.46898 1.19511)
(0.989664 1.49204 1.29337)
(0.984932 1.44103 1.33661)
(1.02906 1.46121 1.32024)
(1.06746 1.43994 1.33207)
(1.07407 1.39721 1.35915)
(1.11954 1.42464 1.33201)
(1.14593 1.44646 1.30732)
(0.640457 1.03202 1.32104)
(0.547782 1.11894 1.18596)
(0.590994 0.88328 1.17835)
(0.627686 0.82295 1.18827)
(0.578283 1.16473 1.24622)
(0.70126 1.09319 1.35351)
(0.669654 0.746645 1.15722)
(0.586003 1.32357 1.1488)
(0.848133 1.00228 1.39754)
(0.581417 1.07963 1.25627)
(0.647458 0.871376 1.27041)
(0.549927 1.22041 1.15489)
(0.641575 1.14238 1.32036)
(0.784006 0.928341 1.36949)
(0.711697 1.20148 1.35134)
(0.641633 1.23243 1.30362)
(0.687902 0.786766 1.24075)
(0.842252 1.09881 1.39833)
(0.602369 0.803697 1.10074)
(0.522998 1.09522 1.10205)
(0.769163 1.04027 1.37431)
(0.597617 1.27445 1.22796)
(0.7771 1.15226 1.37271)
(0.528114 0.998651 1.09415)
(0.710483 0.900488 1.32977)
(0.728039 0.817893 1.30485)
(0.591695 0.970892 1.24524)
(0.652797 0.945702 1.31332)
(0.770359 0.850542 1.34442)
(0.70318 0.988373 1.34765)
(0.554734 0.964077 1.15326)
(0.550769 1.03821 1.17782)
(0.656823 0.725004 1.07493)
(0.911093 1.05857 1.41438)
(0.549612 0.906436 1.07787)
(0.555055 1.29695 1.06989)
(0.523676 1.18226 1.06742)
(0.634008 0.777238 1.12942)
(0.614988 0.814018 1.14629)
(0.647528 0.78578 1.17327)
(0.663247 0.736946 1.11675)
(0.627356 0.765601 1.08842)
(0.657314 0.805366 1.21516)
(0.679004 0.766919 1.201)
(0.693066 0.714197 1.13183)
(0.70431 0.7252 1.18024)
(0.68634 0.70373 1.08996)
(0.713019 0.74611 1.22258)
(0.873253 0.952572 1.4014)
(0.901266 0.993439 1.41163)
(0.81763 0.881643 1.36817)
(0.839897 0.913828 1.38463)
(0.815656 0.963306 1.38242)
(0.927871 1.02064 1.42254)
(0.950447 1.06376 1.42672)
(0.88133 1.03015 1.40562)
(0.548973 1.16916 1.17292)
(0.566675 1.1928 1.20557)
(0.564702 1.14181 1.21844)
(0.575651 1.24748 1.19539)
(0.589332 1.21881 1.24079)
(0.610746 1.15391 1.28725)
(0.61009 1.19903 1.27772)
(0.643112 1.18674 1.31283)
(0.580956 1.12173 1.2525)
(0.61092 1.11105 1.29126)
(0.61927 1.25409 1.26967)
(0.567512 1.09923 1.22389)
(0.609556 0.852934 1.18367)
(0.596509 0.843917 1.14101)
(0.574941 0.855976 1.08938)
(0.569589 0.895258 1.13016)
(0.587508 0.810913 1.05068)
(0.612611 0.77227 1.05165)
(0.640621 0.732849 1.03816)
(0.562243 0.862282 1.03893)
(0.568293 1.27151 1.15538)
(0.592972 1.29932 1.19174)
(0.552583 1.25873 1.11512)
(0.571583 1.31049 1.11135)
(0.535314 1.15074 1.13083)
(0.536739 1.2017 1.11337)
(0.537879 1.23919 1.07058)
(0.677579 1.17193 1.33643)
(0.678618 1.21645 1.33013)
(0.707497 1.14751 1.35021)
(0.673097 1.11785 1.33826)
(0.642047 1.08735 1.32012)
(0.671901 1.06263 1.33806)
(0.610938 1.05584 1.29255)
(0.810279 0.841764 1.35564)
(0.778172 0.890013 1.35659)
(0.775013 0.983283 1.37013)
(0.807231 1.02069 1.38335)
(0.74312 0.959191 1.35603)
(0.736125 1.01405 1.36076)
(0.747502 0.915333 1.34873)
(0.739721 0.876695 1.33552)
(0.706765 0.944357 1.33739)
(0.721681 1.24727 1.3468)
(0.687678 1.26325 1.32309)
(0.751626 1.2222 1.35992)
(0.784268 1.19719 1.36975)
(0.745486 1.17677 1.36041)
(0.739594 1.12262 1.36145)
(0.659089 1.28698 1.29448)
(0.635893 1.30927 1.25673)
(0.879668 1.1159 1.40428)
(0.847779 1.14416 1.39788)
(0.811918 1.12562 1.38408)
(0.816424 1.1703 1.38265)
(0.914464 1.0965 1.41059)
(0.873892 1.07857 1.40372)
(0.842943 1.05061 1.39563)
(0.807058 1.06888 1.38366)
(0.77342 1.09694 1.3718)
(0.621136 0.878778 1.22612)
(0.639229 0.848626 1.23042)
(0.593499 0.927739 1.21263)
(0.619208 0.920933 1.25908)
(0.551247 0.934665 1.11646)
(0.572703 0.92367 1.16619)
(0.576001 0.968776 1.20103)
(0.668016 0.830502 1.25518)
(0.611792 1.35173 1.17286)
(0.601474 1.36094 1.12446)
(0.58617 1.34764 1.08673)
(0.581005 1.35109 1.03539)
(0.617676 1.32624 1.21402)
(0.701495 1.04067 1.34993)
(0.67286 1.01056 1.33482)
(0.613934 1.00084 1.28796)
(0.587507 1.02491 1.25217)
(0.646606 0.988737 1.31701)
(0.620062 0.958426 1.28361)
(0.679023 0.967412 1.3301)
(0.678214 0.696729 1.03809)
(0.543767 0.904813 1.03868)
(0.530747 0.950922 1.03907)
(0.517113 1.09708 1.05076)
(0.51895 1.04579 1.05105)
(0.521544 0.998069 1.04654)
(0.538352 0.951611 1.08652)
(0.525309 1.04606 1.09912)
(0.52214 1.19229 1.03363)
(0.517653 1.14079 1.03366)
(0.523553 1.13826 1.08577)
(0.553738 1.30137 1.03515)
(0.536644 1.24958 1.0359)
(0.728818 0.762691 1.25842)
(0.767382 0.797753 1.31715)
(0.750369 0.776627 1.29028)
(0.708492 0.803646 1.27446)
(0.788268 0.814048 1.33698)
(0.749775 0.834183 1.32457)
(0.735703 1.06725 1.3627)
(0.686335 0.846546 1.28768)
(0.549921 1.07821 1.18319)
(0.569194 1.05918 1.21965)
(0.574232 1.00473 1.21316)
(0.718992 0.859805 1.3169)
(0.677906 0.885471 1.30259)
(0.649428 0.90796 1.29334)
(0.681872 0.923311 1.32085)
(0.535582 1.06646 1.14269)
(0.535137 1.10731 1.14611)
(0.540891 0.981161 1.12486)
(0.539105 1.01842 1.138)
(0.553252 1.00086 1.16617)
(0.628316 0.929426 0.717786)
(0.610877 1.13576 0.70796)
(0.626345 0.87689 0.76137)
(0.623492 0.82648 0.820212)
(0.543279 1.17633 0.839128)
(0.748305 1.05294 0.632521)
(0.565555 1.27254 0.839907)
(0.832844 1.09396 0.606814)
(0.596623 0.955702 0.758852)
(0.565158 1.11012 0.77647)
(0.73581 0.898379 0.6632)
(0.645694 1.2322 0.694041)
(0.673755 1.0849 0.658406)
(0.601947 1.02708 0.718724)
(0.709417 0.998561 0.653021)
(0.578147 1.20194 0.767468)
(0.760269 1.14511 0.630933)
(0.678169 0.787851 0.767936)
(0.847466 1.00178 0.601611)
(0.664363 0.748342 0.852894)
(0.552912 0.873275 0.934465)
(0.525982 1.08362 0.884625)
(0.533137 0.96463 0.905035)
(0.600033 0.796281 0.911142)
(0.611473 1.28664 0.759556)
(0.561407 1.00985 0.807385)
(0.687141 0.85066 0.702121)
(0.578015 0.900269 0.838392)
(0.701488 1.19407 0.647979)
(0.529699 1.21371 0.927116)
(0.783477 0.943837 0.628604)
(0.65574 0.722756 0.930444)
(0.575889 1.33189 0.907622)
(0.659655 0.963049 0.676742)
(0.653112 1.16212 0.671859)
(0.91025 1.05632 0.583139)
(0.599454 0.991056 0.737579)
(0.615577 0.978061 0.717395)
(0.613166 0.942581 0.737558)
(0.62815 0.903235 0.739014)
(0.612393 0.916155 0.759773)
(0.642049 0.945778 0.695292)
(0.629665 0.995413 0.695698)
(0.655773 0.863667 0.728938)
(0.65703 0.890032 0.708946)
(0.672882 0.906818 0.689692)
(0.797311 1.027 0.620423)
(0.79206 1.07251 0.622138)
(0.837968 1.04795 0.605411)
(0.753684 1.09902 0.632626)
(0.79856 1.11978 0.622299)
(0.814783 0.97097 0.614542)
(0.766018 0.998479 0.632941)
(0.729209 1.02563 0.643013)
(0.691493 1.04202 0.657145)
(0.711816 1.06924 0.646615)
(0.716587 1.11494 0.644655)
(0.747519 0.972193 0.644199)
(0.91758 1.09374 0.584325)
(0.953721 1.06033 0.566983)
(0.926575 1.01925 0.57671)
(0.57291 1.23765 0.800012)
(0.561617 1.18968 0.800152)
(0.555051 1.2239 0.836669)
(0.595805 1.24382 0.761197)
(0.58899 1.2806 0.796601)
(0.548842 1.24332 0.879685)
(0.537177 1.19517 0.881275)
(0.622594 1.33374 0.781618)
(0.600212 1.32686 0.81938)
(0.570485 1.30232 0.871752)
(0.605513 1.35798 0.853746)
(0.551806 1.27242 0.914002)
(0.867848 1.07482 0.597572)
(0.879119 1.02914 0.594265)
(0.808409 1.16684 0.623857)
(0.842609 1.14182 0.60905)
(0.875494 1.11229 0.597952)
(0.579451 0.983191 0.782288)
(0.583467 1.01904 0.760388)
(0.604378 0.889316 0.798561)
(0.589505 0.928989 0.797045)
(0.570493 0.955061 0.821798)
(0.871882 0.951762 0.59897)
(0.899664 0.993077 0.589249)
(0.836722 0.920792 0.612703)
(0.607704 1.08111 0.712598)
(0.585694 1.06858 0.745462)
(0.587998 1.12297 0.739861)
(0.564779 1.05922 0.790069)
(0.572338 1.15538 0.769929)
(0.555125 1.14344 0.804356)
(0.596395 1.16845 0.734737)
(0.546824 1.09825 0.825698)
(0.535451 1.12967 0.859487)
(0.543533 1.04687 0.842377)
(0.685523 0.981331 0.6659)
(0.722934 0.948483 0.660067)
(0.698561 0.931407 0.671339)
(0.761092 0.921386 0.647908)
(0.789963 0.866095 0.649364)
(0.768769 0.839692 0.668473)
(0.711804 0.87535 0.681551)
(0.745513 0.817695 0.689446)
(0.81428 0.888398 0.630341)
(0.62954 1.1835 0.699853)
(0.613927 1.21721 0.727688)
(0.631234 1.25883 0.723505)
(0.686852 1.26429 0.673984)
(0.663573 1.28616 0.704731)
(0.645569 1.31452 0.7383)
(0.673307 1.21341 0.667799)
(0.715276 1.24428 0.651345)
(0.649782 1.19685 0.681781)
(0.632972 1.14875 0.688995)
(0.677112 1.17819 0.658892)
(0.643253 1.11087 0.680821)
(0.637875 1.05656 0.686179)
(0.668527 1.02449 0.670015)
(0.732626 1.16953 0.640404)
(0.68769 1.13937 0.654174)
(0.664145 1.12347 0.66488)
(0.776944 1.19359 0.63342)
(0.747712 1.21827 0.640812)
(0.651262 0.833084 0.76453)
(0.650375 0.808123 0.793343)
(0.625496 0.852183 0.790243)
(0.642866 0.788347 0.836268)
(0.67172 0.769869 0.809261)
(0.709055 0.746613 0.782495)
(0.724162 0.761142 0.743971)
(0.701387 0.727767 0.825384)
(0.683169 0.819242 0.733033)
(0.728458 0.794659 0.71357)
(0.528395 1.14765 0.903496)
(0.600993 0.863208 0.829339)
(0.630962 0.773887 0.882041)
(0.611999 0.812753 0.864566)
(0.587791 0.848717 0.874366)
(0.596757 1.36507 0.903606)
(0.593614 1.36824 0.952914)
(0.584887 0.804332 0.955135)
(0.612142 0.767421 0.955111)
(0.64058 0.731293 0.965582)
(0.678576 0.695006 0.965528)
(0.626061 0.760698 0.920496)
(0.544411 0.887123 0.966804)
(0.563009 0.843192 0.966418)
(0.574906 0.834143 0.92254)
(0.522276 0.980002 0.952694)
(0.532529 0.931462 0.952328)
(0.542475 0.918266 0.919645)
(0.51914 1.03976 0.942665)
(0.517899 1.09069 0.942518)
(0.529267 1.0235 0.893533)
(0.525029 1.20798 0.963364)
(0.520275 1.15618 0.963367)
(0.53994 1.259 0.962322)
(0.565159 1.31862 0.95216)
(0.68563 0.701388 0.912046)
(0.689397 0.71442 0.87279)
(0.65962 0.735383 0.890691)
(0.564829 0.886904 0.885555)
(0.556099 0.931656 0.870169)
(0.548245 0.988435 0.853793)
(0.893064 1.56054 0.820908)
(0.823115 1.50881 0.771633)
(1.13216 1.56928 0.845102)
(0.914039 1.38612 0.634327)
(0.687423 1.47379 0.87923)
(1.21905 1.54636 0.86613)
(1.01367 1.24991 0.574044)
(1.01412 1.36235 0.616366)
(0.782148 1.53982 0.867672)
(0.910156 1.49003 0.716779)
(0.809688 1.42341 0.688448)
(0.889946 1.59333 0.920782)
(1.00881 1.47332 0.681848)
(0.947315 1.30738 0.604268)
(0.993742 1.54706 0.773687)
(0.927418 1.22514 0.595846)
(1.19134 1.51133 0.783088)
(0.879799 1.28413 0.615694)
(0.719614 1.51616 0.937273)
(1.1696 1.58268 0.9339)
(1.07197 1.6016 0.915836)
(1.09179 1.52339 0.748192)
(1.08909 1.32243 0.605289)
(0.724886 1.4494 0.771672)
(0.794578 1.56646 0.944913)
(1.05575 1.57614 0.829168)
(1.14094 1.37857 0.649063)
(1.08241 1.42604 0.657393)
(0.661611 1.46028 0.939981)
(1.2443 1.55783 0.940777)
(0.98284 1.16634 0.569723)
(0.978456 1.59065 0.864286)
(0.991406 1.61053 0.939871)
(1.16992 1.43951 0.699309)
(0.731076 1.38281 0.702222)
(0.822797 1.3283 0.636337)
(1.23078 1.56496 0.970293)
(1.27798 1.54653 0.97016)
(1.27463 1.541 0.924381)
(0.838754 1.55087 0.841876)
(0.80272 1.5263 0.818645)
(0.859107 1.53563 0.795142)
(0.868576 1.49904 0.742311)
(0.903256 1.52696 0.766733)
(0.893004 1.57633 0.870965)
(0.839852 1.56734 0.892626)
(0.953201 1.51803 0.743715)
(0.945985 1.55429 0.795829)
(0.9376 1.57537 0.841689)
(0.936109 1.5905 0.891782)
(0.986958 1.5711 0.818834)
(0.702279 1.50355 0.967261)
(0.742225 1.53582 0.968515)
(0.636906 1.43363 0.968012)
(0.672556 1.47577 0.969819)
(0.691714 1.48903 0.93789)
(0.778947 1.56046 0.972027)
(0.826092 1.58185 0.97237)
(0.758038 1.54258 0.940672)
(0.873905 1.59532 0.960359)
(0.924583 1.60432 0.960273)
(0.844065 1.58119 0.932008)
(1.02114 1.61185 0.969792)
(0.974299 1.61234 0.970143)
(0.942956 1.60157 0.929539)
(1.06061 1.60628 0.958127)
(1.10148 1.59692 0.956893)
(1.03311 1.6052 0.927638)
(1.15031 1.58929 0.967304)
(1.19287 1.57676 0.966333)
(1.11964 1.58901 0.923591)
(1.20544 1.56912 0.936515)
(0.985181 1.11481 0.562029)
(0.957456 1.14955 0.578712)
(1.00844 1.15477 0.562488)
(0.659901 1.42891 0.842533)
(0.653764 1.43658 0.888141)
(0.675911 1.467 0.908233)
(0.640549 1.4293 0.920357)
(0.679913 1.41582 0.787858)
(0.70531 1.46384 0.823841)
(0.752453 1.52878 0.901329)
(0.705259 1.49535 0.907947)
(0.735889 1.50846 0.871486)
(0.754624 1.49712 0.817434)
(1.1742 1.55649 0.853249)
(1.16042 1.54141 0.811704)
(1.20467 1.52916 0.824105)
(1.23883 1.49588 0.803662)
(1.25433 1.51554 0.84342)
(1.19341 1.56493 0.899125)
(1.23138 1.55225 0.903413)
(1.15023 1.57524 0.888705)
(1.26138 1.53377 0.887414)
(0.701016 1.39662 0.742932)
(0.730081 1.33838 0.676349)
(0.704307 1.36305 0.711076)
(0.728589 1.41643 0.7343)
(0.808178 1.28475 0.634787)
(0.775626 1.31234 0.645866)
(0.777836 1.3554 0.66248)
(0.866807 1.23741 0.613997)
(0.837233 1.26321 0.62744)
(0.852989 1.30552 0.628346)
(0.926022 1.17827 0.593933)
(0.888321 1.20736 0.602843)
(0.90237 1.25497 0.605717)
(0.959573 1.19713 0.587298)
(1.01055 1.41463 0.647448)
(0.961983 1.42917 0.656267)
(0.96474 1.37411 0.626783)
(0.931785 1.34509 0.619206)
(0.982013 1.33546 0.61038)
(0.913185 1.29612 0.610204)
(0.89767 1.33402 0.62383)
(0.869069 1.3576 0.63635)
(0.861314 1.45641 0.701131)
(0.864 1.40373 0.659572)
(0.912601 1.43798 0.670416)
(0.960687 1.48115 0.698379)
(0.816366 1.37491 0.656815)
(0.774661 1.47956 0.769104)
(0.81769 1.46574 0.72682)
(0.768684 1.43711 0.725941)
(0.984437 1.2807 0.593526)
(1.01878 1.3068 0.597282)
(1.05288 1.28619 0.587492)
(1.05289 1.3436 0.609573)
(0.937565 1.26721 0.600057)
(0.975577 1.23969 0.588132)
(0.997949 1.20895 0.573915)
(1.05337 1.23322 0.576342)
(1.09828 1.26876 0.597829)
(1.02371 1.19711 0.56805)
(1.04771 1.39284 0.636571)
(1.04655 1.44978 0.668912)
(1.08503 1.37301 0.630277)
(0.791043 1.55316 0.906118)
(1.00161 1.50906 0.725552)
(0.770342 1.4037 0.694358)
(0.985267 1.5992 0.902092)
(1.04245 1.53334 0.760035)
(1.05215 1.49835 0.713642)
(1.09138 1.47591 0.698332)
(1.07234 1.54885 0.788336)
(1.02526 1.56146 0.800821)
(1.01837 1.58376 0.846252)
(1.13293 1.48236 0.718339)
(1.18396 1.47436 0.740112)
(1.14163 1.51578 0.76231)
(1.2169 1.42964 0.723171)
(1.22923 1.46645 0.764001)
(1.11125 1.54514 0.795785)
(1.12612 1.43231 0.67637)
(1.15526 1.40842 0.673861)
(1.11115 1.40145 0.651709)
(1.19388 1.39839 0.688398)
(1.17978 1.36879 0.663777)
(1.1013 1.58499 0.88065)
(1.06386 1.58906 0.872452)
(1.02694 1.59492 0.888934)
(1.09373 1.57106 0.836203)
(1.11481 1.34998 0.627025)
(1.12849 1.30426 0.61715)
(1.15536 1.33381 0.638322)
(0.868482 1.00993 1.17643)
(0.775677 0.941872 1.07448)
(0.710322 1.06664 1.05375)
(0.860967 1.08787 1.18054)
(0.697152 1.17186 1.05468)
(0.805704 1.06071 1.14184)
(0.831383 0.959022 1.13435)
(0.761043 1.03639 1.0949)
(0.744077 1.13558 1.09583)
(0.920844 1.0492 1.20578)
(0.732664 0.971948 1.0313)
(0.805893 1.14087 1.13897)
(0.743311 1.20398 1.08753)
(0.776128 0.89781 1.03287)
(0.720347 1.24194 1.04973)
(0.732777 1.26989 1.0255)
(0.740655 1.25831 1.05896)
(0.751658 1.23931 1.07781)
(0.772045 1.21646 1.09676)
(0.73057 1.22259 1.0692)
(0.806991 0.948445 1.10169)
(0.798298 0.996192 1.11448)
(0.771649 0.988789 1.08409)
(0.748565 1.00463 1.06061)
(0.737887 1.05139 1.0709)
(0.726288 1.01966 1.04051)
(0.755165 0.956915 1.05192)
(0.776781 0.920406 1.05313)
(0.755162 0.93557 1.03186)
(0.849106 0.914481 1.11965)
(0.823924 0.902405 1.08968)
(0.807763 0.8897 1.06343)
(0.806805 0.865858 1.04263)
(0.72957 1.10017 1.07073)
(0.720601 1.15285 1.07278)
(0.702929 1.11759 1.05115)
(0.685458 1.14897 1.02585)
(0.694053 1.09566 1.02757)
(0.742554 1.16907 1.08995)
(0.719989 1.18785 1.07031)
(0.693899 1.19648 1.02872)
(0.707518 1.20662 1.05179)
(0.706295 1.23172 1.02479)
(0.911143 0.998058 1.18926)
(0.934543 1.01829 1.20821)
(0.895408 1.02957 1.19)
(0.959233 1.05356 1.22846)
(0.89272 1.06825 1.19325)
(0.865129 1.04894 1.1782)
(0.928946 1.08194 1.20996)
(0.899789 1.10107 1.19704)
(0.820266 1.00964 1.13921)
(0.784634 1.0478 1.11696)
(0.753926 1.08587 1.09252)
(0.776987 1.09782 1.11453)
(0.743018 0.950422 1.0153)
(0.719642 1.00082 1.01479)
(0.764783 0.913478 1.01602)
(0.708417 1.04833 1.02534)
(0.887375 0.966813 1.16883)
(0.850588 0.984387 1.15541)
(0.838602 1.03411 1.16068)
(0.868707 0.939232 1.14819)
(0.834022 1.07368 1.1615)
(0.863042 1.13109 1.1751)
(0.802935 1.18586 1.12183)
(0.835148 1.1583 1.15369)
(0.834776 1.11406 1.16064)
(0.773579 1.17102 1.10455)
(0.801933 0.862499 1.01634)
(0.775656 1.13724 1.11382)
(0.806034 1.10075 1.1401)
(0.83993 1.30886 1.09583)
(1.11085 1.3588 1.11257)
(1.06534 1.38957 1.05959)
(1.05533 1.31765 1.15315)
(0.973287 1.2972 1.15847)
(1.02161 1.2236 1.20872)
(1.01463 1.35619 1.11979)
(0.971341 1.38429 1.06742)
(0.946409 1.20361 1.1951)
(1.1503 1.38106 1.05443)
(0.929421 1.34053 1.11542)
(0.895698 1.27464 1.14449)
(0.872567 1.36262 1.06186)
(0.802865 1.32804 1.05091)
(0.992769 1.1449 1.23965)
(1.01861 1.38695 1.06266)
(1.04045 1.3739 1.09014)
(0.993837 1.37065 1.09327)
(0.950402 1.36269 1.09251)
(0.972637 1.3488 1.11747)
(1.06317 1.35642 1.1143)
(1.08356 1.33859 1.13349)
(1.03649 1.33708 1.1354)
(1.08938 1.37445 1.08581)
(1.01461 1.30659 1.15408)
(0.994928 1.32794 1.13896)
(0.9532 1.32065 1.13638)
(0.782271 1.30151 1.06018)
(0.774504 1.31231 1.02523)
(0.820668 1.2703 1.10054)
(0.80047 1.29086 1.08005)
(0.820452 1.31805 1.07375)
(1.1433 1.33136 1.13612)
(1.15976 1.35362 1.10056)
(1.13147 1.37062 1.08429)
(1.17907 1.36354 1.0704)
(1.18434 1.37272 1.02722)
(1.03793 1.18684 1.24004)
(1.06688 1.23199 1.21972)
(1.08547 1.27711 1.18397)
(1.11338 1.31106 1.15837)
(1.0379 1.27206 1.17621)
(1.02286 1.14581 1.2545)
(0.994649 1.10166 1.25172)
(1.0069 1.18324 1.22569)
(0.905975 1.18965 1.18324)
(0.941945 1.15687 1.20826)
(0.971742 1.17194 1.21498)
(0.966071 1.12837 1.22733)
(0.921151 1.24123 1.16797)
(0.878554 1.22668 1.15464)
(0.985538 1.21044 1.19961)
(0.959301 1.25194 1.17276)
(0.934957 1.2868 1.1518)
(0.998975 1.25888 1.17568)
(0.813066 1.34231 1.0267)
(0.84897 1.25279 1.12469)
(0.868466 1.2915 1.11539)
(0.855825 1.33555 1.07957)
(0.837295 1.34478 1.05529)
(0.900521 1.35028 1.08737)
(0.88495 1.32462 1.10274)
(0.913826 1.3086 1.12843)
(1.13898 1.38805 1.02688)
(1.10902 1.38446 1.05664)
(1.09697 1.3919 1.02981)
(0.847979 1.35982 1.03176)
(0.894812 1.37824 1.03291)
(0.996543 1.39391 1.03412)
(0.944497 1.38829 1.03503)
(0.921671 1.37311 1.06401)
(1.04371 1.39608 1.02971)
(0.946887 1.22122 0.810542)
(1.13029 1.35033 0.876448)
(0.91296 1.35843 0.916445)
(1.03202 1.22694 0.785918)
(0.927909 1.31214 0.867838)
(1.03416 1.35609 0.878324)
(0.879358 1.23952 0.84902)
(1.00397 1.29497 0.834956)
(0.839115 1.29791 0.896908)
(1.07708 1.30653 0.829892)
(1.11339 1.38616 0.938624)
(0.99312 1.14794 0.763785)
(0.997956 1.39151 0.943955)
(0.826337 1.34151 0.950537)
(0.800381 1.2862 0.916148)
(0.819838 1.26548 0.894035)
(0.78619 1.31867 0.976535)
(0.794337 1.30814 0.941498)
(0.832075 1.31944 0.922367)
(0.859426 1.26952 0.878736)
(0.840073 1.23562 0.871189)
(0.870509 1.20803 0.840224)
(0.940261 1.16563 0.795589)
(0.972124 1.1831 0.789798)
(0.964599 1.12962 0.776152)
(1.01257 1.18629 0.77343)
(0.991519 1.22136 0.801159)
(0.966992 1.30403 0.853022)
(0.975698 1.2587 0.825454)
(0.938837 1.26973 0.845384)
(1.01906 1.26125 0.814708)
(0.905237 1.1977 0.819151)
(0.9139 1.23016 0.829669)
(0.904388 1.27699 0.861463)
(0.825061 1.34876 0.975585)
(0.884182 1.3043 0.885711)
(0.876741 1.32801 0.907311)
(0.921438 1.33556 0.892725)
(0.869147 1.34916 0.934846)
(0.993084 1.10266 0.750865)
(1.02286 1.14652 0.7482)
(1.04346 1.18697 0.759378)
(1.05839 1.33199 0.857356)
(1.04063 1.30043 0.833634)
(1.0205 1.32706 0.857331)
(1.05387 1.26853 0.809622)
(0.982041 1.33473 0.873322)
(1.10465 1.32927 0.852823)
(1.08282 1.35282 0.879304)
(1.15271 1.32628 0.85708)
(1.12473 1.30524 0.831611)
(1.09671 1.27185 0.804648)
(1.07299 1.23255 0.778837)