/*--------------------------------*- C++ -*----------------------------------*\
| =========                 |                                                 |
| \\      /  F ield         | OpenFOAM: The Open Source CFD Toolbox           |
|  \\    /   O peration     | Version:  v1806                                 |
|   \\  /    A nd           | Web:      www.OpenFOAM.com                      |
|    \\/     M anipulation  |                                                 |
\*---------------------------------------------------------------------------*/
FoamFile
{
    version     2.0;
    format      ascii;
    class       volVectorField;
    location    "0.0425";
    object      U_0;
}
// * * * * * * * * * * * * * * * * * * * * * * * * * * * * * * * * * * * * * //

dimensions      [0 1 -1 0 0 0 0];


internalField   nonuniform List<vector> 
64000
(
(-0.00675155 -0.00772435 -0.0035639)
(0.0140933 -0.00833909 -0.00142188)
(0.0263506 -0.00462188 0.00196479)
(0.0285602 -0.00433934 0.00186788)
(0.0240307 -0.00324314 0.00287839)
(0.0223969 -0.00296733 0.00396343)
(0.0210863 -0.00364809 0.00383411)
(0.0171887 -0.00396704 0.0039063)
(0.0149933 -0.00505463 0.00505022)
(0.00854058 -0.0040708 0.00456312)
(0.0013075 -0.00626784 0.00601967)
(-0.0146345 -0.00900593 0.00688873)
(-0.0359603 -0.0135965 0.00682097)
(-0.0619373 -0.0176684 0.00452054)
(-0.0964016 -0.0169505 0.00539921)
(-0.13094 -0.0105339 0.00372196)
(-0.169919 0.00301363 0.00304489)
(-0.20745 -0.00248547 0.00176589)
(-0.229253 -0.0102989 0.00545582)
(-0.268714 -0.0273669 -0.0137463)
(-0.251041 -0.0302086 -0.0330706)
(-0.126141 -0.0263942 -0.0389704)
(-0.0905779 -0.0165359 -0.0315546)
(-0.094861 -0.00603085 -0.0369373)
(-0.0911274 0.000167311 -0.0489374)
(-0.0946759 0.00998983 -0.0567017)
(-0.0754008 0.0192208 -0.0623478)
(-0.0489349 0.0314369 -0.0565817)
(-0.0153333 0.0386798 -0.0498795)
(0.0273676 0.054008 -0.0307224)
(0.0761117 0.0425961 -0.030921)
(0.107982 0.0353652 -0.021485)
(0.122345 0.0246691 -0.00971577)
(0.117903 0.0103512 -0.00289581)
(0.102075 0.00267998 0.00299871)
(0.0802855 -0.00555703 0.00530126)
(0.0570822 -0.00812083 0.00777037)
(0.0345257 -0.00671552 0.00858278)
(0.0176953 -0.00498891 0.00864015)
(0.00317224 -0.00350575 0.00680408)
(-0.00472352 -0.00465867 -0.00122063)
(0.0122397 -0.0172158 -0.0010278)
(0.0337712 -0.0146284 0.000520145)
(0.042456 -0.01069 -0.000557839)
(0.0418313 -0.00505876 0.000606627)
(0.0396024 -0.00165468 -0.000462291)
(0.0369521 0.00285239 -0.00228852)
(0.0291572 0.00516099 -0.00199571)
(0.0219247 0.0103914 -0.00709807)
(0.00423019 0.0170728 -0.00406128)
(-0.0213647 0.0241412 -0.00791888)
(-0.0599397 0.0329538 0.000159995)
(-0.108466 0.0455437 -0.00405475)
(-0.160478 0.0683872 -0.00652268)
(-0.220557 0.0789111 -0.00997072)
(-0.282111 0.0870804 -0.0190139)
(-0.375679 0.0927021 -0.0419551)
(-0.473965 0.0964816 -0.0566401)
(-0.542845 0.100995 -0.0746479)
(-0.607971 0.0999956 -0.0984177)
(-0.585229 0.118435 -0.111528)
(-0.440172 0.138103 -0.127884)
(-0.386054 0.175972 -0.14427)
(-0.376953 0.208873 -0.149819)
(-0.34679 0.232756 -0.160781)
(-0.31665 0.256786 -0.166252)
(-0.257432 0.275607 -0.167855)
(-0.192202 0.292488 -0.156684)
(-0.112351 0.299376 -0.13555)
(-0.0462856 0.307315 -0.110731)
(0.0210091 0.288033 -0.0743183)
(0.0882967 0.258177 -0.0479441)
(0.121048 0.204717 -0.0385294)
(0.133709 0.157866 -0.0273855)
(0.127023 0.107533 -0.0132982)
(0.105714 0.0670696 -0.00551033)
(0.0840309 0.0392834 -0.00101873)
(0.0574726 0.0245366 0.000336847)
(0.0336086 0.0147526 0.00209613)
(0.00921926 0.00590211 0.00382064)
(-0.00018539 -0.0131061 0.00183011)
(0.0170318 -0.0250175 -0.000475326)
(0.0408627 -0.0205721 -0.000688797)
(0.0518337 -0.00972795 -0.000527154)
(0.0484809 0.00328796 -0.00295475)
(0.043642 0.0158103 -0.0045682)
(0.0351005 0.0309511 -0.00639803)
(0.0200504 0.0450687 -0.00855965)
(0.00403376 0.0691211 -0.00149981)
(-0.0261526 0.091988 -0.00464134)
(-0.0649228 0.121514 -0.00834288)
(-0.117474 0.155361 -0.0128264)
(-0.173973 0.185711 -0.0167618)
(-0.257762 0.208375 -0.0310454)
(-0.363977 0.226047 -0.0330937)
(-0.459141 0.238553 -0.0427937)
(-0.55318 0.24551 -0.0574983)
(-0.63434 0.26885 -0.0734398)
(-0.695684 0.296077 -0.0912029)
(-0.74579 0.328699 -0.112562)
(-0.70946 0.365358 -0.11803)
(-0.540438 0.393149 -0.122161)
(-0.461234 0.444997 -0.130659)
(-0.441748 0.483603 -0.123981)
(-0.403341 0.513159 -0.125426)
(-0.369235 0.536909 -0.122656)
(-0.3101 0.548909 -0.118475)
(-0.248983 0.55231 -0.105477)
(-0.178019 0.54235 -0.0845125)
(-0.115048 0.52227 -0.0613112)
(-0.0586419 0.497821 -0.0397152)
(-0.0193786 0.449789 -0.0276523)
(0.0161143 0.379303 -0.0124999)
(0.0425873 0.305721 -0.00745848)
(0.0481419 0.229248 -0.0105654)
(0.0519133 0.163135 -0.0101847)
(0.0501602 0.112815 -0.00679301)
(0.0400388 0.075016 -0.00432714)
(0.0277323 0.0486392 -0.000512494)
(0.00897563 0.0208609 0.00283641)
(0.000412601 -0.0195511 0.0017398)
(0.0194786 -0.0293163 -0.00269739)
(0.0459809 -0.0173917 -0.00183519)
(0.0564985 0.000851621 -0.0054443)
(0.050976 0.0264308 -0.00603089)
(0.0415061 0.0559078 -0.00706193)
(0.0262518 0.0912513 -0.00712186)
(0.00733415 0.127017 -0.00415202)
(-0.0173483 0.172695 -0.00924365)
(-0.0608536 0.21183 -0.011573)
(-0.109982 0.247796 -0.0157899)
(-0.182898 0.273602 -0.0224468)
(-0.275478 0.300948 -0.0255084)
(-0.365521 0.315295 -0.027699)
(-0.451385 0.34117 -0.0292425)
(-0.530919 0.369832 -0.0381118)
(-0.610626 0.400499 -0.0495517)
(-0.678743 0.433001 -0.0571367)
(-0.724094 0.46852 -0.0653987)
(-0.7583 0.510008 -0.0734994)
(-0.709732 0.542936 -0.0619569)
(-0.521129 0.563105 -0.0475342)
(-0.427313 0.600016 -0.0472849)
(-0.409092 0.617923 -0.0308414)
(-0.374207 0.627009 -0.0260044)
(-0.349552 0.630185 -0.0195116)
(-0.303692 0.620248 -0.0162293)
(-0.259404 0.601657 -0.00984904)
(-0.206806 0.576251 0.00111204)
(-0.161161 0.542952 0.00852745)
(-0.126512 0.505166 0.0140779)
(-0.102595 0.461673 0.0139052)
(-0.0847048 0.415493 0.00894064)
(-0.0610465 0.351616 0.00149367)
(-0.0400754 0.278123 -0.00308982)
(-0.0184414 0.203294 -0.00881262)
(0.000833087 0.145109 -0.00976462)
(0.0106205 0.107956 -0.00689967)
(0.0176289 0.0734981 -0.0027696)
(0.00753284 0.0311266 0.00236411)
(0.00178877 -0.021616 0.000851216)
(0.0253375 -0.0228322 -0.00462157)
(0.0545888 -0.00364677 -0.00320726)
(0.0665987 0.0281288 -0.00491094)
(0.0624353 0.0703082 -0.00543262)
(0.0527229 0.120433 -0.0142781)
(0.0314973 0.182945 -0.011439)
(0.00372733 0.232739 -0.00416449)
(-0.0337922 0.276534 -0.00685734)
(-0.0972881 0.308689 -0.00901857)
(-0.168678 0.337387 -0.0123141)
(-0.240514 0.358312 -0.014405)
(-0.309491 0.388353 -0.0176977)
(-0.385214 0.421961 -0.0198978)
(-0.460324 0.457705 -0.0175322)
(-0.5276 0.490761 -0.0199795)
(-0.590461 0.525808 -0.0201123)
(-0.638494 0.560149 -0.0162364)
(-0.664987 0.597338 -0.0140684)
(-0.68838 0.637935 -0.0216456)
(-0.640024 0.665793 -0.00830785)
(-0.446991 0.676526 0.0136137)
(-0.350448 0.686076 0.0190385)
(-0.339713 0.674552 0.0363766)
(-0.317578 0.653171 0.0385199)
(-0.311194 0.630191 0.0456086)
(-0.287502 0.596497 0.0464631)
(-0.261246 0.560417 0.0495953)
(-0.229835 0.520004 0.0436949)
(-0.205498 0.47987 0.0366281)
(-0.183204 0.43638 0.0273036)
(-0.168689 0.39853 0.0196484)
(-0.159534 0.365274 0.0126801)
(-0.154627 0.331631 0.00165198)
(-0.145621 0.277864 -0.0103941)
(-0.108259 0.203783 -0.0115144)
(-0.0531506 0.156733 -0.0118246)
(-0.0168541 0.125742 -0.0103428)
(0.00287041 0.0909212 -0.00461913)
(0.00474008 0.0385268 0.00246341)
(0.00525677 -0.0219042 0.000859648)
(0.032408 -0.0134621 -0.00418752)
(0.0668666 0.0138377 -0.00453751)
(0.0848043 0.0598104 -0.00748767)
(0.0827459 0.110036 -0.00934232)
(0.0769147 0.176674 -0.0179927)
(0.043377 0.235925 -0.0107645)
(-0.0118159 0.281332 0.000765182)
(-0.0674616 0.31961 -0.0038657)
(-0.131878 0.356527 -0.00574025)
(-0.18895 0.394976 -0.00803143)
(-0.248573 0.435397 -0.00822026)
(-0.308203 0.472738 -0.00651756)
(-0.365647 0.505125 -0.0025748)
(-0.421541 0.538924 0.00398027)
(-0.468636 0.57131 0.00863576)
(-0.514218 0.60515 0.00609327)
(-0.550175 0.640881 0.0110121)
(-0.566721 0.682042 0.0115094)
(-0.582733 0.714084 0.00895442)
(-0.532753 0.738404 0.0236777)
(-0.352513 0.698734 0.0461773)
(-0.272768 0.667725 0.0510511)
(-0.281978 0.628553 0.0691686)
(-0.277454 0.58127 0.0739156)
(-0.288238 0.542104 0.076029)
(-0.282415 0.497601 0.0729393)
(-0.276348 0.456326 0.0688838)
(-0.260853 0.409762 0.0657836)
(-0.250269 0.370994 0.0481457)
(-0.242024 0.330206 0.0373312)
(-0.229799 0.297527 0.0243377)
(-0.219214 0.271901 0.0113331)
(-0.215563 0.251292 0.00392169)
(-0.223248 0.22974 -0.0110294)
(-0.175511 0.18935 -0.0121883)
(-0.0907038 0.157195 -0.0137413)
(-0.0388782 0.131304 -0.0113023)
(-0.00380748 0.0985748 -0.00611021)
(0.0038924 0.0409105 0.00259401)
(0.00777124 -0.0190851 -0.000130489)
(0.0405313 -0.00050902 -0.00788957)
(0.083952 0.0363075 -0.00935005)
(0.103808 0.088253 -0.00802864)
(0.10597 0.141319 -0.00934977)
(0.0912348 0.212986 -0.0111045)
(0.0375637 0.246743 0.000858436)
(-0.0172485 0.29575 0.00349308)
(-0.0618335 0.345437 -0.000123615)
(-0.115373 0.398206 -0.00177873)
(-0.165444 0.447617 -0.00232926)
(-0.213706 0.491739 -0.000424267)
(-0.260776 0.529926 0.00162703)
(-0.307213 0.566386 0.00901747)
(-0.348516 0.599193 0.0128934)
(-0.383254 0.629252 0.0198989)
(-0.412664 0.653343 0.0256885)
(-0.427223 0.679366 0.0289985)
(-0.43914 0.707741 0.0243517)
(-0.456527 0.723702 0.0193578)
(-0.459315 0.737039 0.0249744)
(-0.326354 0.663506 0.0478653)
(-0.233664 0.578677 0.0493988)
(-0.249899 0.532028 0.0637257)
(-0.257837 0.4807 0.0666878)
(-0.281045 0.444703 0.0675314)
(-0.292594 0.40651 0.0637552)
(-0.30198 0.371236 0.0589498)
(-0.299788 0.333975 0.0482735)
(-0.299698 0.299819 0.0361832)
(-0.297328 0.26738 0.0227666)
(-0.287044 0.240622 0.0125206)
(-0.277506 0.220929 0.00152835)
(-0.270031 0.208397 -0.00374542)
(-0.270673 0.206976 -0.0134375)
(-0.223429 0.193479 -0.0193366)
(-0.127545 0.163523 -0.0202731)
(-0.0559654 0.14287 -0.0162982)
(-0.0100332 0.107512 -0.00891425)
(0.0042462 0.0449863 0.00126452)
(0.00870159 -0.0108262 0.000123263)
(0.0468798 0.0212473 -0.0131136)
(0.0988855 0.0687278 -0.0141416)
(0.122663 0.121166 -0.00973302)
(0.129864 0.180901 -0.0121852)
(0.0975427 0.236735 -0.0074104)
(0.0389715 0.273464 0.00187469)
(0.00443954 0.330642 0.00579969)
(-0.0345763 0.378839 0.00276023)
(-0.0799243 0.432991 0.00394181)
(-0.12063 0.47682 0.00573899)
(-0.161902 0.51393 0.010922)
(-0.196375 0.546124 0.0176697)
(-0.226247 0.574914 0.02233)
(-0.257044 0.598664 0.0271219)
(-0.283728 0.616452 0.0313906)
(-0.308512 0.628949 0.0339857)
(-0.322057 0.637917 0.0350514)
(-0.33983 0.638356 0.0274336)
(-0.363528 0.629166 0.0200242)
(-0.398788 0.620104 0.0152645)
(-0.332276 0.582614 0.0313598)
(-0.241317 0.470181 0.0321064)
(-0.239836 0.429428 0.0407915)
(-0.257855 0.387935 0.0457419)
(-0.287431 0.360958 0.0479617)
(-0.310371 0.333295 0.0481356)
(-0.329798 0.304289 0.0445122)
(-0.337053 0.274239 0.0372393)
(-0.343974 0.242795 0.0177388)
(-0.346734 0.211284 0.0122892)
(-0.337134 0.186325 0.00262575)
(-0.323881 0.171242 -0.00373655)
(-0.30668 0.16691 -0.00821791)
(-0.308519 0.180335 -0.0163573)
(-0.269089 0.194344 -0.0204294)
(-0.161284 0.170216 -0.0219669)
(-0.0732801 0.151345 -0.0179174)
(-0.0147005 0.115785 -0.00979057)
(0.00532458 0.0479477 0.00152651)
(0.00822732 0.00102008 -0.00405666)
(0.0552231 0.0516535 -0.0198921)
(0.116953 0.106347 -0.0187786)
(0.146684 0.160464 -0.0133872)
(0.148273 0.216249 -0.0143531)
(0.110548 0.255975 -0.00650548)
(0.0639424 0.308375 5.4176e-05)
(0.0323303 0.363545 0.00645053)
(0.00464305 0.403894 0.0128311)
(-0.0287081 0.445138 0.0123933)
(-0.0684905 0.48151 0.016542)
(-0.097815 0.50922 0.0220941)
(-0.122516 0.531001 0.0283364)
(-0.147623 0.542509 0.0319878)
(-0.172459 0.546693 0.0335303)
(-0.196051 0.544669 0.0343759)
(-0.219663 0.536962 0.0337328)
(-0.241343 0.532914 0.0310822)
(-0.275284 0.520933 0.0225966)
(-0.310002 0.508064 0.0142137)
(-0.351897 0.490619 0.00557369)
(-0.344827 0.485641 0.0103746)
(-0.27689 0.401972 0.0177748)
(-0.24695 0.354339 0.018032)
(-0.266684 0.325958 0.0241444)
(-0.298405 0.304916 0.0292003)
(-0.330181 0.2849 0.0325436)
(-0.3574 0.25759 0.0339007)
(-0.37287 0.231243 0.0223766)
(-0.387927 0.196077 0.0107997)
(-0.391952 0.170629 0.000913897)
(-0.379904 0.148034 -0.00411059)
(-0.36389 0.13344 -0.0107231)
(-0.338082 0.136585 -0.0162481)
(-0.319578 0.14451 -0.0191794)
(-0.292954 0.18439 -0.0256304)
(-0.197422 0.172573 -0.0257288)
(-0.0900567 0.160243 -0.023809)
(-0.0199679 0.125422 -0.0126853)
(0.00565201 0.0534462 -0.00014689)
(0.00809712 0.0185729 -0.00859258)
(0.0606098 0.0922445 -0.0280379)
(0.133301 0.15181 -0.027696)
(0.166337 0.202431 -0.0164804)
(0.162861 0.245392 -0.0149486)
(0.133052 0.283458 -0.00874393)
(0.100988 0.336934 -0.0026523)
(0.0715273 0.383056 0.0132547)
(0.0399412 0.420712 0.0184398)
(0.0162664 0.447205 0.0270088)
(-0.0090797 0.467822 0.0262563)
(-0.0369449 0.481537 0.0337868)
(-0.0601439 0.486727 0.0386736)
(-0.0823371 0.479609 0.0406522)
(-0.107339 0.464729 0.0380368)
(-0.13395 0.443865 0.0339907)
(-0.158349 0.418551 0.0294334)
(-0.183528 0.404649 0.0222139)
(-0.223718 0.385377 0.0139218)
(-0.270518 0.384333 0.0070682)
(-0.317046 0.385979 0.000809622)
(-0.338784 0.399104 0.000224695)
(-0.309482 0.371886 0.00644682)
(-0.269206 0.319224 0.00574491)
(-0.273904 0.285043 0.00986192)
(-0.305499 0.268378 0.0178292)
(-0.342006 0.245008 0.0242128)
(-0.375009 0.223725 0.0269226)
(-0.397799 0.191123 0.0211599)
(-0.412745 0.161787 0.00866946)
(-0.416734 0.132493 0.0117203)
(-0.413595 0.111135 0.0176482)
(-0.393977 0.091781 0.0161829)
(-0.371501 0.0925188 0.00890765)
(-0.344295 0.106875 -0.0110094)
(-0.313026 0.148371 -0.0230429)
(-0.224112 0.171187 -0.0237235)
(-0.106218 0.159567 -0.0217622)
(-0.0249777 0.13357 -0.012376)
(0.00678072 0.0568131 0.000620129)
(0.00872618 0.0365302 -0.011176)
(0.0683622 0.13323 -0.0339826)
(0.147491 0.196834 -0.0320857)
(0.180937 0.237652 -0.0177374)
(0.180547 0.274326 -0.0138666)
(0.163989 0.312099 -0.010773)
(0.139667 0.356235 -0.00119287)
(0.110957 0.391267 0.00711531)
(0.0862868 0.420672 0.0147413)
(0.0596561 0.440615 0.0299573)
(0.0325332 0.447573 0.0378847)
(0.0148739 0.446987 0.046144)
(-0.00639542 0.433841 0.0474612)
(-0.0336331 0.410957 0.0466555)
(-0.0620465 0.385878 0.0392827)
(-0.0943201 0.354983 0.0300893)
(-0.119242 0.323863 0.0220866)
(-0.150487 0.305977 0.00960676)
(-0.190352 0.282494 0.00564482)
(-0.224187 0.289126 0.00371044)
(-0.269839 0.318413 0.00103689)
(-0.306927 0.347208 0.000307126)
(-0.315156 0.352022 0.00177616)
(-0.296885 0.313957 0.00180509)
(-0.283474 0.264163 0.0021683)
(-0.305496 0.238912 0.00974273)
(-0.342987 0.215159 0.0161322)
(-0.380838 0.189472 0.0200923)
(-0.408689 0.160907 0.0130256)
(-0.429088 0.127478 0.0286719)
(-0.44139 0.0925148 0.030416)
(-0.442633 0.062677 0.0196564)
(-0.430607 0.0502668 0.0138505)
(-0.397167 0.0455606 0.0090778)
(-0.355723 0.0623315 0.00126519)
(-0.318732 0.098567 -0.0182972)
(-0.244246 0.149413 -0.0277436)
(-0.125773 0.15681 -0.0228537)
(-0.0277989 0.137247 -0.0149341)
(0.00474237 0.0609969 -0.000365619)
(0.00883883 0.0589291 -0.0123556)
(0.0717245 0.176964 -0.038172)
(0.153997 0.240879 -0.0357715)
(0.193286 0.274551 -0.0195182)
(0.203378 0.306309 -0.0113578)
(0.194341 0.337713 -0.00561397)
(0.175328 0.369208 -0.00499972)
(0.14979 0.392827 0.00968211)
(0.124503 0.411154 0.0134692)
(0.101739 0.420136 0.0260478)
(0.0795872 0.422391 0.0353397)
(0.0531891 0.411791 0.0518502)
(0.0261488 0.386979 0.0534531)
(0.00427616 0.353277 0.0526067)
(-0.0265392 0.321198 0.0374539)
(-0.0659262 0.288598 0.024407)
(-0.0923628 0.261523 0.0136074)
(-0.127886 0.240601 -0.00130331)
(-0.161593 0.225389 -0.00151235)
(-0.171656 0.240311 0.00120064)
(-0.2066 0.268203 0.00258831)
(-0.258658 0.307164 0.00273071)
(-0.29695 0.32237 0.00299242)
(-0.307863 0.303139 0.00133476)
(-0.296159 0.252613 -0.000158339)
(-0.297873 0.204454 0.00309407)
(-0.33197 0.17965 0.00982082)
(-0.368984 0.152334 0.0101189)
(-0.402524 0.124381 0.0301977)
(-0.433541 0.0883015 0.0405184)
(-0.452259 0.0535509 0.0416217)
(-0.452561 0.0268723 0.0528137)
(-0.443513 0.00235077 0.042221)
(-0.429398 -0.00281516 0.0327802)
(-0.392563 0.00842969 0.0245318)
(-0.338356 0.0509462 0.00253208)
(-0.252528 0.103871 -0.0241468)
(-0.137812 0.145686 -0.0242165)
(-0.0335901 0.134426 -0.0141104)
(0.00634114 0.0643928 -0.000743073)
(0.00755323 0.0721307 -0.0132279)
(0.0714614 0.210836 -0.0420622)
(0.15725 0.278772 -0.0407821)
(0.204593 0.308941 -0.0221686)
(0.22426 0.331982 -0.00838066)
(0.222004 0.35212 -0.000196241)
(0.205163 0.375033 0.00399648)
(0.181213 0.387523 0.00618235)
(0.161949 0.398425 0.0137536)
(0.140729 0.400661 0.025692)
(0.115374 0.392866 0.0334306)
(0.089486 0.375413 0.0407073)
(0.0580379 0.347926 0.0507348)
(0.027722 0.313892 0.0501757)
(-0.00305353 0.272025 0.0349241)
(-0.0413993 0.245271 0.017703)
(-0.0717634 0.224847 0.00574025)
(-0.10702 0.201187 -0.00814746)
(-0.124619 0.205387 -0.00356234)
(-0.123492 0.217713 -0.000747799)
(-0.146991 0.225917 0.00580475)
(-0.19491 0.246076 0.00682427)
(-0.256115 0.272598 0.00658207)
(-0.296046 0.271098 0.0041723)
(-0.304822 0.236254 0.00274924)
(-0.294539 0.175618 0.00283452)
(-0.305746 0.137068 0.00652044)
(-0.344529 0.11279 0.0166796)
(-0.383131 0.078559 0.0307695)
(-0.419667 0.0477297 0.0393475)
(-0.440213 0.0147472 0.0617082)
(-0.463005 -0.0244181 0.0459712)
(-0.470923 -0.0671408 0.035682)
(-0.450507 -0.0890537 0.017993)
(-0.409613 -0.0766667 0.00341373)
(-0.360688 -0.0270389 0.0125636)
(-0.274308 0.0548023 -0.00320725)
(-0.148994 0.113789 -0.0310939)
(-0.0387053 0.127482 -0.0143257)
(0.00700049 0.0640313 -0.00245411)
(0.00654863 0.0872932 -0.0123995)
(0.0710212 0.244256 -0.0448366)
(0.159503 0.316385 -0.0459035)
(0.212828 0.342936 -0.0259954)
(0.240271 0.356578 -0.00694658)
(0.246202 0.364584 0.0055588)
(0.233325 0.374526 0.0103442)
(0.211943 0.382549 0.0145993)
(0.194909 0.387325 0.0162783)
(0.173284 0.381634 0.020192)
(0.150494 0.367262 0.0213894)
(0.119525 0.343963 0.0333534)
(0.0844214 0.312897 0.0327408)
(0.0477639 0.281639 0.0366192)
(0.0162612 0.247024 0.0277055)
(-0.0145792 0.216289 0.00960626)
(-0.0526877 0.20126 -0.00340909)
(-0.0754713 0.187722 -0.00892907)
(-0.0800898 0.201054 -0.00547893)
(-0.0864053 0.199436 -0.000897754)
(-0.109761 0.193449 0.00890817)
(-0.137861 0.191097 0.0174956)
(-0.190335 0.20414 0.0150731)
(-0.254088 0.223762 0.00754313)
(-0.29321 0.207373 0.00414012)
(-0.290512 0.16766 0.00326264)
(-0.280913 0.10579 0.0054096)
(-0.308369 0.0777042 0.0179626)
(-0.34801 0.0415079 0.0291675)
(-0.382419 0.00938384 0.0511258)
(-0.426712 -0.0346787 0.0402422)
(-0.466827 -0.0911472 0.0350567)
(-0.483455 -0.136224 0.0237037)
(-0.472569 -0.169427 0.012929)
(-0.431088 -0.172981 -0.00223231)
(-0.364005 -0.130778 -0.00731923)
(-0.280697 -0.0291614 0.00117226)
(-0.167778 0.0722754 -0.0168077)
(-0.0431114 0.116386 -0.0185369)
(0.00654855 0.066507 -0.00197468)
(0.00336438 0.0814686 -0.0133048)
(0.0656253 0.256799 -0.0460311)
(0.156807 0.334434 -0.0478062)
(0.217253 0.359432 -0.0274026)
(0.251521 0.365563 -0.0069016)
(0.261142 0.364481 0.00704671)
(0.256349 0.366529 0.0139387)
(0.240764 0.36969 0.0170074)
(0.223666 0.369544 0.0190147)
(0.201421 0.361288 0.0199283)
(0.175605 0.346372 0.0190683)
(0.145196 0.319483 0.0166843)
(0.110554 0.287819 0.0133216)
(0.0737411 0.253425 0.0152045)
(0.0338924 0.225705 0.014288)
(0.00264159 0.206412 0.00143177)
(-0.0215144 0.196941 -0.00793227)
(-0.0353396 0.204851 -0.00715074)
(-0.0421229 0.204599 -0.00334131)
(-0.0561649 0.195927 0.00309042)
(-0.0745319 0.179904 0.0131256)
(-0.0973643 0.168512 0.0184178)
(-0.129237 0.155921 0.0236719)
(-0.191418 0.167597 0.0127395)
(-0.250794 0.168479 0.00761997)
(-0.277216 0.148918 0.0104869)
(-0.267652 0.0935661 0.0118695)
(-0.272172 0.0431965 0.021682)
(-0.308037 0.00991287 0.0377214)
(-0.351581 -0.0338128 0.0328734)
(-0.404257 -0.089633 0.0328627)
(-0.448016 -0.144345 0.0255507)
(-0.475169 -0.200436 0.0161781)
(-0.477094 -0.243123 0.00287144)
(-0.443359 -0.262751 -0.0115585)
(-0.377143 -0.229801 -0.0181647)
(-0.281948 -0.142799 -0.0202971)
(-0.167521 0.00401564 -7.57399e-05)
(-0.0501186 0.0866647 -0.0274184)
(0.00594353 0.0628708 -0.00442124)
(0.00467016 0.0954719 -0.00554205)
(0.065502 0.279677 -0.041915)
(0.155289 0.360732 -0.0447944)
(0.220223 0.38194 -0.0251955)
(0.260749 0.379724 -0.00214755)
(0.280528 0.37221 0.00910735)
(0.282302 0.368472 0.0142885)
(0.268909 0.364127 0.0158966)
(0.253613 0.358063 0.0146698)
(0.232673 0.342911 0.0126629)
(0.205674 0.321034 0.00877657)
(0.168004 0.292462 0.00651022)
(0.128414 0.266388 0.00322956)
(0.091265 0.247728 0.0017981)
(0.0657057 0.240054 0.00174442)
(0.0426839 0.240323 -0.00612639)
(0.0238545 0.238466 -0.00518308)
(0.00738701 0.23982 -0.00411463)
(-0.0116798 0.229179 0.00290331)
(-0.0288596 0.207468 0.00730954)
(-0.0495291 0.185584 0.0139326)
(-0.0692737 0.162481 0.0167405)
(-0.0931142 0.140844 0.0209917)
(-0.138084 0.125823 0.0188143)
(-0.201269 0.131286 0.00799951)
(-0.24599 0.115369 0.00537147)
(-0.257314 0.0908761 0.00504247)
(-0.251046 0.0282352 0.00950717)
(-0.271749 -0.0176611 0.0149771)
(-0.319091 -0.0718761 0.0218192)
(-0.369005 -0.126039 0.0212478)
(-0.41851 -0.187573 0.0186515)
(-0.453489 -0.248895 0.0117563)
(-0.466941 -0.303661 0.000116587)
(-0.442538 -0.336982 -0.014795)
(-0.383385 -0.324698 -0.0307378)
(-0.283684 -0.242249 -0.0349114)
(-0.170922 -0.0876759 -0.0223809)
(-0.0527795 0.0487003 -0.0182849)
(0.00851333 0.0595462 -0.00986387)
(-0.00513326 0.0855893 -0.0179507)
(0.0484906 0.278888 -0.0489631)
(0.142423 0.368356 -0.0525398)
(0.214557 0.391147 -0.0327348)
(0.266107 0.38793 -0.00758925)
(0.294691 0.374257 0.00229716)
(0.302679 0.360371 0.00875988)
(0.292042 0.346187 0.00845447)
(0.273183 0.336568 0.00641149)
(0.247352 0.332166 0.00422905)
(0.220647 0.330494 0.00340705)
(0.194631 0.327184 0.00314741)
(0.171576 0.320471 0.00148814)
(0.147815 0.310449 0.00278755)
(0.11832 0.303345 -0.000517706)
(0.0850145 0.289469 -0.011098)
(0.0568835 0.272105 -0.00872289)
(0.0340272 0.252288 -0.00623891)
(0.00703509 0.231825 -0.00160805)
(-0.0145124 0.202875 0.00616787)
(-0.0305799 0.175901 0.0110382)
(-0.0501938 0.149677 0.0137671)
(-0.0710866 0.124909 0.0167736)
(-0.102422 0.101744 0.0199367)
(-0.15776 0.0942116 0.00959769)
(-0.20629 0.0817754 0.00368793)
(-0.233088 0.0657305 -4.42325e-05)
(-0.24592 0.0300949 0.00212029)
(-0.258183 -0.0263459 0.000905873)
(-0.292234 -0.0808972 0.00580191)
(-0.33806 -0.139118 0.0105948)
(-0.382297 -0.208184 0.0112046)
(-0.415612 -0.284956 0.0056687)
(-0.436102 -0.359806 -0.00509031)
(-0.425417 -0.414181 -0.0201811)
(-0.37454 -0.421878 -0.0371701)
(-0.282181 -0.355994 -0.0573036)
(-0.171158 -0.202748 -0.0423889)
(-0.0503342 -0.00462037 -0.0104794)
(0.00882209 0.0508483 -0.0109985)
(-0.00534894 0.143008 -0.0121531)
(0.0454432 0.345349 -0.0361163)
(0.13652 0.439627 -0.0434727)
(0.213159 0.460412 -0.025811)
(0.270407 0.451237 -0.00913537)
(0.304276 0.428061 0.00189474)
(0.315944 0.405844 0.00738725)
(0.311948 0.402282 0.0101076)
(0.313958 0.420253 0.00894399)
(0.310695 0.430938 0.00416128)
(0.293892 0.434395 -0.000787059)
(0.257127 0.422789 -0.00547256)
(0.211748 0.400809 -0.00618214)
(0.169878 0.36509 -0.0052081)
(0.134105 0.329053 -0.00080453)
(0.0951869 0.295104 -0.00811539)
(0.0671432 0.269604 -0.00810344)
(0.0479318 0.235052 -0.00608884)
(0.0216552 0.208689 -0.00234165)
(-4.81188e-05 0.183191 0.00439506)
(-0.0166756 0.152983 0.00996959)
(-0.0331678 0.127138 0.0123357)
(-0.0529567 0.103122 0.0138636)
(-0.0785491 0.0796477 0.0172795)
(-0.127534 0.0648606 0.00592019)
(-0.174242 0.0508214 -0.00050418)
(-0.198708 0.0377198 0.00272511)
(-0.219663 0.0197669 0.00279744)
(-0.242362 -0.0174251 -0.000911964)
(-0.271018 -0.0719136 -0.00567692)
(-0.312892 -0.140082 -0.00834655)
(-0.364813 -0.211241 -0.00520116)
(-0.402251 -0.281086 -0.00161529)
(-0.419652 -0.357026 -0.0065963)
(-0.403914 -0.424555 -0.0181987)
(-0.35846 -0.462321 -0.0421816)
(-0.274691 -0.434659 -0.0646221)
(-0.15909 -0.291175 -0.0630623)
(-0.0382289 -0.0876275 -0.0299533)
(0.0102545 0.0350634 -0.008938)
(-0.0172299 0.266329 -0.0257293)
(0.0226717 0.492501 -0.0429534)
(0.112919 0.59542 -0.0498513)
(0.191908 0.626099 -0.0321261)
(0.258536 0.617035 -0.0179485)
(0.303057 0.591911 -0.00449212)
(0.342879 0.558929 0.00407773)
(0.37772 0.548074 0.00247576)
(0.377143 0.548359 -0.00261469)
(0.34281 0.52987 -0.00732756)
(0.30144 0.497163 -0.00903497)
(0.25634 0.451245 -0.0096862)
(0.211134 0.405082 -0.0085865)
(0.170133 0.357467 -0.00478761)
(0.136547 0.316077 -0.0023052)
(0.109247 0.275435 0.00234714)
(0.0782804 0.248902 -0.00419381)
(0.054048 0.217757 -0.00490222)
(0.0368632 0.186897 -0.00199783)
(0.0115524 0.160906 0.000937004)
(-0.00535832 0.134421 0.00905505)
(-0.0191813 0.107069 0.0108471)
(-0.0377481 0.0831217 0.0121105)
(-0.0587877 0.0613019 0.0157111)
(-0.101956 0.0405399 0.00461705)
(-0.143422 0.0297006 0.00483206)
(-0.165555 0.0179437 0.00516354)
(-0.189928 0.00255512 0.00616221)
(-0.221184 -0.0170781 0.00458011)
(-0.264392 -0.0519424 0.00330021)
(-0.299142 -0.108162 0.00152304)
(-0.317562 -0.184602 -0.0085711)
(-0.341174 -0.289024 -0.0244186)
(-0.371042 -0.408855 -0.0392894)
(-0.38064 -0.501416 -0.0576925)
(-0.361163 -0.569275 -0.0809619)
(-0.28252 -0.557431 -0.0946997)
(-0.189567 -0.426361 -0.0956646)
(-0.0611736 -0.159791 -0.0522313)
(0.0179845 0.0314087 -0.0131893)
(-0.00765516 0.275046 -0.00698617)
(0.0315633 0.520791 -0.0389839)
(0.114738 0.63818 -0.0492068)
(0.195755 0.686832 -0.0405643)
(0.262179 0.686218 -0.0301591)
(0.30599 0.663904 -0.0190564)
(0.343078 0.628629 -0.00970041)
(0.374568 0.591288 -0.00558588)
(0.373316 0.552964 -0.00593798)
(0.341963 0.514685 -0.00518637)
(0.302509 0.475531 -0.00446307)
(0.256402 0.43271 -0.00430491)
(0.211043 0.386583 -0.00285719)
(0.172468 0.340997 -0.00228429)
(0.13991 0.297262 -0.000261097)
(0.111734 0.257796 0.00147458)
(0.091028 0.222525 0.00565312)
(0.066466 0.195508 0.000366187)
(0.0442123 0.167731 -0.00190639)
(0.0256578 0.139702 0.00147475)
(0.00609849 0.116759 0.00552326)
(-0.00919969 0.089741 0.00993277)
(-0.0239864 0.066258 0.0105602)
(-0.0458091 0.0433651 0.0137697)
(-0.0814661 0.0208429 0.0051086)
(-0.114656 0.0110858 0.00793747)
(-0.136347 -0.0020664 0.0098012)
(-0.15392 -0.013397 0.0117082)
(-0.179663 -0.0276974 0.0089098)
(-0.22246 -0.0457415 0.0065051)
(-0.279005 -0.0735196 0.00454039)
(-0.344218 -0.132128 0.00396421)
(-0.391934 -0.224873 0.00434549)
(-0.386123 -0.355066 -0.00521362)
(-0.356228 -0.49566 -0.022844)
(-0.321305 -0.617763 -0.0433701)
(-0.248761 -0.671132 -0.0745662)
(-0.135462 -0.589705 -0.0817123)
(-0.0239853 -0.312057 -0.0766432)
(0.0152186 -0.0154442 -0.00607252)
(0.000732246 0.271255 -0.000512337)
(0.0379233 0.500264 -0.0334051)
(0.109865 0.621134 -0.0421389)
(0.188259 0.67179 -0.0368547)
(0.254237 0.671645 -0.0221422)
(0.30258 0.647462 -0.0144312)
(0.343834 0.612151 -0.00397203)
(0.377353 0.573073 -0.00105689)
(0.377102 0.532713 -0.00110754)
(0.344548 0.495607 -0.000344569)
(0.30255 0.455695 0.000203623)
(0.254731 0.412859 0.000746016)
(0.209146 0.36625 0.00115271)
(0.17037 0.321307 0.00248542)
(0.140789 0.277199 0.00231223)
(0.119072 0.237577 0.00416296)
(0.097741 0.200578 0.00460234)
(0.0789685 0.168792 0.00603708)
(0.0587245 0.143477 0.0061086)
(0.0358463 0.119098 0.000632945)
(0.0176956 0.0971689 0.00534658)
(0.00163697 0.0748346 0.00777152)
(-0.0136394 0.0499846 0.00968265)
(-0.0333051 0.027633 0.0104797)
(-0.0612818 0.00870342 0.00787213)
(-0.0896756 -0.00188685 0.0101361)
(-0.106892 -0.0121086 0.0121225)
(-0.122674 -0.0237916 0.0131157)
(-0.14615 -0.0403909 0.0133203)
(-0.181308 -0.0584247 0.0121707)
(-0.227464 -0.0805984 0.0111511)
(-0.278186 -0.110474 0.00887229)
(-0.338038 -0.150612 0.00381611)
(-0.385695 -0.224676 -0.00112592)
(-0.393449 -0.336915 -0.00741243)
(-0.37344 -0.471932 -0.0163844)
(-0.299161 -0.570863 -0.0295713)
(-0.182095 -0.562251 -0.0552637)
(-0.0245451 -0.339058 -0.0541472)
(0.0433615 0.0172035 -0.0269151)
(0.0040816 0.261969 0.00468149)
(0.042236 0.473914 -0.0247221)
(0.109396 0.597422 -0.033643)
(0.183592 0.653526 -0.0314126)
(0.248111 0.660422 -0.0154125)
(0.297453 0.637359 -0.0100441)
(0.338872 0.600922 -0.000790166)
(0.369426 0.558137 0.00240658)
(0.371365 0.509286 0.00227156)
(0.342466 0.468794 0.00306336)
(0.300317 0.427093 0.00370069)
(0.251375 0.384029 0.00440387)
(0.206746 0.33983 0.00540475)
(0.171424 0.297893 0.00584378)
(0.143096 0.256951 0.00660687)
(0.120014 0.218449 0.00845874)
(0.104593 0.180368 0.0108827)
(0.0888332 0.149932 0.0116289)
(0.0710029 0.121582 0.011516)
(0.0528939 0.101285 0.0123927)
(0.0327975 0.079465 0.00615896)
(0.0127098 0.0603916 0.00761682)
(-0.00303308 0.0374302 0.0117118)
(-0.0186594 0.0176081 0.00936932)
(-0.0409535 -0.0015319 0.00891248)
(-0.0622349 -0.0114947 0.0101843)
(-0.0795483 -0.0227781 0.0108234)
(-0.095171 -0.0367917 0.0123322)
(-0.114431 -0.0546852 0.013572)
(-0.143474 -0.0755849 0.014619)
(-0.183636 -0.0983691 0.0155065)
(-0.228288 -0.131293 0.0157203)
(-0.277707 -0.173727 0.0171381)
(-0.308634 -0.231695 0.0163223)
(-0.330051 -0.309631 0.0105092)
(-0.345001 -0.428238 0.00200896)
(-0.320121 -0.522088 -0.0144487)
(-0.226549 -0.547701 -0.038182)
(-0.0632717 -0.340256 -0.0511937)
(0.0240406 0.0354979 -0.0155253)
(0.00836848 0.24045 0.000891552)
(0.0467341 0.429523 -0.0208175)
(0.107463 0.55881 -0.0288219)
(0.179901 0.617669 -0.0275567)
(0.243137 0.6318 -0.0152903)
(0.29214 0.611293 -0.00753226)
(0.33555 0.574842 0.000643727)
(0.362503 0.531648 0.00427752)
(0.364638 0.480729 0.00490765)
(0.339596 0.43689 0.00558697)
(0.296686 0.393432 0.00677611)
(0.2493 0.351817 0.00831874)
(0.207787 0.311852 0.00952314)
(0.173871 0.273058 0.0109092)
(0.147776 0.235198 0.0112082)
(0.127636 0.200146 0.0113039)
(0.112217 0.165724 0.0114447)
(0.100277 0.134261 0.0116072)
(0.0867716 0.099303 0.0112405)
(0.0670083 0.0784496 0.00921394)
(0.0472078 0.0634786 0.0106721)
(0.0280433 0.0466774 0.00880242)
(0.0110215 0.0292265 0.00848597)
(-0.00474317 0.0109682 0.0089709)
(-0.0216949 -0.00712284 0.00933225)