/*--------------------------------*- C++ -*----------------------------------*\
| =========                 |                                                 |
| \\      /  F ield         | OpenFOAM: The Open Source CFD Toolbox           |
|  \\    /   O peration     | Version:  v1806                                 |
|   \\  /    A nd           | Web:      www.OpenFOAM.com                      |
|    \\/     M anipulation  |                                                 |
\*---------------------------------------------------------------------------*/
FoamFile
{
    version     2.0;
    format      ascii;
    class       volVectorField;
    location    "0.051";
    object      U;
}
// * * * * * * * * * * * * * * * * * * * * * * * * * * * * * * * * * * * * * //

dimensions      [0 1 -1 0 0 0 0];


internalField   nonuniform List<vector> 
64000
(
(-0.00728264 -0.00844553 -0.00442701)
(0.0146811 -0.00915617 -0.00209616)
(0.023404 -0.0043512 0.00171075)
(0.0244592 -0.00385994 0.0018401)
(0.0228939 -0.00300832 0.00270605)
(0.0225186 -0.00304685 0.00352447)
(0.0212646 -0.00357078 0.0035874)
(0.0178415 -0.00406619 0.0036537)
(0.015854 -0.0052209 0.00488444)
(0.00930943 -0.00435639 0.00433315)
(0.00261408 -0.00625117 0.00615791)
(-0.0123745 -0.00898771 0.00668641)
(-0.0330467 -0.0132603 0.0067784)
(-0.057781 -0.0178514 0.00434214)
(-0.0911259 -0.0176359 0.00531936)
(-0.125449 -0.0128329 0.00332701)
(-0.161847 0.00215999 0.00263114)
(-0.201633 -0.00355678 -0.000142608)
(-0.215103 -0.0102467 0.00592819)
(-0.264094 -0.0290208 -0.0155316)
(-0.234881 -0.0274858 -0.0296483)
(-0.113551 -0.026497 -0.0398427)
(-0.095339 -0.0138332 -0.0294728)
(-0.0938369 -0.00560302 -0.03722)
(-0.0985436 0.00122729 -0.048378)
(-0.0984289 0.0102832 -0.0567037)
(-0.0818406 0.0198107 -0.0619508)
(-0.0522532 0.0317822 -0.0564658)
(-0.0200083 0.0378564 -0.051421)
(0.0224986 0.0542682 -0.0315157)
(0.0728302 0.0432846 -0.0313819)
(0.10418 0.0361262 -0.0219352)
(0.119185 0.0252064 -0.010415)
(0.114452 0.0111029 -0.0033596)
(0.0993709 0.00342024 0.00259813)
(0.0784464 -0.0050017 0.00501547)
(0.0559718 -0.00774518 0.00727972)
(0.0336962 -0.00655768 0.00808987)
(0.0175901 -0.00481106 0.00824131)
(0.00289995 -0.00327998 0.00629369)
(-0.00537527 -0.00314991 -0.00168443)
(0.0117049 -0.0174074 -0.00136595)
(0.0303768 -0.0143806 0.000138599)
(0.0372798 -0.00966065 -0.000677943)
(0.0392906 -0.00482121 0.000297561)
(0.0387974 -0.00164104 -0.00080881)
(0.0362959 0.00273881 -0.00250082)
(0.028642 0.00487219 -0.00223668)
(0.0216053 0.0104115 -0.00705733)
(0.00403226 0.0168414 -0.00421059)
(-0.0209925 0.0242538 -0.00799119)
(-0.0588187 0.0320729 0.000174451)
(-0.107452 0.0439816 -0.00401442)
(-0.159179 0.0664335 -0.00670163)
(-0.21931 0.0780789 -0.0103866)
(-0.278626 0.0865984 -0.0186714)
(-0.368752 0.092923 -0.0426076)
(-0.469377 0.0959478 -0.0573938)
(-0.531365 0.101238 -0.0751701)
(-0.603939 0.098271 -0.0995344)
(-0.567561 0.121611 -0.107397)
(-0.424025 0.138212 -0.128012)
(-0.386691 0.180294 -0.141826)
(-0.372732 0.209762 -0.148717)
(-0.34986 0.234775 -0.159648)
(-0.317003 0.257852 -0.165274)
(-0.260566 0.277443 -0.166686)
(-0.194333 0.294254 -0.155098)
(-0.115067 0.299959 -0.134509)
(-0.0482869 0.309152 -0.109947)
(0.0195396 0.289091 -0.0744351)
(0.0856387 0.259159 -0.0476774)
(0.119194 0.20657 -0.0386106)
(0.131679 0.158686 -0.0271539)
(0.12527 0.107743 -0.0130515)
(0.104589 0.0675319 -0.00533671)
(0.0834116 0.0394429 -0.000871706)
(0.05696 0.0247779 0.000381906)
(0.0336714 0.0150595 0.00208201)
(0.00888091 0.00637036 0.00345489)
(-0.000195255 -0.0114494 0.00189917)
(0.0165067 -0.02462 -0.000585634)
(0.0379154 -0.0204899 -0.000925429)
(0.0468062 -0.00874966 -0.0011484)
(0.0454978 0.00456595 -0.00329953)
(0.0426113 0.015649 -0.00525898)
(0.0341047 0.0317017 -0.00683745)
(0.019811 0.0455207 -0.00894045)
(0.00379177 0.0692626 -0.00181205)
(-0.0266509 0.0905395 -0.00459058)
(-0.0656692 0.119158 -0.00830616)
(-0.118381 0.152989 -0.0130666)
(-0.173604 0.18504 -0.0168692)
(-0.254698 0.209394 -0.0314532)
(-0.359114 0.227306 -0.0337987)
(-0.454381 0.240214 -0.042576)
(-0.54671 0.246196 -0.0580677)
(-0.629617 0.26857 -0.0746917)
(-0.684982 0.296632 -0.0925435)
(-0.74202 0.328832 -0.114684)
(-0.692147 0.367031 -0.114905)
(-0.52372 0.394597 -0.123256)
(-0.461827 0.449168 -0.129118)
(-0.437725 0.485266 -0.123795)
(-0.406019 0.516053 -0.125374)
(-0.369309 0.539543 -0.122893)
(-0.312634 0.55238 -0.118582)
(-0.251037 0.55652 -0.104752)
(-0.18073 0.546494 -0.0835509)
(-0.118097 0.52728 -0.0601095)
(-0.0613488 0.500732 -0.0396345)
(-0.0212753 0.452199 -0.0276612)
(0.0140515 0.380016 -0.013644)
(0.0387601 0.306888 -0.00779454)
(0.0463743 0.228798 -0.0107794)
(0.0512297 0.162758 -0.0105369)
(0.0497686 0.113356 -0.00685386)
(0.039875 0.0754909 -0.00447224)
(0.0278735 0.0493835 -0.000629698)
(0.00868972 0.0219408 0.00258189)
(0.000414118 -0.017396 0.00212404)
(0.0187968 -0.0286015 -0.00205182)
(0.0431824 -0.0162695 -0.00168737)
(0.0524466 0.00197579 -0.00588038)
(0.0472077 0.027658 -0.005971)
(0.0400393 0.0546569 -0.00764719)
(0.026025 0.0897829 -0.00785845)
(0.00594919 0.12396 -0.00455061)
(-0.0198898 0.169728 -0.00981009)
(-0.06379 0.21035 -0.0120548)
(-0.110586 0.250373 -0.0162473)
(-0.18002 0.279093 -0.0230345)
(-0.271129 0.305632 -0.0258421)
(-0.362141 0.320743 -0.028189)
(-0.448628 0.344313 -0.0298106)
(-0.527037 0.37179 -0.0375718)
(-0.604554 0.401932 -0.0501842)
(-0.674187 0.433041 -0.0581292)
(-0.714197 0.470393 -0.0668757)
(-0.755348 0.511769 -0.0752401)
(-0.693066 0.54596 -0.0579292)
(-0.504949 0.564956 -0.0473998)
(-0.428882 0.605287 -0.0451747)
(-0.405886 0.619649 -0.0301881)
(-0.376765 0.630367 -0.0259527)
(-0.349607 0.633233 -0.0198255)
(-0.305472 0.624151 -0.0164978)
(-0.260827 0.606384 -0.00966868)
(-0.208587 0.581237 0.0016119)
(-0.164162 0.549042 0.00892096)
(-0.130557 0.511069 0.0145374)
(-0.107402 0.467506 0.0134357)
(-0.0875942 0.417751 0.00849737)
(-0.0641481 0.352248 0.000480621)
(-0.0431391 0.275357 -0.00380956)
(-0.0184207 0.202877 -0.00937443)
(0.00116448 0.145974 -0.00995327)
(0.0103559 0.108857 -0.00711974)
(0.0179126 0.0747506 -0.00288847)
(0.00716566 0.0328709 0.00216257)
(0.0013626 -0.019021 0.000913643)
(0.0246956 -0.0209578 -0.00486831)
(0.0521193 -0.00198051 -0.00439611)
(0.0616381 0.0312178 -0.0062139)
(0.0570125 0.0740409 -0.00572663)
(0.0488632 0.122557 -0.0141055)
(0.0285105 0.183266 -0.0110121)
(0.00184618 0.236827 -0.0045313)
(-0.0325001 0.285433 -0.00699484)
(-0.09209 0.320962 -0.0091144)
(-0.162402 0.350253 -0.0122269)
(-0.239114 0.36944 -0.0145166)
(-0.308556 0.395924 -0.0166048)
(-0.382688 0.426797 -0.0206697)
(-0.458111 0.460903 -0.0181334)
(-0.524524 0.493248 -0.0205016)
(-0.586639 0.52589 -0.0217242)
(-0.635668 0.561184 -0.017789)
(-0.656899 0.600472 -0.0159093)
(-0.686585 0.642328 -0.0240965)
(-0.624807 0.67066 -0.00531873)
(-0.431135 0.680052 0.0128797)
(-0.351664 0.691105 0.0211335)
(-0.337193 0.676017 0.0363558)
(-0.320055 0.655461 0.038305)
(-0.311682 0.632295 0.0452542)
(-0.289069 0.598878 0.0460827)
(-0.2623 0.563576 0.0498117)
(-0.231071 0.523198 0.043526)
(-0.20736 0.484125 0.0363854)
(-0.185862 0.440745 0.026892)
(-0.173868 0.405387 0.0194637)
(-0.16663 0.37165 0.0117594)
(-0.163547 0.339894 0.000315316)
(-0.148551 0.279612 -0.0113196)
(-0.105378 0.206036 -0.0123539)
(-0.0522102 0.158848 -0.0124783)
(-0.0166279 0.12752 -0.0107438)
(0.00313087 0.0926481 -0.00504654)
(0.00425592 0.0409931 0.00216979)
(0.00517793 -0.0174549 0.00074254)
(0.0314358 -0.00858529 -0.00395405)
(0.0653498 0.017405 -0.00439562)
(0.0827933 0.0655308 -0.00802111)
(0.0779934 0.119433 -0.0113359)
(0.0719608 0.186085 -0.0189119)
(0.0451457 0.253598 -0.0132052)
(-0.00454648 0.298283 -0.000364124)
(-0.0618471 0.337997 -0.00459671)
(-0.130722 0.371985 -0.00610525)
(-0.190269 0.406115 -0.00826955)
(-0.250163 0.442951 -0.00848584)
(-0.309608 0.479982 -0.00661526)
(-0.366585 0.510019 -0.00333604)
(-0.421646 0.542433 0.00347158)
(-0.46894 0.572779 0.00877299)
(-0.510805 0.605458 0.0068828)
(-0.545424 0.6388 0.010418)
(-0.558415 0.681388 0.0107512)
(-0.579411 0.71306 0.00851842)
(-0.516051 0.738391 0.027707)
(-0.337092 0.693068 0.0469004)
(-0.27495 0.671716 0.0540542)
(-0.280294 0.627144 0.0709335)
(-0.280386 0.582116 0.0751243)
(-0.28925 0.542511 0.0767743)
(-0.283933 0.498334 0.0738907)
(-0.277333 0.458037 0.06917)
(-0.261487 0.41129 0.0664321)
(-0.251672 0.373485 0.0475245)
(-0.242871 0.331903 0.0370262)
(-0.231981 0.300439 0.0238376)
(-0.220177 0.27579 0.0112161)
(-0.223304 0.258804 0.00186624)
(-0.232411 0.236315 -0.0127352)
(-0.175152 0.190906 -0.0126025)
(-0.0910485 0.159304 -0.0142613)
(-0.0396591 0.132812 -0.0114132)
(-0.00381109 0.10049 -0.00626523)
(0.00332007 0.0436841 0.00246306)
(0.00836625 -0.014995 0.000226268)
(0.0396555 0.00320292 -0.00907728)
(0.0823893 0.0406032 -0.00911672)
(0.104627 0.0940863 -0.00889797)
(0.104262 0.148843 -0.0102901)
(0.0954651 0.224376 -0.0128614)
(0.0421807 0.264627 -0.00177456)
(-0.0182402 0.308175 0.0037372)
(-0.0617456 0.354582 -0.000478131)
(-0.116843 0.404397 -0.00181182)
(-0.166665 0.453306 -0.0023164)
(-0.216091 0.496922 -0.000566058)
(-0.262864 0.535053 0.00190034)
(-0.309027 0.570402 0.0082831)
(-0.350541 0.602755 0.0136597)
(-0.384385 0.63119 0.0202012)
(-0.413577 0.655285 0.025589)
(-0.427479 0.676009 0.0295485)
(-0.433125 0.702443 0.0242027)
(-0.452786 0.718059 0.0176551)
(-0.446695 0.734622 0.0263394)
(-0.305873 0.643266 0.0486277)
(-0.227932 0.577697 0.0518486)
(-0.248177 0.526923 0.0662642)
(-0.258533 0.478773 0.06862)
(-0.281986 0.443147 0.0692686)
(-0.293204 0.405815 0.0654351)
(-0.302358 0.371763 0.0599885)
(-0.300035 0.334979 0.0484629)
(-0.301116 0.300907 0.0351845)
(-0.299017 0.268742 0.0222693)
(-0.289507 0.241424 0.0115604)
(-0.279721 0.222577 0.000728925)
(-0.276346 0.207839 -0.00493638)
(-0.27953 0.212594 -0.0149242)
(-0.225056 0.193515 -0.0196507)
(-0.127076 0.164635 -0.0209221)
(-0.056097 0.144208 -0.0164368)
(-0.00976832 0.109104 -0.00959638)
(0.00342371 0.0478461 0.000940167)
(0.00909435 -0.00540413 -9.10818e-05)
(0.0470866 0.0235653 -0.0128687)
(0.0995683 0.0721658 -0.0136658)
(0.123901 0.125736 -0.00989883)
(0.130755 0.184679 -0.0115831)
(0.102886 0.247477 -0.00923472)
(0.0422696 0.278071 0.00171309)
(0.00361134 0.33616 0.00595398)
(-0.034877 0.383254 0.00257764)
(-0.0820366 0.437063 0.00386019)
(-0.123177 0.480476 0.00548093)
(-0.164731 0.517663 0.0108713)
(-0.199705 0.54998 0.0174741)
(-0.229415 0.578197 0.023106)
(-0.259961 0.602133 0.0278493)
(-0.286442 0.619206 0.0322619)
(-0.310522 0.630519 0.0344096)
(-0.325033 0.637202 0.03521)
(-0.335381 0.632785 0.0287466)
(-0.356309 0.623237 0.0177203)
(-0.393444 0.617626 0.0139793)
(-0.313119 0.561842 0.0317187)
(-0.22621 0.456518 0.0330008)
(-0.236858 0.423717 0.0436068)
(-0.25672 0.382731 0.0485349)
(-0.28727 0.35893 0.050679)
(-0.310021 0.331367 0.0511798)
(-0.329312 0.304445 0.0462416)
(-0.337543 0.275031 0.0383929)
(-0.345651 0.244193 0.0180611)
(-0.348256 0.212642 0.0117263)
(-0.339244 0.187955 0.0025257)
(-0.326262 0.173271 -0.00470714)
(-0.310736 0.167907 -0.00888161)
(-0.317488 0.185692 -0.017845)
(-0.273414 0.195638 -0.0203718)
(-0.160792 0.170622 -0.0220659)
(-0.0738362 0.152966 -0.0177889)
(-0.0146348 0.116802 -0.00991581)
(0.00466002 0.0509722 0.00142377)
(0.00693894 0.00542072 -0.00492966)
(0.0537221 0.0539856 -0.0193405)
(0.117765 0.109422 -0.0187339)
(0.14802 0.163437 -0.0130217)
(0.152736 0.222565 -0.0143652)
(0.115998 0.263344 -0.00738669)
(0.0641811 0.311542 -0.000417779)
(0.0313566 0.366664 0.00637623)
(0.00318586 0.405997 0.0126688)
(-0.0310046 0.447278 0.012272)
(-0.0706194 0.484625 0.0165364)
(-0.100599 0.511939 0.0219862)
(-0.12561 0.534074 0.0285415)
(-0.15042 0.546101 0.0330584)
(-0.175397 0.550359 0.034744)
(-0.199311 0.548567 0.0357862)
(-0.22358 0.541025 0.0349129)
(-0.247911 0.533101 0.0320633)
(-0.274332 0.521179 0.0250585)
(-0.302976 0.501971 0.0121083)
(-0.351896 0.484799 0.00220588)
(-0.334786 0.469262 0.00868934)
(-0.25507 0.370857 0.0164261)
(-0.23587 0.343988 0.0203469)
(-0.263188 0.318733 0.0278724)
(-0.296 0.301197 0.0328516)
(-0.328797 0.282811 0.0369077)
(-0.355498 0.25713 0.036128)
(-0.372992 0.231942 0.0231859)
(-0.389748 0.197384 0.0106412)
(-0.393801 0.172491 0.000753297)
(-0.381839 0.149565 -0.004335)
(-0.366783 0.135296 -0.0107353)
(-0.341274 0.138065 -0.0169855)
(-0.328431 0.147961 -0.0204949)
(-0.29972 0.188191 -0.0265615)
(-0.197045 0.172575 -0.0261214)
(-0.089945 0.161867 -0.0241477)
(-0.0199689 0.126395 -0.0130879)
(0.00525838 0.0564833 -0.000500183)
(0.0082515 0.0216062 -0.0083307)
(0.0614794 0.0941641 -0.0270657)
(0.13483 0.154093 -0.0266154)
(0.170938 0.206593 -0.0164395)
(0.168223 0.252337 -0.0139904)
(0.135743 0.287341 -0.0101351)
(0.100591 0.339435 -0.00227461)
(0.069797 0.385446 0.0125617)
(0.0384204 0.422441 0.0178624)
(0.0147815 0.44926 0.0272074)
(-0.0113077 0.46994 0.0253581)
(-0.0402669 0.483757 0.0340386)
(-0.0631562 0.49 0.0388574)
(-0.0851848 0.482303 0.0423245)
(-0.109913 0.467451 0.0400821)
(-0.136069 0.446909 0.0367058)
(-0.163463 0.422174 0.0318568)
(-0.189298 0.40353 0.0262752)
(-0.225189 0.391283 0.0168919)
(-0.269936 0.378038 0.00640779)
(-0.321798 0.370936 -0.00381193)
(-0.345262 0.377111 -0.00481104)
(-0.288078 0.331708 0.00621848)
(-0.242192 0.295956 0.0056086)
(-0.265592 0.278182 0.0143353)
(-0.300014 0.264488 0.0223624)
(-0.338573 0.24356 0.0295055)
(-0.372379 0.222945 0.0293347)
(-0.397337 0.190852 0.0226369)
(-0.413418 0.162775 0.0090774)
(-0.418229 0.133669 0.0112798)
(-0.415506 0.112498 0.0178147)
(-0.396045 0.0928408 0.0158128)
(-0.373881 0.0943215 0.00902795)
(-0.350977 0.108328 -0.0114508)
(-0.321003 0.15407 -0.0233377)
(-0.225947 0.171143 -0.0239199)
(-0.10628 0.16114 -0.0216895)
(-0.0253355 0.134489 -0.012371)
(0.00648426 0.0601123 0.000491909)
(0.00865166 0.0406459 -0.0111413)
(0.0686887 0.134729 -0.0331663)
(0.150816 0.199299 -0.0316546)
(0.186913 0.242491 -0.0171367)
(0.184864 0.277953 -0.0130222)
(0.165438 0.314977 -0.0112371)
(0.138811 0.357899 -0.00138143)
(0.109266 0.393379 0.00669933)
(0.0845089 0.422405 0.0145141)
(0.0573049 0.442399 0.0292723)
(0.0298889 0.448443 0.0378888)
(0.0129714 0.44863 0.0467035)
(-0.00904954 0.435548 0.0474507)
(-0.0368318 0.413616 0.0485132)
(-0.0643532 0.387229 0.0423447)
(-0.0962149 0.357562 0.0339115)
(-0.126575 0.326149 0.026069)
(-0.15433 0.306966 0.0174563)
(-0.194833 0.288855 0.00794565)
(-0.238761 0.282262 0.00355724)
(-0.286295 0.289917 -0.00330931)
(-0.322462 0.310684 -0.00654671)
(-0.294922 0.315359 0.000241648)
(-0.252178 0.280717 -0.000508473)
(-0.260059 0.252412 0.00600886)
(-0.297385 0.234539 0.0152877)
(-0.338656 0.212882 0.0220999)
(-0.377902 0.188544 0.024769)
(-0.406779 0.15947 0.0155969)
(-0.428865 0.127778 0.0297677)
(-0.442302 0.0927303 0.0309606)
(-0.444141 0.0636696 0.0195816)
(-0.432141 0.050694 0.0139963)
(-0.399098 0.0463965 0.00832522)
(-0.360187 0.0627404 0.000876249)
(-0.327125 0.103372 -0.0197074)
(-0.248102 0.150321 -0.0280887)
(-0.125174 0.157583 -0.0231677)
(-0.0281203 0.13814 -0.0150327)
(0.00487591 0.0640134 -0.000793953)
(0.00916688 0.0627774 -0.0118365)
(0.0740149 0.178843 -0.0370909)
(0.159123 0.243865 -0.0348791)
(0.199032 0.277403 -0.0182987)
(0.206863 0.308331 -0.0104819)
(0.195276 0.339526 -0.00561399)
(0.174473 0.370866 -0.00476853)
(0.148293 0.394624 0.0096755)
(0.122472 0.41317 0.0132582)
(0.0992535 0.421551 0.0261152)
(0.0771481 0.423666 0.0356797)
(0.0503689 0.412558 0.0522643)
(0.0241366 0.386754 0.0543657)
(0.00148115 0.353347 0.0542116)
(-0.0287901 0.321271 0.0415624)
(-0.0665669 0.290569 0.0288374)
(-0.0984563 0.26192 0.0184395)
(-0.129578 0.246034 0.00708334)
(-0.171269 0.228192 0.00013726)
(-0.206642 0.228395 -0.00117315)
(-0.241966 0.242507 -0.00135914)
(-0.273712 0.27669 -0.00244133)
(-0.272572 0.297463 0.000175131)
(-0.255543 0.274454 -0.00133339)
(-0.258442 0.232828 0.00112841)
(-0.282887 0.20424 0.00887555)
(-0.325085 0.178428 0.0149973)
(-0.365186 0.152938 0.0138898)
(-0.399916 0.123863 0.0335386)
(-0.431294 0.0878259 0.0427421)
(-0.451613 0.0534707 0.0414238)
(-0.452732 0.0271818 0.0523418)
(-0.444791 0.00297598 0.0413784)
(-0.430676 -0.00148948 0.0331208)
(-0.394529 0.00929406 0.0248432)
(-0.345511 0.0536218 0.00289831)
(-0.258493 0.107558 -0.0244076)
(-0.138232 0.146547 -0.0245503)
(-0.0339389 0.135857 -0.0140608)
(0.0062094 0.0676217 -0.000933864)
(0.0085434 0.0770424 -0.0124314)
(0.0742387 0.212933 -0.0406494)
(0.161833 0.280405 -0.0392144)
(0.209527 0.309908 -0.0205869)
(0.227478 0.332573 -0.00723493)
(0.223073 0.353702 0.000254967)
(0.204384 0.376218 0.0045613)
(0.179944 0.388919 0.0063685)
(0.159814 0.399048 0.0151415)
(0.137703 0.400928 0.0261901)
(0.112131 0.392449 0.0345339)
(0.0862709 0.37466 0.0417056)
(0.0550543 0.346737 0.0527799)
(0.025086 0.31203 0.0528412)
(-0.00323075 0.27078 0.0403528)
(-0.0423479 0.244113 0.0223163)
(-0.0753547 0.219325 0.0116077)
(-0.108768 0.206788 -0.00090893)
(-0.146697 0.191959 -0.00480087)
(-0.167215 0.199513 -0.00300897)
(-0.182728 0.217012 0.00149079)
(-0.210093 0.24366 0.0018534)
(-0.234222 0.265031 0.00346509)
(-0.245949 0.250153 0.00105288)
(-0.252537 0.211046 0.000675728)
(-0.267738 0.166264 0.00477738)
(-0.300314 0.136892 0.009657)
(-0.340165 0.111601 0.0214238)
(-0.381139 0.0788826 0.0355907)
(-0.417647 0.0474521 0.0425573)
(-0.438819 0.0142715 0.0639331)
(-0.462932 -0.0244412 0.0468622)
(-0.470893 -0.0669307 0.0360065)
(-0.45172 -0.0886609 0.0171522)
(-0.411964 -0.0760566 0.00326226)
(-0.365786 -0.0265827 0.0117263)
(-0.279994 0.0573414 -0.00317422)
(-0.150954 0.114425 -0.0311438)
(-0.0389334 0.12813 -0.0144197)
(0.00690679 0.0672167 -0.00263957)
(0.00749774 0.0907818 -0.0112466)
(0.0737645 0.2446 -0.0429984)
(0.163756 0.316598 -0.044027)
(0.217339 0.342461 -0.0240783)
(0.244139 0.355959 -0.00530384)
(0.247565 0.364016 0.00636553)
(0.232125 0.374568 0.0113872)
(0.20982 0.382438 0.0155669)
(0.191785 0.387244 0.0175343)
(0.169908 0.381173 0.0217292)
(0.147425 0.366278 0.0245399)
(0.116425 0.341941 0.0361329)
(0.081848 0.30985 0.03702)
(0.0452696 0.276464 0.0418598)
(0.0148926 0.242224 0.0341807)
(-0.0190173 0.209826 0.0146113)
(-0.0520675 0.195972 0.00539614)
(-0.0854195 0.179626 -0.00682098)
(-0.113725 0.17763 -0.00561691)
(-0.117487 0.188157 -0.00214124)
(-0.129917 0.196976 0.00355037)
(-0.151796 0.203192 0.00946102)
(-0.184514 0.213749 0.0100428)
(-0.219212 0.211072 0.00616033)
(-0.243688 0.184821 0.00235178)
(-0.249966 0.137514 0.0021722)
(-0.265402 0.101364 0.00503918)
(-0.303251 0.0718602 0.0219712)
(-0.343477 0.0395822 0.0324431)
(-0.380029 0.00916101 0.0546661)
(-0.425725 -0.0345322 0.0422281)
(-0.466826 -0.0896625 0.0366282)
(-0.484392 -0.134072 0.024476)
(-0.473421 -0.167093 0.0139545)
(-0.432559 -0.170664 -0.00290157)
(-0.368412 -0.128369 -0.00707589)
(-0.286325 -0.0258608 0.000843837)
(-0.170341 0.0745616 -0.0168312)
(-0.0433962 0.116542 -0.0189048)
(0.00674694 0.0697072 -0.00184085)
(0.0047641 0.0886121 -0.0119636)
(0.0689719 0.259379 -0.0442048)
(0.160803 0.336493 -0.0461688)
(0.221129 0.360923 -0.025736)
(0.254357 0.367063 -0.00525429)
(0.262458 0.365049 0.00905297)
(0.255696 0.367447 0.0167836)
(0.239153 0.369988 0.0195627)
(0.221044 0.368006 0.0218615)
(0.197664 0.357638 0.0230656)
(0.171329 0.341041 0.0233394)
(0.140665 0.314424 0.0203803)
(0.105068 0.28377 0.0192218)
(0.0699002 0.249191 0.0195945)
(0.0325809 0.222313 0.0211973)
(0.00122198 0.190577 0.00794983)
(-0.026877 0.179059 -0.0026905)
(-0.0553801 0.168595 -0.00836868)
(-0.0676487 0.178976 -0.00480752)
(-0.0733232 0.18487 -0.000737757)
(-0.086942 0.180208 0.00800379)
(-0.106424 0.174644 0.0149647)
(-0.132224 0.167879 0.0187941)
(-0.17347 0.165613 0.0121882)
(-0.215733 0.154469 0.00592212)
(-0.231935 0.123421 0.00592141)
(-0.237301 0.0714 0.0119295)
(-0.264802 0.0395095 0.0231657)
(-0.299674 0.00613658 0.0406653)
(-0.347297 -0.0351621 0.035843)
(-0.401626 -0.0904595 0.035433)
(-0.44653 -0.144755 0.0269115)
(-0.475522 -0.199807 0.0171009)
(-0.478883 -0.241942 0.00324341)
(-0.445672 -0.261841 -0.0112546)
(-0.38028 -0.229214 -0.018571)
(-0.287044 -0.141229 -0.0197099)
(-0.172636 0.00679401 8.9616e-05)
(-0.0519985 0.0880576 -0.0273571)
(0.00653039 0.0665493 -0.00389646)
(0.00501455 0.0899634 -0.00555412)
(0.0674533 0.272693 -0.0402537)
(0.158624 0.354306 -0.0428775)
(0.223725 0.375715 -0.0233177)
(0.26326 0.373968 -0.000410022)
(0.281017 0.366068 0.0117989)
(0.280619 0.363789 0.0169686)
(0.264201 0.359214 0.0188759)
(0.246586 0.353842 0.0190134)
(0.225803 0.339454 0.0178404)
(0.201731 0.31837 0.0147339)
(0.166887 0.289047 0.0109197)
(0.127321 0.254797 0.00727391)
(0.0899207 0.224973 0.00225863)
(0.0531197 0.205056 0.00601049)
(0.0238444 0.196853 -0.00228271)
(0.00409688 0.191998 -0.00550581)
(-0.0102282 0.196219 -0.00431572)
(-0.0202799 0.202081 -0.000133579)
(-0.0339621 0.190978 0.00451607)
(-0.0523505 0.177294 0.011824)
(-0.0715836 0.159465 0.0159187)
(-0.0955247 0.142829 0.0184058)
(-0.129277 0.126933 0.0174482)
(-0.175176 0.122484 0.00885496)
(-0.213554 0.101734 0.00861336)
(-0.219587 0.0602896 0.0102823)
(-0.227248 0.0114603 0.0177257)
(-0.264831 -0.025865 0.0217941)
(-0.313867 -0.077107 0.0261145)
(-0.367259 -0.127541 0.0248254)
(-0.417929 -0.185566 0.0219236)
(-0.454073 -0.245386 0.0141121)
(-0.469067 -0.300365 0.00185258)
(-0.445757 -0.333052 -0.0135521)
(-0.387305 -0.32172 -0.0291755)
(-0.286024 -0.239799 -0.0327921)
(-0.173388 -0.0864325 -0.021389)
(-0.0546955 0.0494109 -0.0185538)
(0.00850023 0.0608465 -0.00942891)
(-0.00129213 0.0924853 -0.0133822)
(0.0552837 0.280476 -0.0445095)
(0.147613 0.368197 -0.0485663)
(0.219069 0.389941 -0.0282349)
(0.269107 0.386256 -0.00322279)
(0.297288 0.372157 0.00759869)
(0.303672 0.358612 0.0131592)
(0.291505 0.344845 0.0130766)
(0.272494 0.329932 0.0104096)
(0.245552 0.312027 0.00718372)
(0.216883 0.296917 0.00504572)
(0.181824 0.28152 0.00245172)
(0.147543 0.267455 0.0010654)
(0.121439 0.254498 0.000779486)
(0.0968206 0.247795 0.00332007)
(0.0722581 0.244852 -0.00889472)
(0.0514414 0.235163 -0.00647745)
(0.0333146 0.227725 -0.00581006)
(0.00851379 0.2129 -0.00285186)
(-0.0128578 0.190303 0.00440297)
(-0.0295124 0.165587 0.00979483)
(-0.0490436 0.141888 0.013603)
(-0.0701219 0.119933 0.015411)
(-0.0954199 0.0993347 0.0183351)
(-0.137654 0.087647 0.0108151)
(-0.182889 0.0742941 0.00279804)
(-0.206125 0.0505359 0.00276897)
(-0.216131 0.00434868 0.0031121)
(-0.238613 -0.0449942 0.00735551)
(-0.281345 -0.0925503 0.0126588)
(-0.328454 -0.151498 0.0155568)
(-0.376375 -0.216967 0.0135703)
(-0.415636 -0.288321 0.0077016)
(-0.438773 -0.360348 -0.00325945)
(-0.429339 -0.412769 -0.0190406)
(-0.38005 -0.423278 -0.0357803)
(-0.288814 -0.356826 -0.0550112)
(-0.177104 -0.199614 -0.0390696)
(-0.0543598 -0.00186284 -0.00990369)
(0.00752352 0.0562492 -0.0107051)
(-0.00710249 0.101395 -0.0137934)
(0.0434926 0.301954 -0.0377054)
(0.136746 0.397347 -0.0450175)
(0.214837 0.418759 -0.02671)
(0.272284 0.411358 -0.00984833)
(0.305419 0.388264 0.00184096)
(0.316011 0.36692 0.00746125)
(0.30311 0.356274 0.00913059)
(0.288645 0.366997 0.0096272)
(0.277581 0.375785 0.00695759)
(0.265311 0.378034 0.00346952)
(0.237436 0.367285 -0.00125947)
(0.200933 0.352493 -0.00265135)
(0.166262 0.327947 -0.00425288)
(0.132726 0.302004 -0.000231285)
(0.094807 0.2762 -0.00869179)
(0.067365 0.253724 -0.00963261)
(0.0481828 0.221843 -0.00759038)
(0.0250683 0.195866 -0.00400357)
(0.00352555 0.172215 0.0016374)
(-0.0146989 0.144534 0.00839213)
(-0.0301046 0.119468 0.0117354)
(-0.0500676 0.0970997 0.0125429)
(-0.0715497 0.075245 0.0161307)
(-0.106818 0.058766 0.00696372)
(-0.150643 0.044747 -0.00086272)
(-0.179598 0.0300619 0.00229987)
(-0.199605 0.00135216 0.000123654)
(-0.221587 -0.0421159 -0.00384701)
(-0.260086 -0.0965165 -0.00465569)
(-0.308829 -0.149965 0.00100386)
(-0.355164 -0.212265 0.00466586)
(-0.394432 -0.285166 0.00474188)
(-0.417275 -0.363144 -0.00205924)
(-0.40849 -0.430602 -0.0148679)
(-0.364537 -0.464948 -0.0347959)
(-0.272163 -0.435071 -0.0579893)
(-0.157322 -0.297834 -0.0611654)
(-0.039527 -0.090368 -0.0262704)
(0.0107427 0.0317582 -0.00863943)
(-0.012112 0.224982 -0.0179686)
(0.0313197 0.446943 -0.0348646)
(0.118509 0.548816 -0.0431895)
(0.196994 0.576896 -0.0247863)
(0.262076 0.566927 -0.012033)
(0.306064 0.54008 0.00264227)
(0.338 0.506544 0.00914411)
(0.363976 0.493592 0.00867028)
(0.368518 0.499623 0.00202091)
(0.33847 0.494294 -0.00444585)
(0.297409 0.473122 -0.00865576)
(0.251527 0.435459 -0.0108424)
(0.205573 0.392951 -0.010845)
(0.165241 0.346584 -0.00780513)
(0.133352 0.303865 -0.00473108)
(0.107722 0.263802 -0.000134497)
(0.0785811 0.236114 -0.00603544)
(0.0562825 0.206149 -0.00636732)
(0.0405528 0.176544 -0.00403967)
(0.017574 0.150087 -0.00128735)
(-0.000974281 0.127333 0.00579525)
(-0.0156029 0.10031 0.00977794)
(-0.0335663 0.0777291 0.0105138)
(-0.052082 0.0571162 0.0148907)
(-0.0838395 0.0344085 0.00508978)
(-0.12187 0.0212687 0.00499705)
(-0.151064 0.00814454 0.00494029)
(-0.177415 -0.00729449 0.00578382)
(-0.208026 -0.0326299 0.00290258)
(-0.238769 -0.0757936 0.00108632)
(-0.266188 -0.131841 -0.00719852)
(-0.306682 -0.21251 -0.0158413)
(-0.347536 -0.308686 -0.0215457)
(-0.377637 -0.409018 -0.0301449)
(-0.384191 -0.492008 -0.0469542)
(-0.364523 -0.554379 -0.0746004)
(-0.294578 -0.541785 -0.0912301)
(-0.196957 -0.415444 -0.0887624)
(-0.0628222 -0.153217 -0.0494818)
(0.0141971 0.0357998 -0.0104463)
(-0.013988 0.273953 -0.014108)
(0.023426 0.516983 -0.0418609)
(0.110353 0.630939 -0.0516766)
(0.193141 0.677032 -0.0417195)
(0.260875 0.674325 -0.0313583)
(0.305302 0.651016 -0.0191391)
(0.341486 0.61308 -0.00992928)
(0.370076 0.580255 -0.00633043)
(0.367521 0.545445 -0.00787305)
(0.334384 0.50649 -0.00791681)
(0.294498 0.46591 -0.00726076)
(0.249115 0.422013 -0.00735355)
(0.205401 0.375649 -0.00583924)
(0.168905 0.330982 -0.00520254)
(0.137784 0.287744 -0.00316253)
(0.110603 0.248752 -0.00121464)
(0.0911322 0.213545 0.00315521)
(0.0690206 0.186277 -0.00157305)
(0.0481999 0.158661 -0.00383568)
(0.0323805 0.131539 -0.00072491)
(0.0120446 0.107993 0.00170959)
(-0.00452259 0.084604 0.008301)
(-0.0186101 0.0591132 0.00887023)
(-0.0397676 0.0383867 0.0119219)
(-0.065233 0.0162586 0.00720987)
(-0.0950556 0.0027536 0.00843668)
(-0.11891 -0.00922325 0.0111092)
(-0.139703 -0.01896 0.0093465)
(-0.173062 -0.0343221 0.00616768)
(-0.21972 -0.0566431 0.00423362)
(-0.278233 -0.100955 0.00482779)
(-0.329292 -0.171061 0.00617793)
(-0.354961 -0.262432 0.00191365)
(-0.353645 -0.39429 -0.012313)
(-0.346117 -0.533171 -0.0281349)
(-0.324187 -0.651613 -0.0496694)
(-0.255055 -0.6971 -0.0783793)
(-0.145993 -0.602612 -0.0855642)
(-0.0337999 -0.323366 -0.0751283)
(0.0125741 -0.0231194 -0.00541279)
(0.000336962 0.250383 0.00033461)
(0.0369166 0.485908 -0.0342037)
(0.107833 0.608235 -0.0438358)
(0.187178 0.660266 -0.0388821)
(0.253572 0.660629 -0.0254686)
(0.302074 0.63732 -0.0172221)
(0.342015 0.600883 -0.00769661)
(0.373045 0.562771 -0.00329784)
(0.372348 0.52302 -0.00354516)
(0.33862 0.486527 -0.00299212)
(0.295973 0.447744 -0.00246333)
(0.248317 0.405602 -0.00185042)
(0.203929 0.359878 -0.00167583)
(0.166617 0.315597 -0.00039952)
(0.138373 0.27152 -0.00088492)
(0.11794 0.232424 0.00115699)
(0.0976682 0.195078 0.00138486)
(0.0809157 0.163255 0.00344858)
(0.0632896 0.137823 0.00372279)
(0.0419697 0.113391 -0.00138383)
(0.0249472 0.0908879 0.00234591)
(0.00672641 0.0700427 0.00515818)
(-0.00942221 0.0465471 0.00936483)
(-0.0242193 0.0252696 0.01037)
(-0.0466949 0.00653176 0.00807806)
(-0.0709494 -0.00763304 0.0109312)
(-0.0898823 -0.0179904 0.011921)
(-0.109827 -0.0323641 0.0126773)
(-0.138366 -0.0479563 0.0108793)
(-0.176629 -0.0649864 0.00970164)
(-0.222925 -0.0848916 0.00804587)
(-0.277426 -0.115171 0.00573352)
(-0.343717 -0.16688 0.00347694)
(-0.389694 -0.262479 0.0020949)
(-0.388104 -0.384422 -0.0033053)
(-0.362813 -0.522037 -0.0147012)
(-0.290486 -0.617172 -0.028469)
(-0.176873 -0.605494 -0.0550836)
(-0.024077 -0.371687 -0.0533479)
(0.040848 -0.0123925 -0.0240563)
(0.00175932 0.254404 0.00318462)
(0.0391477 0.467949 -0.0256157)
(0.106458 0.59116 -0.0352457)
(0.180856 0.647321 -0.0330632)
(0.24586 0.653536 -0.0177404)
(0.294853 0.630888 -0.0121013)
(0.336502 0.593437 -0.00233639)
(0.366297 0.551969 0.00108123)
(0.366788 0.503948 0.000966405)
(0.336631 0.46377 0.00142491)
(0.293859 0.422489 0.00173836)
(0.245267 0.379928 0.00195118)
(0.202241 0.336872 0.00208274)
(0.168242 0.296106 0.00183212)
(0.141318 0.255694 0.00188458)
(0.11894 0.216785 0.00335954)
(0.104196 0.177521 0.00587798)
(0.0910894 0.145745 0.00773285)
(0.0746278 0.117172 0.00791808)
(0.058795 0.0959517 0.0101723)
(0.0394876 0.0751725 0.00444748)
(0.0200727 0.0563589 0.00525734)
(0.00465008 0.0362284 0.01026)
(-0.0114916 0.0183557 0.00857149)
(-0.0282602 -0.00298641 0.00882456)
(-0.0465199 -0.0153485 0.00957618)
(-0.0651586 -0.0304711 0.0107913)
(-0.0828777 -0.0459399 0.0120369)
(-0.106008 -0.0647578 0.0130291)
(-0.137489 -0.0845599 0.0134726)
(-0.180601 -0.106753 0.013638)
(-0.224627 -0.140449 0.0143802)
(-0.273568 -0.180603 0.0153776)
(-0.307518 -0.236644 0.0138661)
(-0.332099 -0.315803 0.00788461)
(-0.347348 -0.442276 -1.73989e-05)
(-0.320821 -0.540981 -0.0150937)
(-0.225038 -0.570438 -0.038962)
(-0.0595465 -0.361622 -0.051972)
(0.0255054 0.0161575 -0.0176205)
(0.0071933 0.231097 0.000678086)
(0.0447065 0.423918 -0.0219651)
(0.10471 0.553058 -0.0303716)
(0.176967 0.612469 -0.029194)
(0.2405 0.626611 -0.0167913)
(0.289585 0.606632 -0.00924448)
(0.333466 0.570428 -0.000517657)
(0.36017 0.52732 0.00327034)
(0.361 0.476913 0.00394187)
(0.334483 0.433845 0.00434146)
(0.290919 0.391182 0.00508935)
(0.244273 0.350743 0.00573636)
(0.204574 0.312127 0.00551332)
(0.171535 0.274452 0.00556398)
(0.145279 0.23584 0.00562403)
(0.124814 0.199932 0.00708288)
(0.109573 0.164635 0.00824726)
(0.100595 0.132258 0.00936285)
(0.090073 0.101112 0.00940882)
(0.0730677 0.0769818 0.00801586)
(0.0555553 0.0618172 0.00855656)
(0.0360567 0.0446938 0.00827628)
(0.019883 0.0281021 0.00530368)
(0.00397022 0.0111504 0.007314)
(-0.0118017 -0.00621633 0.00853804)
(-0.0272668 -0.0222305 0.00897464)