/*--------------------------------*- C++ -*----------------------------------*\
| =========                 |                                                 |
| \\      /  F ield         | OpenFOAM: The Open Source CFD Toolbox           |
|  \\    /   O peration     | Version:  v1806                                 |
|   \\  /    A nd           | Web:      www.OpenFOAM.com                      |
|    \\/     M anipulation  |                                                 |
\*---------------------------------------------------------------------------*/
FoamFile
{
    version     2.0;
    format      ascii;
    class       vectorField;
    location    "0.0415";
    object      currentcloudofpoints;
}
// * * * * * * * * * * * * * * * * * * * * * * * * * * * * * * * * * * * * * //


2409
(
(0.74669 1.28928 1.00025)
(0.828906 0.818024 0.999718)
(1.21138 1.35722 0.999595)
(0.995381 1.05991 0.736205)
(0.997318 1.05999 1.26456)
(1.07611 1.08957 1.00006)
(0.601653 1.39823 0.99966)
(0.709084 0.660861 1.00081)
(1.30331 1.53724 0.999927)
(0.986881 1.05946 0.558988)
(0.982322 1.06309 1.43591)
(1.20219 1.34072 1.08724)
(1.17232 1.29876 1.1639)
(1.12278 1.23708 1.22404)
(1.06078 1.15185 1.26506)
(1.20727 1.35023 1.04358)
(1.18849 1.31983 1.12596)
(1.14817 1.26854 1.19351)
(1.09125 1.19723 1.24567)
(1.02971 1.10343 1.26903)
(0.840113 0.828422 1.05382)
(0.867425 0.864131 1.10843)
(0.904982 0.919783 1.16861)
(0.950105 0.986004 1.22056)
(0.834735 0.823524 1.02628)
(0.85541 0.846475 1.07851)
(0.886839 0.891846 1.1376)
(0.929655 0.953582 1.19194)
(0.97238 1.0228 1.24188)
(1.2016 1.34085 0.912129)
(1.17137 1.29842 0.83619)
(1.12175 1.23566 0.777309)
(1.06066 1.15015 0.736107)
(1.20708 1.35012 0.955601)
(1.18762 1.31998 0.873816)
(1.14706 1.26776 0.807031)
(1.09097 1.19517 0.755963)
(1.02806 1.10282 0.732239)
(0.950749 0.985409 0.779457)
(0.905412 0.918945 0.831504)
(0.864487 0.863459 0.890046)
(0.840734 0.829631 0.945541)
(0.972353 1.02255 0.758456)
(0.930004 0.952603 0.807577)
(0.885687 0.890882 0.862159)
(0.853504 0.846674 0.919996)
(0.836465 0.824921 0.973287)
(0.936158 1.11243 1.21954)
(0.863218 1.17245 1.17125)
(0.801305 1.2258 1.11233)
(0.760884 1.26938 1.06955)
(0.968691 1.08408 1.23619)
(0.901068 1.14103 1.1964)
(0.831668 1.20055 1.13749)
(0.779945 1.24626 1.08859)
(0.751588 1.28075 1.03646)
(0.762051 1.26953 0.931318)
(0.800363 1.22673 0.886085)
(0.86226 1.17227 0.828181)
(0.933772 1.11203 0.782464)
(0.752619 1.28013 0.964535)
(0.780159 1.2476 0.910189)
(0.830761 1.19993 0.862666)
(0.899127 1.14161 0.802928)
(0.966609 1.08343 0.765918)
(0.756791 0.919143 0.999691)
(0.703775 1.01845 0.999476)
(0.678994 1.11457 0.999973)
(0.694595 1.21105 0.999737)
(0.797714 0.870431 1.00018)
(0.733394 0.970199 0.999039)
(0.693359 1.06566 0.999843)
(0.684728 1.16221 0.999874)
(0.719854 1.25001 0.999896)
(0.82086 1.34902 1.00098)
(0.913003 1.3868 1.00183)
(1.01609 1.39925 1.00024)
(1.1211 1.39279 0.999448)
(0.782907 1.31761 1.00043)
(0.866329 1.36779 1.00163)
(0.964858 1.39219 1.00105)
(1.06987 1.39495 0.999732)
(1.16763 1.37926 0.999392)
(0.721161 0.673295 1.10274)
(0.741299 0.696117 1.19924)
(0.772769 0.726994 1.27126)
(0.807071 0.771396 1.32619)
(0.849083 0.827596 1.36576)
(0.888217 0.897458 1.40468)
(0.938154 0.978125 1.42887)
(0.712701 0.666977 1.05211)
(0.732506 0.68419 1.15208)
(0.756755 0.712975 1.23719)
(0.791184 0.748196 1.29887)
(0.828532 0.799626 1.34554)
(0.869513 0.860954 1.38384)
(0.914667 0.938016 1.41547)
(0.96259 1.02051 1.4335)
(1.03637 1.14019 1.43507)
(1.10209 1.21437 1.41124)
(1.16394 1.2895 1.37513)
(1.21325 1.36319 1.32689)
(1.25806 1.42826 1.25835)
(1.28284 1.48642 1.17862)
(1.29813 1.52498 1.09201)
(1.00688 1.10281 1.435)
(1.06943 1.17669 1.42323)
(1.13587 1.25032 1.39191)
(1.18842 1.32649 1.35113)
(1.23713 1.3945 1.29353)
(1.2715 1.45718 1.2181)
(1.29117 1.50634 1.13585)
(1.30122 1.53179 1.04625)
(0.720369 0.672182 0.896054)
(0.74223 0.696287 0.801908)
(0.772718 0.725206 0.726774)
(0.803662 0.770055 0.671617)
(0.845493 0.82514 0.630878)
(0.886947 0.896925 0.595461)
(0.937221 0.977513 0.571569)
(0.7145 0.664969 0.948442)
(0.730766 0.685788 0.847858)
(0.75887 0.710299 0.762225)
(0.788785 0.748075 0.698952)
(0.825464 0.797155 0.65226)
(0.86627 0.859586 0.613251)
(0.913971 0.937535 0.585949)
(0.96348 1.01829 0.564183)
(1.29799 1.52508 0.907993)
(1.28304 1.48685 0.821316)
(1.25801 1.42784 0.74184)
(1.21351 1.3626 0.673244)
(1.1643 1.28987 0.623695)
(1.10192 1.21504 0.589098)
(1.03959 1.13925 0.564996)
(1.30105 1.5318 0.953647)
(1.2912 1.50666 0.864179)
(1.27167 1.45734 0.781847)
(1.23715 1.39374 0.706877)
(1.18884 1.32636 0.648265)
(1.13597 1.25099 0.607314)
(1.06978 1.17687 0.57821)
(1.01269 1.10017 0.561352)
(0.608216 1.3917 1.09477)
(0.628941 1.37263 1.18858)
(0.667181 1.33765 1.27525)
(0.725098 1.28859 1.33827)
(0.785851 1.23724 1.36941)
(0.848476 1.18425 1.39737)
(0.9172 1.12995 1.41125)
(0.60465 1.39595 1.04821)
(0.619945 1.38257 1.14421)
(0.648339 1.35587 1.235)
(0.697938 1.31252 1.31016)
(0.756144 1.26273 1.35535)
(0.81881 1.21071 1.3789)
(0.879929 1.15704 1.40451)
(0.953304 1.09922 1.42537)
(0.610027 1.39072 0.904495)
(0.625616 1.37445 0.813517)
(0.671068 1.33651 0.724914)
(0.722143 1.29 0.658941)
(0.787684 1.23691 0.63269)
(0.84918 1.1847 0.608126)
(0.922292 1.12743 0.584551)
(0.607909 1.39417 0.95072)
(0.61767 1.38362 0.856826)
(0.649242 1.356 0.765744)
(0.697866 1.313 0.689365)
(0.755812 1.26303 0.643619)
(0.820632 1.21085 0.624228)
(0.881201 1.15607 0.598948)
(0.959459 1.09573 0.566106)
(0.631705 0.734432 1.00068)
(0.577139 0.81049 0.999966)
(0.538866 0.896843 0.999625)
(0.515412 0.992729 0.999947)
(0.510886 1.09388 1)
(0.518981 1.19628 0.99985)
(0.548547 1.29899 0.999595)
(0.668429 0.699958 1.00078)
(0.603423 0.772297 1.00041)
(0.558376 0.852999 0.999573)
(0.525928 0.943665 0.999747)
(0.512796 1.0423 0.999973)
(0.515115 1.14441 0.999923)
(0.532359 1.247 0.99974)
(0.574763 1.34837 0.999611)
(0.67076 1.48303 0.999526)
(0.750358 1.54679 0.99984)
(0.843702 1.59014 1.00037)
(0.945226 1.60988 1.00065)
(1.03912 1.61106 1.00026)
(1.12328 1.59725 0.999833)
(1.20954 1.57275 0.999948)
(0.637054 1.44215 0.999705)
(0.712084 1.51623 0.999624)
(0.798214 1.56983 1.00006)
(0.896775 1.60051 1.00055)
(0.994151 1.61017 1.00052)
(1.08155 1.6018 0.999932)
(1.16496 1.58403 0.999875)
(1.25592 1.5537 0.999936)
(0.9792 1.06484 0.655684)
(0.988937 1.06199 0.601287)
(0.984334 1.06079 0.697569)
(0.982722 1.06261 1.34534)
(0.988814 1.05912 1.3047)
(0.985495 1.06374 1.39489)
(0.753199 0.751055 0.998755)
(0.788116 0.785688 0.998857)
(0.727298 0.697128 1.00022)
(1.26238 1.43696 0.999763)
(1.23469 1.3956 0.99973)
(1.2879 1.48467 0.999791)
(0.837831 1.49126 1.25473)
(0.845673 1.55035 1.17077)
(0.967177 1.31721 1.39698)
(1.03639 1.57905 1.15691)
(0.703461 1.50296 1.07976)
(1.01202 1.23856 1.42548)
(1.20158 1.55008 1.13559)
(1.11814 1.54158 1.21544)
(0.744381 1.49879 1.17341)
(0.93943 1.54919 1.21419)
(0.923645 1.58819 1.11342)
(0.746955 1.40743 1.28815)
(1.02536 1.5098 1.27428)
(1.11464 1.57836 1.12976)
(0.936149 1.46702 1.31052)
(1.15708 1.58399 1.06488)
(1.0595 1.31319 1.40646)
(1.08102 1.59703 1.07301)
(0.662545 1.45003 1.12774)
(0.92338 1.21932 1.40415)
(0.868287 1.303 1.38035)
(1.01564 1.41114 1.35814)
(1.19232 1.48933 1.23875)
(0.810734 1.56568 1.08256)
(0.68156 1.42348 1.21018)
(0.928528 1.38283 1.36405)
(1.17213 1.4268 1.30728)
(1.10589 1.46805 1.30308)
(0.645991 1.4538 1.05963)
(0.975628 1.16404 1.42711)
(1.23398 1.55943 1.05927)
(0.84996 1.40774 1.33354)
(0.793595 1.33047 1.35297)
(1.11845 1.38225 1.35666)
(0.880391 1.59458 1.04967)
(1.00678 1.60287 1.06981)
(1.02031 1.19106 1.43213)
(1.05092 1.22671 1.42376)
(0.977307 1.11463 1.43202)
(1.00211 1.15359 1.43552)
(0.993693 1.20169 1.42563)
(1.07886 1.26351 1.40956)
(1.1099 1.29825 1.38889)
(1.03707 1.27616 1.41707)
(1.1407 1.33511 1.36441)
(1.1651 1.37113 1.33949)
(1.0893 1.34634 1.38146)
(1.19246 1.39414 1.31589)
(1.21575 1.42527 1.28106)
(1.14474 1.40452 1.33241)
(1.22623 1.45689 1.24681)
(1.2359 1.4858 1.20706)
(1.18541 1.45645 1.2732)
(1.24171 1.51761 1.15794)
(1.24865 1.53571 1.11371)
(1.19634 1.52116 1.18912)
(1.26597 1.54225 1.07567)
(1.26922 1.54774 1.0298)
(1.21725 1.55463 1.09748)
(1.22185 1.56597 1.02967)
(0.729753 1.52567 1.03985)
(0.687795 1.49413 1.04076)
(0.675078 1.4793 1.07061)
(0.658835 1.46917 1.02964)
(0.624358 1.42705 1.03144)
(0.829472 1.5781 1.04164)
(0.782911 1.55678 1.0422)
(0.759576 1.53526 1.08298)
(0.914431 1.60193 1.02565)
(0.862809 1.59266 1.02523)
(0.846665 1.58085 1.06623)
(1.02303 1.60625 1.03523)
(0.977561 1.60562 1.03519)
(0.947978 1.5977 1.06067)
(1.10174 1.59597 1.03685)
(1.06027 1.60217 1.03641)
(1.04471 1.5988 1.07183)
(1.18282 1.57775 1.03312)
(1.13989 1.59005 1.03203)
(1.11821 1.58906 1.06934)
(1.19406 1.57064 1.06291)
(0.791834 1.49631 1.21641)
(0.796151 1.52506 1.17418)
(0.841866 1.52205 1.21356)
(0.893767 1.55033 1.19346)
(0.88946 1.52107 1.23574)
(0.780324 1.53388 1.1287)
(0.82956 1.55892 1.12644)
(0.886051 1.57103 1.14204)
(0.93277 1.57022 1.16379)
(0.868884 1.57847 1.09844)
(0.994423 1.27964 1.40728)
(1.01635 1.31794 1.40209)
(0.972806 1.23131 1.41046)
(0.946135 1.26928 1.3987)
(0.992937 1.36299 1.37967)
(1.039 1.36258 1.38294)
(0.917316 1.31064 1.38705)
(0.895344 1.26168 1.39184)
(0.948167 1.34898 1.38062)
(0.898794 1.34288 1.37284)
(0.972979 1.39709 1.36062)
(1.02175 1.58969 1.11334)
(1.05862 1.58658 1.11547)
(0.983112 1.58181 1.13709)
(0.967537 1.59394 1.09287)
(1.07226 1.52316 1.24694)
(1.03142 1.54659 1.21749)
(1.07657 1.56037 1.18673)
(1.07567 1.57732 1.14416)
(1.11657 1.56107 1.17278)
(1.09731 1.58709 1.10108)
(0.990864 1.56334 1.18727)
(0.983605 1.52972 1.24572)
(0.704257 1.47529 1.15274)
(0.683463 1.47745 1.10396)
(0.725668 1.5014 1.12782)
(0.654994 1.45209 1.09448)
(0.635943 1.42141 1.1132)
(0.646385 1.412 1.16007)
(0.627105 1.4234 1.0778)
(0.655557 1.39825 1.20085)
(0.674489 1.38068 1.246)
(0.672847 1.43753 1.1704)
(0.707497 1.37261 1.28367)
(0.737302 1.3466 1.31763)
(0.714121 1.41653 1.25164)
(0.789916 1.28333 1.36198)
(0.759368 1.30986 1.34565)
(0.772422 1.36782 1.32515)
(0.827009 1.27041 1.37265)
(0.857918 1.24436 1.38499)
(0.831799 1.31605 1.36563)
(0.883747 1.20193 1.40115)
(0.919251 1.17522 1.40589)
(0.948006 1.14829 1.41666)
(0.952846 1.19325 1.41098)
(0.793547 1.44922 1.27418)
(0.845085 1.44942 1.29771)
(0.800063 1.4076 1.31259)
(0.89416 1.43682 1.32305)
(0.889286 1.47859 1.28466)
(0.746862 1.45475 1.23512)
(0.937734 1.50905 1.26465)
(1.17849 1.56703 1.1007)
(0.822061 1.36887 1.34427)
(0.860459 1.3533 1.35922)
(0.890638 1.39497 1.349)
(0.933155 1.4241 1.34027)
(0.903334 1.59092 1.08134)
(1.15684 1.56349 1.13463)
(1.15926 1.54439 1.17747)
(1.15431 1.51512 1.23077)
(1.13506 1.57978 1.09787)
(1.11267 1.50357 1.26157)
(1.06537 1.48822 1.28989)
(1.15071 1.47645 1.2731)
(0.71371 1.462 1.19361)
(0.981523 1.48904 1.29281)
(0.977434 1.43849 1.33571)
(1.02172 1.45971 1.31974)
(1.0608 1.43942 1.33175)
(1.06811 1.39705 1.35915)
(1.11324 1.42472 1.33175)
(1.13926 1.44669 1.30699)
(0.639691 1.0243 1.31783)
(0.545425 1.11111 1.18223)
(0.591343 0.875273 1.17539)
(0.628952 0.815135 1.18549)
(0.576024 1.1571 1.24231)
(0.699184 1.08642 1.3517)
(0.672659 0.739458 1.15468)
(0.580607 1.31652 1.14594)
(0.847554 0.997714 1.39864)
(0.579777 1.07161 1.25237)
(0.648285 0.863422 1.26748)
(0.54673 1.21315 1.15169)
(0.639268 1.13521 1.31678)
(0.784285 0.922567 1.3696)
(0.70781 1.19539 1.34882)
(0.638305 1.22557 1.29984)
(0.689713 0.77919 1.23796)
(0.839969 1.09407 1.39926)
(0.604612 0.796213 1.09887)
(0.521429 1.08782 1.09984)
(0.767795 1.03434 1.37472)
(0.593693 1.26725 1.22438)
(0.773615 1.14673 1.37282)
(0.527442 0.99124 1.09214)
(0.71127 0.893379 1.32802)
(0.729908 0.81082 1.30254)
(0.591249 0.962716 1.24151)
(0.653018 0.937924 1.31049)
(0.771861 0.844288 1.34307)
(0.702843 0.981364 1.34609)
(0.553835 0.956201 1.15025)
(0.548903 1.03019 1.17416)
(0.660797 0.718153 1.07345)
(0.909796 1.05469 1.41639)
(0.550041 0.89921 1.07633)
(0.550344 1.29028 1.06839)
(0.521565 1.17528 1.06601)
(0.636837 0.769589 1.12713)
(0.616839 0.806268 1.14373)
(0.649682 0.778116 1.17065)
(0.666927 0.729805 1.11463)
(0.630577 0.758258 1.08674)
(0.658759 0.797674 1.2124)
(0.681254 0.759519 1.19827)
(0.696989 0.707554 1.12959)
(0.707483 0.718454 1.17749)
(0.690728 0.697121 1.0883)
(0.715554 0.739043 1.21969)
(0.872935 0.948256 1.40241)
(0.900282 0.989483 1.41297)
(0.818515 0.87634 1.3681)
(0.84031 0.909033 1.38513)
(0.815525 0.958219 1.38322)
(0.926688 1.01698 1.4243)
(0.949289 1.06037 1.42911)
(0.880285 1.02598 1.40707)
(0.546257 1.1616 1.16927)
(0.563761 1.18535 1.20165)
(0.562312 1.13408 1.21442)
(0.571971 1.24025 1.19168)
(0.586272 1.21144 1.2368)
(0.608486 1.14648 1.28328)
(0.607367 1.19176 1.2737)
(0.640233 1.17978 1.30905)
(0.578932 1.11389 1.24847)
(0.609088 1.10341 1.2874)
(0.615772 1.24699 1.26583)
(0.565355 1.09129 1.2198)
(0.610363 0.845061 1.18076)
(0.597924 0.836109 1.13848)
(0.576275 0.848532 1.0877)
(0.569951 0.887571 1.12769)
(0.589691 0.803758 1.04977)
(0.615588 0.765299 1.05066)
(0.644555 0.726092 1.0374)
(0.563383 0.855302 1.03822)
(0.564152 1.26442 1.15218)
(0.588303 1.29216 1.18829)
(0.54874 1.25172 1.11257)
(0.566438 1.30365 1.10899)
(0.533091 1.14317 1.12779)
(0.534083 1.19442 1.11079)
(0.53472 1.23226 1.069)
(0.674485 1.16528 1.33327)
(0.674909 1.21001 1.32667)
(0.704508 1.14104 1.34818)
(0.670809 1.11086 1.33538)
(0.640425 1.07987 1.31671)
(0.67049 1.05536 1.33541)
(0.609797 1.04794 1.28883)
(0.811817 0.83626 1.35484)
(0.779024 0.883984 1.35602)
(0.774569 0.977486 1.37058)
(0.806247 1.01545 1.38434)
(0.743102 0.952789 1.35558)
(0.73533 1.00759 1.36027)
(0.748074 0.90887 1.34797)
(0.740864 0.869964 1.33408)
(0.707018 0.937323 1.33581)
(0.717051 1.24145 1.34394)
(0.683239 1.25694 1.31953)
(0.7472 1.21662 1.35825)
(0.780104 1.19188 1.36945)
(0.741835 1.17091 1.35931)
(0.736888 1.11647 1.36076)
(0.654757 1.28025 1.29082)
(0.631287 1.30223 1.2532)
(0.877593 1.11167 1.40577)
(0.844632 1.13955 1.3987)
(0.808869 1.12047 1.38489)
(0.812633 1.16532 1.38325)
(0.913016 1.09267 1.41284)
(0.872366 1.07427 1.40517)
(0.841701 1.04593 1.39675)
(0.80514 1.06359 1.3846)
(0.770968 1.09118 1.37219)
(0.621571 0.870835 1.22295)
(0.640096 0.840736 1.22754)
(0.593286 0.919616 1.20922)
(0.619454 0.912895 1.25561)
(0.551118 0.92712 1.1141)
(0.572384 0.915694 1.1632)
(0.575101 0.960633 1.19744)
(0.669242 0.822701 1.25237)
(0.605841 1.34457 1.16989)
(0.594981 1.35385 1.12195)
(0.580028 1.34066 1.08476)
(0.574992 1.34409 1.03452)
(0.612577 1.3191 1.21065)
(0.700353 1.03372 1.3483)
(0.672251 1.00314 1.33231)
(0.613474 0.99281 1.28435)
(0.586367 1.01677 1.24824)
(0.646348 0.98096 1.31398)
(0.62011 0.950386 1.28015)
(0.678984 0.96 1.32779)
(0.682895 0.690392 1.03732)
(0.544387 0.897839 1.03793)
(0.530916 0.943862 1.03826)
(0.515806 1.08996 1.04969)
(0.518106 1.03863 1.04996)
(0.521067 0.990967 1.04558)
(0.538307 0.944273 1.08469)
(0.524203 1.0386 1.09693)
(0.519993 1.1855 1.03296)
(0.516062 1.13381 1.03297)
(0.521821 1.13099 1.08385)
(0.549082 1.29471 1.03436)
(0.533404 1.24278 1.0351)
(0.731162 0.755664 1.25557)
(0.769628 0.791405 1.31498)
(0.752738 0.769974 1.28769)
(0.710372 0.796229 1.27183)
(0.79033 0.808117 1.33532)
(0.751533 0.827511 1.32269)
(0.734 1.06086 1.36213)
(0.687688 0.838884 1.2852)
(0.547745 1.07023 1.17938)
(0.567263 1.0511 1.21557)
(0.572917 0.996596 1.20927)
(0.720328 0.85266 1.31492)
(0.678801 0.877823 1.30013)
(0.65003 0.90007 1.29045)
(0.682347 0.915846 1.31857)
(0.533836 1.05865 1.13953)
(0.533091 1.09957 1.14289)
(0.540123 0.973504 1.1222)
(0.537805 1.01063 1.13499)
(0.551851 0.992887 1.16277)
(0.62855 0.921133 0.72126)
(0.608916 1.12819 0.711913)
(0.627014 0.868594 0.764796)
(0.624836 0.818415 0.822842)
(0.540455 1.16885 0.842385)
(0.746717 1.04675 0.632509)
(0.561393 1.26547 0.842831)
(0.83071 1.08908 0.605539)
(0.596156 0.947253 0.762592)
(0.563106 1.10224 0.780495)
(0.736293 0.891693 0.664216)
(0.642395 1.22527 0.697941)
(0.671895 1.07778 0.660943)
(0.601072 1.01886 0.722471)
(0.708731 0.991671 0.654258)
(0.575362 1.19452 0.771292)
(0.757066 1.13929 0.631162)
(0.680522 0.780302 0.771279)
(0.846876 0.997309 0.600445)
(0.66731 0.741011 0.855274)
(0.553826 0.866166 0.935525)
(0.524399 1.07597 0.887043)
(0.533026 0.957035 0.906816)
(0.602308 0.789011 0.91256)
(0.607267 1.27954 0.763003)
(0.559928 1.00166 0.811039)
(0.688396 0.843077 0.704853)
(0.578163 0.891989 0.840976)
(0.697808 1.18784 0.650629)
(0.527001 1.20675 0.928719)
(0.783521 0.938075 0.628441)
(0.659636 0.716283 0.931701)
(0.570433 1.32491 0.909696)
(0.65942 0.955301 0.67949)
(0.650552 1.15512 0.675426)
(0.908572 1.05257 0.581573)
(0.598763 0.98268 0.741444)
(0.61522 0.969765 0.721095)
(0.613052 0.934195 0.741292)
(0.628592 0.894932 0.742572)
(0.612421 0.907784 0.763401)
(0.642115 0.937721 0.69842)
(0.629199 0.987334 0.699112)
(0.656899 0.855652 0.73229)
(0.657722 0.882069 0.712062)
(0.673208 0.899153 0.692335)
(0.79606 1.02161 0.619476)
(0.790034 1.06697 0.621187)
(0.836724 1.04326 0.604123)
(0.751344 1.09299 0.632647)
(0.795734 1.11435 0.621412)
(0.814479 0.96592 0.613768)
(0.765229 0.992517 0.632632)
(0.728102 1.01911 0.643564)
(0.690217 1.03496 0.658924)
(0.710035 1.06256 0.647794)
(0.714037 1.10846 0.645983)
(0.747178 0.96586 0.644475)
(0.915338 1.09008 0.582833)
(0.951856 1.05718 0.565369)
(0.92529 1.01569 0.57519)
(0.56933 1.23045 0.803549)
(0.558729 1.18224 0.803867)
(0.551568 1.21667 0.839921)
(0.592309 1.23659 0.765002)
(0.584609 1.27347 0.800005)
(0.545264 1.23621 0.882376)
(0.534319 1.18788 0.883919)
(0.617214 1.32665 0.784735)
(0.594807 1.31971 0.822483)
(0.565746 1.29528 0.87445)
(0.599308 1.35078 0.856487)
(0.547923 1.26543 0.916069)
(0.866237 1.07055 0.596152)
(0.878082 1.02505 0.592814)
(0.80478 1.16164 0.623238)
(0.839664 1.13706 0.607945)
(0.873247 1.10808 0.596598)
(0.578413 0.974835 0.78604)
(0.58221 1.01071 0.764368)
(0.604624 0.881026 0.80164)
(0.58916 0.920606 0.800353)
(0.569723 0.946808 0.82505)
(0.871634 0.947533 0.59786)
(0.898825 0.989179 0.587823)
(0.837119 0.916014 0.612147)
(0.606146 1.0732 0.716491)
(0.584043 1.06046 0.749518)
(0.585931 1.11516 0.743983)
(0.562921 1.05113 0.794097)
(0.569958 1.14774 0.774008)
(0.55267 1.13574 0.808235)
(0.593963 1.1609 0.738919)
(0.54471 1.09032 0.829433)
(0.533224 1.12197 0.86259)
(0.541983 1.03884 0.845727)
(0.685064 0.974029 0.667922)
(0.722862 0.941714 0.661123)
(0.698598 0.924223 0.673121)
(0.761436 0.915158 0.648285)
(0.791161 0.860305 0.649886)
(0.770216 0.833494 0.66957)
(0.71247 0.868218 0.68337)
(0.747292 0.811052 0.691366)
(0.815211 0.883089 0.630355)
(0.626949 1.17626 0.703938)
(0.610912 1.20996 0.731875)
(0.627509 1.25178 0.727485)
(0.682489 1.25791 0.677557)
(0.659167 1.27942 0.708517)
(0.64069 1.30755 0.74183)
(0.669825 1.20684 0.671369)
(0.710741 1.23838 0.65425)
(0.646852 1.1899 0.68562)
(0.630738 1.14143 0.692852)
(0.673995 1.17158 0.662072)
(0.641291 1.10346 0.684346)
(0.636581 1.04882 0.689587)
(0.667515 1.01702 0.672602)
(0.729095 1.16349 0.641789)
(0.684952 1.13266 0.656668)
(0.661863 1.1164 0.667976)
(0.772847 1.18814 0.633829)
(0.7433 1.21264 0.642449)
(0.652813 0.825079 0.76783)
(0.652277 0.800222 0.796329)
(0.626467 0.844013 0.793266)
(0.64512 0.780484 0.838673)
(0.674306 0.762374 0.812231)
(0.71204 0.739732 0.785756)
(0.726947 0.754379 0.747271)
(0.704689 0.720873 0.82821)
(0.685118 0.811633 0.736295)
(0.730734 0.787774 0.716339)
(0.52633 1.14024 0.90567)
(0.60176 0.855006 0.83188)
(0.633649 0.766369 0.883895)
(0.613768 0.804921 0.866604)
(0.589126 0.840783 0.876271)
(0.590262 1.35791 0.905723)
(0.587086 1.36103 0.954084)
(0.587224 0.797433 0.955899)
(0.615229 0.76071 0.955904)
(0.644528 0.724767 0.966186)
(0.683228 0.689023 0.966141)
(0.629222 0.753686 0.921836)
(0.545297 0.880277 0.967353)
(0.564414 0.836377 0.966989)
(0.576525 0.826896 0.923777)
(0.522006 0.972906 0.95352)
(0.532987 0.924429 0.953137)
(0.542976 0.910911 0.921059)
(0.518233 1.03254 0.943789)
(0.516501 1.0835 0.943682)
(0.528468 1.01578 0.895738)
(0.522629 1.20118 0.964159)
(0.518475 1.14921 0.96415)
(0.53659 1.25213 0.963216)
(0.56019 1.31174 0.953322)
(0.689898 0.695173 0.913622)
(0.693173 0.707753 0.874961)
(0.663101 0.728436 0.892562)
(0.565438 0.87913 0.887443)
(0.556044 0.923705 0.872569)
(0.547399 0.98039 0.856759)
(0.883234 1.55528 0.821113)
(0.814174 1.50269 0.772536)
(1.1242 1.56868 0.845343)
(0.906841 1.38264 0.63583)
(0.678108 1.46657 0.880547)
(1.2117 1.54663 0.866272)
(1.00917 1.24843 0.573222)
(1.00817 1.36118 0.616584)
(0.771995 1.53345 0.868055)
(0.901581 1.48533 0.717726)
(0.802134 1.41795 0.690433)
(0.879295 1.58855 0.920811)
(1.00099 1.47104 0.682426)
(0.941336 1.30467 0.604503)
(0.984651 1.54372 0.773859)
(0.923 1.22162 0.594923)
(1.18419 1.51171 0.783427)
(0.874075 1.28025 0.616055)
(0.709034 1.5092 0.937867)
(1.16183 1.58244 0.933958)
(1.06294 1.60022 0.915787)
(1.08415 1.52257 0.748468)
(1.08383 1.32244 0.604654)
(0.717117 1.44245 0.773307)
(0.783596 1.56043 0.945102)
(1.04683 1.5743 0.829211)
(1.13532 1.37901 0.648732)
(1.07619 1.42592 0.657528)
(0.652104 1.45299 0.941001)
(1.23689 1.55825 0.940811)
(0.979782 1.16376 0.568392)
(0.968584 1.58689 0.86426)
(0.981184 1.60738 0.939818)
(1.16345 1.44018 0.699377)
(0.724571 1.37645 0.704815)
(0.816342 1.32392 0.638037)
(1.2233 1.56527 0.970323)
(1.27062 1.54725 0.970171)
(1.26734 1.54174 0.924379)
(0.82872 1.54511 0.842229)
(0.793174 1.51998 0.819313)
(0.849643 1.52989 0.79568)
(0.859789 1.49365 0.743329)
(0.89401 1.52186 0.767377)
(0.88269 1.57143 0.87111)
(0.829124 1.56188 0.892903)
(0.944316 1.51398 0.744329)
(0.936468 1.54976 0.79613)
(0.927698 1.57079 0.841823)
(0.925874 1.5862 0.89183)
(0.977407 1.56745 0.818963)
(0.691749 1.49641 0.967702)
(0.731314 1.52907 0.968787)
(0.628114 1.42624 0.968711)
(0.662563 1.46846 0.97035)
(0.681532 1.48182 0.93872)
(0.767878 1.55421 0.97218)
(0.815033 1.57623 0.972459)
(0.747184 1.53601 0.941037)
(0.862993 1.59031 0.960416)
(0.913879 1.59997 0.960296)
(0.833134 1.57583 0.932156)
(1.01116 1.6095 0.969768)
(0.963861 1.60888 0.970124)
(0.932509 1.59748 0.929557)
(1.0513 1.60483 0.958112)
(1.09295 1.59618 0.956926)
(1.02341 1.60305 0.927599)
(1.14235 1.58897 0.96734)
(1.18525 1.57676 0.966378)
(1.11143 1.58841 0.923675)
(1.1979 1.56921 0.936601)
(0.983014 1.11232 0.560516)
(0.954344 1.14638 0.577354)
(1.00591 1.15292 0.561009)
(0.651987 1.42165 0.844526)
(0.645195 1.42927 0.889952)
(0.666412 1.45972 0.909575)
(0.631963 1.42198 0.92192)
(0.672672 1.40871 0.790076)
(0.696797 1.45671 0.825368)
(0.741933 1.52208 0.901956)
(0.695192 1.48823 0.908912)
(0.725964 1.50153 0.872401)
(0.745526 1.4903 0.818488)
(1.1666 1.55631 0.853565)
(1.15289 1.54121 0.812123)
(1.19741 1.52946 0.824383)
(1.23196 1.49686 0.803624)
(1.24726 1.51642 0.843401)
(1.18587 1.56491 0.899293)
(1.22401 1.5526 0.903494)
(1.14238 1.57485 0.888903)
(1.25416 1.53449 0.887417)
(0.694353 1.38974 0.745462)
(0.724148 1.33242 0.679346)
(0.698299 1.35645 0.713994)
(0.7215 1.40976 0.736548)
(0.802489 1.28009 0.636054)
(0.769601 1.30735 0.648147)
(0.771253 1.35017 0.664969)
(0.862044 1.2331 0.613653)
(0.831912 1.25867 0.627821)
(0.84691 1.30137 0.629297)
(0.922564 1.17465 0.592686)
(0.884336 1.2033 0.602011)
(0.897336 1.25126 0.605388)
(0.955731 1.19403 0.586082)
(1.00383 1.41313 0.647946)
(0.954482 1.42616 0.657394)
(0.958079 1.3717 0.627734)
(0.925218 1.34212 0.620238)
(0.975989 1.33352 0.610669)
(0.907311 1.29278 0.610522)
(0.891146 1.3305 0.624951)
(0.862193 1.35362 0.637923)
(0.853169 1.45134 0.702678)
(0.856543 1.39926 0.661408)
(0.90474 1.43383 0.67189)
(0.952413 1.47751 0.699263)
(0.809352 1.37011 0.658941)
(0.766214 1.47302 0.770468)
(0.809472 1.45996 0.728408)
(0.761069 1.43084 0.727928)
(0.979065 1.27857 0.592947)
(1.01333 1.3056 0.596778)
(1.04792 1.28569 0.586682)
(1.04743 1.3432 0.609262)
(0.932273 1.26407 0.599626)
(0.970938 1.23707 0.587153)
(0.994233 1.20683 0.572766)
(1.04947 1.23258 0.575063)
(1.09358 1.26872 0.596552)
(1.02054 1.19571 0.566693)
(1.04176 1.39234 0.636608)
(1.03959 1.44883 0.669231)
(1.07945 1.37301 0.630064)
(0.780296 1.547 0.906465)
(0.993195 1.5063 0.726014)
(0.763246 1.3978 0.696672)
(0.975227 1.59581 0.902072)
(1.03412 1.53151 0.76021)
(1.04444 1.49699 0.71396)
(1.08436 1.4755 0.698682)
(1.0641 1.54759 0.788499)
(1.01621 1.55893 0.800928)
(1.00889 1.58094 0.846274)
(1.12595 1.48237 0.718774)
(1.1771 1.47499 0.740344)
(1.13432 1.51563 0.762819)
(1.21067 1.43095 0.72276)
(1.22259 1.46764 0.763803)
(1.10345 1.54449 0.79612)
(1.11982 1.43258 0.676568)
(1.14925 1.40898 0.673747)
(1.10531 1.40165 0.651675)
(1.18808 1.39947 0.687856)
(1.17438 1.3697 0.663033)
(1.09291 1.58406 0.880752)
(1.05488 1.58744 0.87248)
(1.01737 1.5925 0.888936)
(1.0854 1.57004 0.836407)
(1.1094 1.35018 0.626524)
(1.12348 1.30455 0.61606)
(1.15026 1.3344 0.63736)
(0.870075 1.00677 1.18016)
(0.780393 0.934494 1.07593)
(0.712962 1.0581 1.05446)
(0.861492 1.08428 1.18397)
(0.697461 1.1637 1.05433)
(0.807172 1.05549 1.14474)
(0.834387 0.954636 1.13702)
(0.763267 1.02946 1.09718)
(0.745012 1.12872 1.09736)
(0.921683 1.04699 1.20987)
(0.737652 0.962875 1.03192)
(0.806513 1.13562 1.14143)
(0.742977 1.19717 1.08786)
(0.782345 0.889673 1.03338)
(0.71922 1.2345 1.04916)
(0.731144 1.26266 1.02514)
(0.739182 1.25137 1.05846)
(0.750607 1.23268 1.07771)
(0.771494 1.21032 1.09771)
(0.729914 1.21541 1.06893)
(0.810636 0.942824 1.10371)
(0.800833 0.99063 1.11693)
(0.774876 0.981887 1.08605)
(0.75176 0.996771 1.06212)
(0.740091 1.04369 1.07261)
(0.729772 1.01102 1.0414)
(0.760014 0.948634 1.05301)
(0.782252 0.912616 1.0541)
(0.760861 0.926918 1.03247)
(0.8529 0.910429 1.12194)
(0.828603 0.896898 1.09133)
(0.813297 0.883014 1.06453)
(0.813089 0.858811 1.0433)
(0.731133 1.09266 1.07213)
(0.721331 1.14526 1.07325)
(0.704536 1.10929 1.05145)
(0.686434 1.14037 1.02571)
(0.696425 1.08692 1.02772)
(0.742967 1.16223 1.09094)
(0.720015 1.18032 1.07024)
(0.693838 1.18827 1.02842)
(0.707167 1.19879 1.05134)
(0.705499 1.22387 1.02447)
(0.912866 0.99586 1.19321)
(0.93601 1.0164 1.21214)
(0.89659 1.02694 1.19405)
(0.960224 1.05204 1.23167)
(0.893272 1.06544 1.1972)
(0.866144 1.04554 1.1819)
(0.929214 1.0798 1.21384)
(0.899799 1.09839 1.20072)
(0.822349 1.00496 1.14216)
(0.786366 1.04186 1.11956)
(0.755423 1.07905 1.09469)
(0.778219 1.09174 1.11699)
(0.748497 0.941446 1.0156)
(0.724114 0.991647 1.01505)
(0.770956 0.904943 1.01626)
(0.711828 1.03946 1.02572)
(0.88971 0.964239 1.17237)
(0.852801 0.980759 1.15861)
(0.840076 1.02997 1.16399)
(0.8717 0.936131 1.15117)
(0.835067 1.06928 1.16464)
(0.863091 1.12738 1.17808)
(0.802932 1.18041 1.12398)
(0.835276 1.15367 1.1562)
(0.83541 1.10956 1.16349)
(0.773952 1.16495 1.1064)
(0.808467 0.855177 1.01656)
(0.776491 1.13123 1.11604)
(0.807092 1.0955 1.14279)
(0.836916 1.30413 1.09584)
(1.10664 1.35785 1.11297)
(1.06027 1.3882 1.05965)
(1.05223 1.31607 1.15422)
(0.970437 1.29469 1.15965)
(1.02046 1.22223 1.21021)
(1.01073 1.35416 1.12003)
(0.966695 1.3818 1.06731)
(0.94502 1.20146 1.1973)
(1.14567 1.38043 1.05445)
(0.925537 1.33758 1.1156)
(0.893124 1.27103 1.14615)
(0.868188 1.35836 1.06123)
(0.79948 1.32235 1.05029)
(0.992299 1.14398 1.24132)
(1.01389 1.38499 1.06272)
(1.03605 1.37214 1.0903)
(0.989595 1.36837 1.09334)
(0.946172 1.35995 1.09247)
(0.968754 1.34634 1.11771)
(1.05913 1.3549 1.1147)
(1.07983 1.33738 1.13422)
(1.03299 1.33527 1.13599)
(1.08476 1.37328 1.08597)
(1.01182 1.30445 1.15516)
(0.991578 1.32565 1.13957)
(0.949724 1.31792 1.13714)
(0.77966 1.29548 1.05963)
(0.771693 1.30595 1.02482)
(0.818731 1.26511 1.10136)
(0.798094 1.28529 1.07986)
(0.817321 1.31282 1.0733)
(1.1397 1.3308 1.13684)
(1.15579 1.35311 1.10091)
(1.12706 1.36983 1.08448)
(1.17492 1.36317 1.07055)
(1.17994 1.37238 1.02724)
(1.03734 1.18597 1.24107)
(1.06556 1.23099 1.22095)
(1.08313 1.27608 1.18537)
(1.11021 1.31024 1.15952)
(1.03594 1.27035 1.17766)
(1.02263 1.14514 1.25546)
(0.994902 1.10087 1.25338)
(1.00618 1.18217 1.2272)
(0.904793 1.18675 1.18576)
(0.941109 1.155 1.21098)
(0.97088 1.17051 1.21714)
(0.965661 1.12702 1.22982)
(0.919198 1.23809 1.17011)
(0.877109 1.22269 1.15691)
(0.984359 1.20878 1.20146)
(0.957287 1.24937 1.17461)
(0.932103 1.28383 1.15327)
(0.99716 1.25676 1.17727)
(0.809293 1.33671 1.02621)
(0.847252 1.24812 1.12644)
(0.865738 1.28732 1.11641)
(0.852161 1.33105 1.07914)
(0.833417 1.33975 1.05467)
(0.896487 1.34675 1.08713)
(0.881446 1.3208 1.10299)
(0.910527 1.30529 1.12942)
(1.13393 1.38733 1.02687)
(1.10401 1.38352 1.05668)
(1.09153 1.39083 1.02984)
(0.843665 1.3549 1.03122)
(0.889977 1.37434 1.03242)
(0.991609 1.39166 1.03407)
(0.939542 1.38533 1.03476)
(0.917113 1.36984 1.06366)
(1.03842 1.3944 1.02976)
(0.945283 1.21894 0.808391)
(1.12633 1.34956 0.875993)
(0.908637 1.35506 0.916714)
(1.03077 1.22568 0.784421)
(0.924403 1.3091 0.866978)
(1.03013 1.35427 0.878027)
(0.877743 1.23543 0.84702)
(1.00111 1.2928 0.833636)
(0.836472 1.29295 0.897004)
(1.074 1.3052 0.828788)
(1.10828 1.38512 0.938628)
(0.992778 1.14711 0.76192)
(0.993134 1.38932 0.943937)
(0.822611 1.33627 0.950844)
(0.7982 1.28048 0.916353)
(0.818094 1.26009 0.893412)
(0.783239 1.31251 0.976598)
(0.791637 1.30224 0.94185)
(0.828984 1.31426 0.922827)
(0.857389 1.26483 0.877581)
(0.838934 1.23061 0.869512)
(0.869583 1.2039 0.837922)
(0.939437 1.16367 0.792839)
(0.971201 1.18159 0.787546)
(0.964346 1.12833 0.77344)
(1.01183 1.18533 0.771823)
(0.990163 1.21968 0.799291)
(0.963744 1.30152 0.851742)
(0.973528 1.25641 0.823588)
(0.936295 1.26684 0.843456)
(1.01709 1.25941 0.813177)
(0.904085 1.19466 0.816702)
(0.912217 1.22698 0.827416)
(0.90179 1.27339 0.859905)
(0.821113 1.34342 0.975574)
(0.88112 1.30021 0.88521)
(0.873226 1.32378 0.907565)
(0.917543 1.33234 0.892595)
(0.865164 1.34479 0.935211)
(0.993616 1.10199 0.749099)
(1.02279 1.14599 0.74706)
(1.04286 1.18625 0.758264)
(1.05475 1.33039 0.856627)
(1.03774 1.29859 0.832431)
(1.01703 1.32505 0.856563)
(1.05179 1.26707 0.808274)
(0.978322 1.3324 0.872762)
(1.10103 1.32828 0.852038)
(1.07869 1.35148 0.878838)
(1.14931 1.32584 0.856457)
(1.12173 1.30452 0.830653)
(1.09448 1.27093 0.803451)
(1.07164 1.2316 0.777604)
(1.06927 1.37076 0.908082)