/*--------------------------------*- C++ -*----------------------------------*\
| =========                 |                                                 |
| \\      /  F ield         | OpenFOAM: The Open Source CFD Toolbox           |
|  \\    /   O peration     | Version:  v1806                                 |
|   \\  /    A nd           | Web:      www.OpenFOAM.com                      |
|    \\/     M anipulation  |                                                 |
\*---------------------------------------------------------------------------*/
FoamFile
{
    version     2.0;
    format      ascii;
    class       volScalarField;
    location    "0.129";
    object      p;
}
// * * * * * * * * * * * * * * * * * * * * * * * * * * * * * * * * * * * * * //

dimensions      [0 2 -2 0 0 0 0];


internalField   nonuniform List<scalar> 
64000
(
0.000153792
-0.049402
-0.0774692
-0.0291857
0.143682
0.348311
0.575313
0.811291
1.07343
1.37576
1.70966
2.01681
2.50874
2.98482
3.45831
3.85931
4.33052
4.65178
5.07167
5.28447
5.53613
5.30566
5.66044
5.62676
5.91613
6.01023
6.21388
6.26198
6.38086
6.32685
6.27151
6.15598
6.00931
5.87136
5.70426
5.59235
5.48063
5.40916
5.35067
5.33118
-0.213065
-0.29926
-0.294277
-0.174774
0.0346946
0.250054
0.487009
0.727087
0.986184
1.25022
1.65258
2.06975
2.54593
3.01161
3.49823
3.8972
4.32039
4.74147
5.19211
5.47713
5.60991
5.36181
5.6865
5.71766
5.98926
6.07749
6.24617
6.27245
6.36672
6.31621
6.34302
6.1923
6.05456
5.93591
5.74493
5.63419
5.50383
5.42023
5.34412
5.32412
-0.686882
-0.689803
-0.598575
-0.381579
-0.179222
0.0503162
0.311278
0.567148
0.741059
1.17072
1.55812
1.98008
2.40865
2.90784
3.44429
3.8514
4.36126
4.72274
5.16644
5.39934
5.5081
5.12245
5.41309
5.39975
5.6399
5.69798
5.84196
5.8769
5.95504
5.98609
5.97735
6.02418
5.90349
5.83103
5.66569
5.58857
5.46556
5.386
5.31055
5.27695
-1.24776
-1.18446
-0.949065
-0.689785
-0.478671
-0.251446
0.0328736
0.180902
0.556339
0.908168
1.25947
1.7647
2.31285
2.7721
3.29197
3.73713
4.24206
4.60637
5.03446
5.26958
5.37174
4.87934
5.13719
5.10449
5.3256
5.39001
5.54288
5.59938
5.7175
5.76727
5.83014
5.84877
5.79882
5.768
5.60613
5.57842
5.4469
5.33198
5.24655
5.20612
-1.76588
-1.66553
-1.376
-1.18066
-0.915057
-0.709998
-0.399717
-0.202615
0.194847
0.567966
0.973914
1.35816
1.84327
2.41132
2.9804
3.45207
4.00906
4.39781
4.83726
5.10655
5.2349
4.68424
4.93768
4.88785
5.10448
5.17669
5.33881
5.42961
5.55472
5.64338
5.72459
5.75958
5.73105
5.72664
5.56866
5.43364
5.32201
5.20545
5.17145
5.11041
-2.31493
-2.19922
-2.04138
-1.7594
-1.4952
-1.27268
-0.883351
-0.667822
-0.287891
0.0263585
0.410225
0.87105
1.44779
2.02399
2.63348
3.16929
3.75646
4.11805
4.67198
5.04026
5.15653
4.65177
4.93552
4.90802
5.11275
5.19148
5.3358
5.41183
5.53083
5.61303
5.7083
5.78419
5.77058
5.78546
5.48621
5.35238
5.28675
5.12784
5.07416
5.04074
-2.89368
-2.84014
-2.7437
-2.5601
-2.22297
-2.05388
-1.59302
-1.62783
-1.25415
-0.834791
-0.299337
0.273528
0.913376
1.55862
2.23877
2.86165
3.50267
3.99522
4.39235
4.89596
5.21886
4.69867
5.04866
5.03982
5.22805
5.30543
5.40423
5.46149
5.53812
5.61007
5.66991
5.75818
5.75125
5.79664
5.58147
5.31667
5.26515
5.08289
5.01009
4.96327
-3.5148
-3.46742
-3.42329
-3.2807
-3.11938
-2.84295
-2.66323
-2.58132
-2.05221
-1.57998
-0.983106
-0.350939
0.34524
1.05356
1.8066
2.5092
3.22278
3.82375
4.42694
4.71135
5.45575
4.87721
5.22067
5.27076
5.41297
5.49228
5.55339
5.56922
5.59575
5.64587
5.70118
5.73462
5.73387
5.74824
5.61165
5.26452
5.18907
5.03975
4.91349
4.88294
-4.17827
-4.16696
-4.06623
-4.00971
-3.8103
-3.73462
-3.5106
-3.33196
-2.89459
-2.30633
-1.70342
-0.99902
-0.23394
0.538756
1.3607
2.14979
2.93914
3.63798
4.34402
4.71598
5.58966
5.39349
5.46107
5.61907
5.67671
5.76422
5.76361
5.74897
5.74909
5.75839
5.71018
5.73227
5.71456
5.69191
5.67762
5.26389
5.1714
4.98564
4.84433
4.77851
-4.92238
-4.86639
-4.81688
-4.76233
-4.62453
-4.65206
-4.33396
-4.01251
-3.71697
-3.1348
-2.37833
-1.62137
-0.792115
0.0829321
0.990031
1.88846
2.77562
3.60068
4.37128
4.85608
5.77296
5.91601
5.77278
6.01713
5.99646
6.06989
6.04351
5.96478
5.9145
5.81268
5.77008
5.68677
5.66536
5.62587
5.55673
5.29899
5.01677
4.89593
4.73739
4.65958
-5.7249
-5.64859
-5.62605
-5.58019
-5.5498
-5.52783
-5.20185
-4.84653
-4.3711
-3.92099
-3.19781
-2.27638
-1.32244
-0.331389
0.695689
1.72623
2.73119
3.68584
4.54848
5.13355
6.11444
6.37757
6.19888
6.48009
6.40385
6.48543
6.33747
6.28635
6.09252
5.97123
5.85293
5.77161
5.64245
5.55893
5.56171
5.3025
4.96569
4.76301
4.57415
4.47968
-6.56908
-6.48999
-6.47642
-6.47439
-6.55207
-6.42525
-6.08985
-5.67134
-5.14813
-4.58983
-3.87264
-3.03952
-1.88938
-0.714595
0.466496
1.64089
2.79325
3.88718
4.86381
5.53113
6.60048
6.84291
6.71609
6.98119
6.86791
6.88216
6.74048
6.52764
6.34201
6.16068
5.85986
5.69319
5.58452
5.46018
5.33639
5.18372
4.82159
4.60258
4.43439
4.31293
-7.46982
-7.3856
-7.39324
-7.50323
-7.52364
-7.3885
-7.01875
-6.58628
-5.99308
-5.29374
-4.50623
-3.61344
-2.49906
-1.09403
0.265429
1.61127
2.91603
4.16218
5.26622
6.05675
7.18786
7.31144
7.32788
7.55375
7.42651
7.42615
7.20425
7.02405
6.57944
6.24182
6.09461
5.86484
5.64592
5.43357
5.26019
5.06593
4.65896
4.3693
4.14043
4.01472
-8.38945
-8.31138
-8.38169
-8.48857
-8.49633
-8.32784
-7.95913
-7.46338
-6.91442
-6.11187
-5.15725
-4.07279
-3.09733
-1.49722
0.0633566
1.59297
3.083
4.50733
5.7352
6.78154
7.87723
7.74231
7.96487
8.23493
8.08553
7.83186
7.51915
7.20963
7.03046
6.72934
6.33167
5.9277
5.5522
5.25769
4.98138
4.78378
4.48176
4.16829
3.91594
3.78726
-9.33689
-9.30607
-9.37396
-9.4798
-9.47888
-9.36453
-8.96678
-8.49828
-7.8394
-6.98533
-5.87526
-4.5631
-3.52438
-1.77949
-0.125666
1.61744
3.35403
4.94373
6.40427
7.73469
8.67146
8.97348
9.2428
9.12458
8.89118
8.73445
8.53458
8.21544
7.76724
7.21771
6.66172
6.11465
5.58558
5.10643
4.76566
4.38991
4.12916
3.73427
3.51641
3.34539
-10.2733
-10.2651
-10.3387
-10.4306
-10.4254
-10.3232
-9.99405
-9.5515
-8.88817
-7.97284
-6.7168
-5.24218
-3.93712
-1.97465
-0.0639636
1.76941
3.56131
5.33666
6.85068
8.59899
9.59617
10.1203
10.4798
10.5647
10.5695
10.1659
9.54507
9.08029
8.41943
7.73505
7.01056
6.26964
5.56852
4.93918
4.41628
4.01027
3.70835
3.46408
3.26383
3.0541
-11.2869
-11.2956
-11.3612
-11.4564
-11.4526
-11.3992
-11.104
-10.7011
-10.0028
-8.96478
-7.48366
-5.69575
-3.71644
-1.89652
0.118698
2.1326
4.04393
5.83993
8.09195
9.8984
10.9184
11.7558
12.1198
12.2339
11.9983
11.4684
10.9571
9.89501
9.16457
8.28707
7.32762
6.39564
5.49508
4.68836
4.03162
3.54719
3.15574
2.83373
2.6046
2.56592
-11.8363
-11.9232
-12.0273
-12.1097
-12.1432
-12.1859
-11.9585
-11.6425
-10.9859
-9.94939
-8.32948
-5.92177
-3.91779
-2.07419
0.125199
2.43158
4.62366
7.00437
9.014
11.0247
12.5837
13.5179
13.9679
14.0693
13.7505
13.1459
12.2284
11.2082
9.94734
8.75502
7.73773
6.69757
5.58465
4.52363
3.58577
2.92678
2.50206
2.33652
2.12464
1.96993
-13.1076
-13.1076
-13.1086
-13.2107
-13.2139
-13.3047
-13.1353
-13.0123
-12.4617
-11.2643
-8.86712
-6.36716
-4.19185
-1.96337
0.481651
2.9021
5.61846
7.92524
10.0658
12.4764
14.2189
15.413
15.9591
15.997
15.4971
14.8777
13.7707
12.4087
10.9339
9.70564
8.14201
6.5948
5.20661
4.07516
3.26577
2.58538
2.119
1.48011
1.40792
1.27564
-12.2512
-12.5097
-12.5617
-12.7264
-12.8243
-13.0999
-13.2663
-13.484
-12.8671
-11.5428
-8.98552
-6.6054
-4.45169
-1.91804
0.790534
3.79615
6.5982
9.31597
11.6247
13.9932
15.7177
16.9403
17.656
17.9511
17.5658
16.6453
15.1289
13.7826
11.9541
10.229
8.99198
7.3955
5.78028
4.35889
3.18533
2.25164
1.63711
1.23741
0.799569
0.669732
-14.1947
-13.8961
-13.78
-13.7942
-13.8268
-13.9253
-14.2825
-14.5562
-13.9561
-12.6444
-10.1884
-7.57826
-5.02583
-1.84045
1.53585
4.66136
7.84239
10.9239
13.3902
15.6735
17.3188
18.4236
19.1192
19.3777
19.05
17.9385
16.3086
14.4182
12.226
10.4093
8.83027
7.43943
5.63075
4.00121
2.71234
1.78694
1.08149
0.76744
0.36799
0.248394
-14.289
-14.3044
-14.3215
-14.3685
-14.531
-14.7082
-15.0389
-15.2188
-14.6338
-13.2968
-11.1031
-8.46746
-5.4587
-1.69463
1.94654
5.66814
9.14307
12.5814
15.2506
17.4845
19.2151
20.3339
20.8188
20.7812
20.4049
19.1326
17.0835
14.8124
12.3762
9.91821
7.74663
6.1754
4.62468
3.27902
2.06149
1.09693
0.361722
-0.000100109
-0.267771
-0.561785
-14.7335
-14.6797
-14.7425
-14.856
-15.0424
-15.2898
-15.6228
-15.6458
-15.0626
-13.72
-11.7615
-9.20603
-5.83615
-1.72418
2.36986
6.5755
10.5733
14.0049
17.0119
19.306
21.0836
22.2196
22.7081
22.521
21.6509
20.2665
18.1583
15.5743
12.8577
10.2558
7.78552
6.0002
3.54103
2.10854
1.0121
0.169741
-0.495434
-0.854283
-0.943871
-1.02698
-14.6614
-14.7192
-14.7928
-14.9506
-15.1652
-15.5052
-15.84
-15.7447
-15.1148
-13.7819
-11.9134
-9.68506
-5.98408
-1.85766
2.73016
7.1915
11.5613
15.2832
18.5579
20.9861
22.9695
24.1195
24.5568
24.3029
23.1713
21.3679
19.1376
16.4416
13.3976
10.5042
7.89612
5.74791
3.51511
2.0144
0.719122
-0.365972
-1.25968
-1.85872
-2.12219
-2.30997
-14.2535
-14.3177
-14.513
-14.7157
-14.9624
-15.3329
-15.6614
-15.4609
-14.7499
-13.4275
-11.6638
-9.85093
-6.01904
-1.91088
2.74083
7.75143
12.4322
16.4869
19.8633
22.4307
24.6578
25.9075
26.3037
25.9176
24.7166
22.7404
20.1594
17.2751
14.0716
10.9293
8.02003
5.35626
3.68963
2.19807
0.855576
-0.243816
-1.2085
-1.85859
-2.22755
-2.2899
-13.56
-13.653
-13.8308
-14.0328
-14.3249
-14.595
-14.9136
-14.6201
-13.8468
-12.5648
-10.9375
-9.29357
-5.96902
-1.69988
2.74378
7.85845
12.9733
17.6359
21.4193
23.9195
26.0667
27.6237
27.9611
27.4643
26.0948
23.9499
21.1503
18.0467
14.657
11.2652
7.93647
5.32386
3.55253
2.14933
0.764605
-0.347629
-1.3658
-2.07035
-2.61695
-2.88796
-12.5613
-12.6615
-12.8091
-13.0384
-13.2931
-13.4606
-13.6804
-13.2988
-12.4866
-11.2814
-9.78182
-8.00594
-5.64881
-1.46272
2.76591
7.56955
12.9416
17.8267
22.1602
25.1625
27.2518
28.9131
29.3644
28.6974
27.2038
24.8698
21.9094
18.6934
15.2197
11.6859
8.205
5.88336
3.9524
2.84228
1.44404
0.323766
-0.745517
-1.52705
-2.15446
-2.46989
-11.1754
-11.281
-11.1902
-11.5671
-11.7606
-11.8232
-11.8166
-11.3678
-10.5357
-9.41176
-7.96915
-6.17555
-4.08613
-1.10832
3.11196
7.63789
12.9858
18.2474
23.1364
26.6582
28.3561
29.6589
30.1418
29.6994
27.9952
25.383
22.1862
18.8176
15.2175
11.5449
7.84577
5.23939
3.19844
1.90717
0.440548
-0.583876
-1.56328
-2.18278
-2.80186
-3.04876
-9.64909
-9.75853
-9.72034
-9.83403
-9.95556
-9.84904
-9.44316
-8.89283
-8.10708
-7.05561
-5.66473
-3.79852
-1.6146
0.621633
4.21311
9.5628
14.9947
20.2408
24.9998
27.78
28.6517
29.7158
30.0441
29.4266
27.9384
25.5647
22.476
19.1858
15.5804
12.018
8.29484
5.70439
4.05101
2.42975
0.894958
-0.182321
-1.26786
-1.9302
-2.5601
-2.83303
-7.81991
-7.87103
-7.8358
-7.70401
-7.72796
-7.37857
-6.8879
-6.22643
-5.39301
-4.24432
-2.79296
-0.949646
1.48194
4.01809
7.23138
11.9744
16.8005
21.3683
24.9821
27.4066
28.2871
29.4146
29.4189
28.8884
27.403
24.9002
21.9814
18.8406
15.2876
11.9062
8.5893
6.1208
4.23408
2.63271
1.10496
0.106988
-0.919104
-1.37378
-1.7738
-1.79917
-5.94771
-5.94237
-5.86463
-5.49439
-5.40339
-4.86158
-4.19438
-3.37121
-2.42787
-1.22702
0.300926
2.26023
4.58989
7.50465
10.0366
13.544
17.6239
21.4016
24.7319
27.1705
27.6985
28.7738
28.5754
28.0518
26.8427
24.471
21.4326
18.4876
15.0804
11.5383
8.49228
6.99963
4.49737
2.97152
1.3459
0.427255
-0.57298
-0.840542
-1.12668
-1.04662
-3.86374
-3.80606
-3.65759
-3.27035
-2.78855
-2.18742
-1.26297
-0.290815
0.800385
2.06236
3.59948
5.5291
7.83043
10.4369
12.9374
15.2425
18.5738
21.8192
24.7465
26.9196
27.3126
28.3241
27.9233
27.3464
25.9861
23.8538
20.7585
18.17
14.1637
10.8189
8.39681
7.15387
4.86582
2.96426
1.40781
0.578075
-0.356224
-0.363792
-0.553295
-0.218265
-1.92849
-1.84682
-1.61851
-1.25324
-0.540438
0.267987
1.52038
2.62708
3.81955
5.22186
6.72777
8.69711
10.7075
12.8107
14.9155
17.1449
19.9619
22.447
24.8029
26.8137
26.9818
27.9662
27.366
26.4569
25.0861
22.8959
20.1377
17.9817
12.8418
10.2581
8.09237
7.02489
4.6206
3.2355
1.4389
0.651076
-0.296705
-0.0484419
-0.141004
0.506448
0.0926405
0.252254
0.565463
0.990368
1.72294
2.72913
4.23114
5.48241
6.73611
8.28494
9.77303
11.113
12.7235
14.6061
16.7432
18.5876
20.9109
23.023
25.1003
26.9676
26.4545
27.482
26.5618
25.6054
24.2962
22.2659
19.4965
17.8481
12.1178
9.66613
7.65553
6.88288
4.31155
3.35378
1.51378
0.867773
-0.34207
0.317702
0.260156
1.38536
1.76216
1.90825
2.31497
2.89367
3.73909
4.71695
6.48866
7.88768
9.24839
10.3761
11.5256
12.9975
14.6052
16.4189
18.4062
20.3565
22.3728
24.1718
25.7201
27.2445
25.7358
26.9379
25.8449
24.9128
23.5639
21.6728
18.8888
17.4644
11.5883
9.04999
6.56921
6.19607
4.08219
3.00757
1.94476
0.477493
-0.417202
0.351524
0.499125
2.20357
3.34416
3.62022
3.98773
4.78828
5.67376
6.93428
8.47197
9.77338
10.8245
12.1134
13.4581
15.0925
16.7469
18.4474
20.1325
21.9072
23.6254
25.1596
26.3615
27.4342
25.2212
26.4795
25.4138
24.3535
22.7102
21.1148
18.4852
17.0583
11.1662
8.4635
6.09708
5.00355
4.02532
2.97446
1.38446
1.31649
-0.39498
0.915711
0.640497
3.54547
4.69827
4.75456
5.37025
5.896
6.95614
8.13187
10.0055
10.8605
12.2281
13.781
15.2872
16.8758
18.4235
20.0547
21.6444
23.2603
24.5888
25.9604
26.8027
27.4534
25.0405
25.2082
24.9841
23.7068
22.2885
20.5849
18.2786
16.672
10.6283
7.96551
5.69845
4.30108
3.07229
2.503
1.39422
1.10017
0.0394941
0.811739
0.9857
5.10728
5.83112
6.43706
6.59668
7.54087
8.2942
9.4558
10.7976
12.3274
13.8065
15.3236
16.7237
18.2266
19.6751
21.1771
22.5932
24.0684
25.3287
26.4312
27.0797
27.3615
25.0828
24.7722
24.3585
23.0735
22.0488
20.4382
18.3762
16.217
10.2624
7.40227
4.93015
3.89263
2.39104
2.36105
1.05195
1.63872
0.578481
2.97058
2.12064
9.73887
6.69598
6.67751
7.23617
7.72566
8.90165
10.0105
11.6293
13.0105
14.4921
16.2469
17.7493
19.2384
20.6111
21.9774
23.2475
24.5779
25.7429
26.751
27.252
27.1685
25.0949
24.2758
23.7315
22.7969
21.8317
20.552
18.5448
15.9935
9.99147
6.78269
4.19492
3.42448
2.12528
2.03939
0.725704
1.5608
0.349026
3.62147
4.94494
14.7987
4.59485
7.60304
7.72079
8.6098
9.43079
10.7131
12.1896
13.8033
15.2727
16.7459
18.2102
19.7399
21.1152
22.4459
23.5971
24.825
25.9948
26.8544
27.2824
27.0766
25.3024
24.2771
23.6408
22.9235
21.9256
20.7672
18.5429
15.4696
9.71683
6.29608
3.80601
3.24899
2.10145
2.22941
1.09383
2.45975
2.20535
7.74688
12.7098
27.8158
-0.0663682
-0.0891924
-0.0758512
0.00539846
0.164551
0.375863
0.611338
0.849486
1.09277
1.42566
1.64846
2.1104
2.57928
3.02138
3.48702
3.89992
4.33955
4.67457
4.97092
5.38448
5.45179
5.22835
5.50057
5.54392
5.80525
5.89255
6.06354
6.10549
6.20787
6.17938
6.20477
6.08265
5.94846
5.84088
5.66984
5.58139
5.43527
5.39261
5.33825
5.31947
-0.289785
-0.303692
-0.250929
-0.14538
0.0640529
0.273717
0.505687
0.753169
0.968813
1.33911
1.68602
2.07388
2.60282
3.0359
3.52684
3.9335
4.41511
4.78054
5.20732
5.42105
5.47685
5.24192
5.48802
5.54609
5.7905
5.86952
6.02545
6.06393
6.14095
6.13043
6.09585
6.11172
5.97515
5.92127
5.6986
5.59999
5.47731
5.4021
5.33601
5.31141
-0.668997
-0.636082
-0.535179
-0.354371
-0.14762
0.0648194
0.337001
0.507238
0.759308
1.21468
1.58014
2.01392
2.48765
2.9491
3.45019
3.86867
4.38449
4.74836
5.17922
5.31682
5.32544
4.97043
5.15473
5.1657
5.40334
5.46685
5.61019
5.66197
5.75304
5.79079
5.84537
5.8732
5.78027
5.80101
5.61556
5.57711
5.43629
5.35154
5.28618
5.23425
-1.19742
-1.10534
-0.938829
-0.683752
-0.470028
-0.247127
-0.0270036
0.253957
0.575235
0.953822
1.36107
1.80623
2.30752
2.75914
3.27589
3.73682
4.25884
4.6206
5.04909
5.16542
5.12724
4.70165
4.84637
4.86468
5.08696
5.16769
5.32944
5.41766
5.56646
5.64762
5.72993
5.78069
5.76614
5.75154
5.59108
5.45051
5.44279
5.29579
5.21728
5.16884
-1.7141
-1.59073
-1.34234
-1.13327
-0.847037
-0.725877
-0.408741
-0.155509
0.205418
0.59039
1.00168
1.40452
1.87776
2.40353
2.96423
3.46113
4.00246
4.38437
4.8272
5.01025
4.99948
4.53315
4.71259
4.70679
4.93391
5.03276
5.19397
5.27734
5.43892
5.56034
5.67378
5.74328
5.70033
5.71137
5.5074
5.38812
5.28595
5.18587
5.12635
5.07071
-2.23111
-2.13834
-1.94843
-1.71462
-1.4129
-1.26286
-0.917686
-0.654183
-0.314559
0.0128487
0.403272
0.876591
1.43808
2.0128
2.61605
3.1753
3.78729
4.21235
4.71984
4.98428
4.95297
4.53082
4.68951
4.7206
4.93961
5.05306
5.22032
5.34967
5.51937
5.58566
5.7141
5.77973
5.80097
5.76271
5.4511
5.33088
5.22221
5.1122
5.04041
4.99696
-2.84291
-2.79148
-2.65265
-2.46993
-2.10751
-1.99033
-1.6545
-1.59507
-1.26571
-0.826375
-0.291015
0.281843
0.919847
1.54972
2.25835
2.90451
3.53399
4.0393
4.54709
4.88099
5.04627
4.63984
4.85777
4.90947
5.10377
5.18966
5.30209
5.39483
5.524
5.60164
5.72037
5.79749
5.80563
5.8145
5.53628
5.30005
5.20319
5.06363
4.98953
4.93209
-3.48105
-3.44089
-3.35377
-3.24929
-2.99323
-2.90783
-2.7452
-2.53059
-2.06368
-1.56518
-0.973009
-0.312027
0.382483
1.10604
1.85724
2.56024
3.28343
3.8933
4.49941
4.90033
5.30434
4.90526
5.10465
5.17694
5.3272
5.38561
5.47863
5.54395
5.61441
5.68975
5.72097
5.79573
5.79618
5.82098
5.59652
5.25897
5.14828
4.99768
4.90531
4.84937
-4.16049
-4.13574
-4.06187
-4.00746
-3.78602
-3.76895
-3.62213
-3.32979
-2.87736
-2.30466
-1.67175
-0.953089
-0.189925
0.616345
1.44698
2.24137
3.03704
3.75199
4.46161
4.98132
5.53923
5.37116
5.42629
5.53552
5.61376
5.63388
5.68587
5.72398
5.73505
5.73039
5.68824
5.62115
5.64919
5.64899
5.72546
5.25164
5.12674
4.94921
4.82375
4.75522
-4.91849
-4.90786
-4.82904
-4.79877
-4.6297
-4.73681
-4.45317
-4.10608
-3.63019
-3.0799
-2.37914
-1.5819
-0.742099
0.149867
1.08849
1.99471
2.8905
3.72026
4.49655
5.13434
5.78071
5.89194
5.79215
5.9509
5.95649
5.96991
5.98959
5.94403
5.92306
5.68417
5.67038
5.67116
5.63375
5.67182
5.50575
5.36303
5.01768
4.85577
4.72371
4.63973
-5.75353
-5.70577
-5.69426
-5.61846
-5.52843
-5.58451
-5.28649
-5.14252
-4.48773
-3.79722
-3.09926
-2.23444
-1.27033
-0.258795
0.783901
1.83824
2.85087
3.80187
4.65912
5.39635
6.10971
6.37925
6.24466
6.43695
6.36954
6.43242
6.3585
6.32196
5.87936
5.83482
5.71235
5.44127
5.41445
5.33581
5.44764
5.1991
4.97909
4.71946
4.54571
4.45141
-6.60128
-6.56361
-6.54299
-6.50905
-6.61041
-6.48289
-6.21702
-5.81176
-5.30029
-4.90529
-3.85599
-2.84417
-1.79538
-0.624903
0.562188
1.75471
2.91678
4.00465
4.96457
5.7924
6.56242
6.87331
6.77389
6.96682
6.89657
6.8724
6.83405
6.27871
6.18579
5.88886
5.63889
5.74595
5.644
5.60509
5.39973
5.11292
4.80967
4.58674
4.40635
4.29205
-7.51909
-7.47895
-7.48748
-7.59108
-7.58296
-7.42329
-7.12734
-6.74478
-6.17966
-5.50419
-4.9155
-3.5618
-2.26789
-0.954
0.384603
1.73913
3.05032
4.28923
5.37617
6.30675
7.12559
7.37505
7.40229
7.58358
7.51001
7.54991
6.93838
6.89752
6.44446
6.32011
6.25155
5.899
5.64668
5.42313
5.3672
5.08518
4.57865
4.3798
4.10771
3.96883
-8.46462
-8.44069
-8.52185
-8.63436
-8.59867
-8.40391
-8.03158
-7.5199
-7.27467
-6.41987
-5.56263
-4.38035
-2.79739
-1.27966
0.227343
1.7376
3.22059
4.63782
5.88246
6.94819
7.77875
7.93328
8.08088
8.30116
8.31311
7.86458
7.65829
7.29056
7.23758
6.95891
6.42051
6.03037
5.66298
5.31283
5.02508
4.82443
4.47928
4.00616
3.94926
3.74562
-9.45593
-9.47961
-9.56927
-9.68519
-9.64841
-9.50212
-9.05441
-8.60165
-7.96772
-7.23757
-6.32054
-5.16088
-3.26862
-1.51414
0.134911
1.79673
3.45788
5.05279
6.48408
7.72797
8.55335
8.93255
9.18797
9.24921
8.89914
8.80671
8.67474
8.44585
7.99397
7.34428
6.77612
6.17816
5.64143
5.18057
4.757
4.46166
4.16381
3.77317
3.42506
3.30963
-10.4191
-10.4514
-10.5382
-10.6361
-10.6172
-10.5218
-10.2222
-9.78338
-9.03565
-8.08255
-6.86663
-5.82286
-3.74968
-1.80099
0.0456724
1.86555
3.66963
5.46828
7.08548
8.52266
9.5795
10.2642
10.5986
10.69
10.6564
10.4362
9.96211
9.38155
8.62904
7.88134
7.07342
6.29857
5.59014
4.97025
4.46608
4.06104
3.85162
3.46703
3.2372
3.00493
-11.4482
-11.4801
-11.5724
-11.693
-11.6697
-11.6535
-11.382
-10.9762
-10.2298
-9.11192
-7.70037
-6.07782
-3.91225
-1.96597
0.109179
2.19388
4.14192
6.02011
7.85883
9.59933
11.1744
12.0193
12.2264
12.3729
12.2174
11.7961
11.1612
10.3129
9.41172
8.42319
7.40971
6.43202
5.50764
4.69964
4.02698
3.53575
3.15301
2.94412
2.44356
2.40604
-12.0994
-12.2098
-12.3334
-12.4781
-12.4328
-12.5524
-12.3085
-11.966
-11.2693
-10.1949
-8.63868
-6.71568
-4.00125
-2.0415
0.104149
2.4471
4.68343
6.78822
8.7412
11.1025
12.8336
13.6798
14.1057
14.1962
13.8985
13.3337
12.4745
11.4394
10.2391
9.03647
7.83897
6.65455
5.51177
4.49441
3.65742
3.03527
2.59329
2.34136
2.23151
1.89167
-13.264
-13.2035
-13.2896
-13.3434
-13.4333
-13.578
-13.3985
-13.2254
-12.6458
-11.4301
-9.48314
-7.3447
-4.43189
-1.68772
0.518159
2.97131
5.53557
7.84727
10.1432
13.1479
14.5086
15.5593
16.0665
16.1418
15.7431
15.0212
13.9271
12.6159
11.1653
9.73497
8.24405
6.76778
5.36853
4.18177
3.24136
2.55597
1.9659
1.52998
1.36463
1.07927
-12.7057
-12.8181
-13.0045
-13.0568
-13.2868
-13.5653
-13.6551
-13.8276
-13.2641
-11.9771
-9.90268
-7.75176
-4.64174
-1.55162
0.985496
3.78472
6.67427
9.26899
11.9847
14.7762
16.3383
17.1959
17.7798
18.0852
17.6631
16.7045
15.372
13.8367
12.0772
10.3822
8.78292
7.16403
5.56218
4.1722
3.03811
2.18046
1.52363
1.00392
0.742052
0.48008
-14.0578
-13.9207
-13.9646
-13.9481
-14.1215
-14.3532
-14.5991
-14.8617
-14.355
-13.0503
-11.0229
-8.62351
-5.35055
-1.56045
1.57928
4.86283
8.18058
11.1291
13.8273
16.3822
17.9016
18.9073
19.5755
19.6599
19.2726
17.9424
16.3907
14.418
12.3853
10.4348
8.65847
6.9943
5.22044
3.64188
2.3863
1.52111
0.882987
0.39157
0.15221
-0.151
-14.5513
-14.5159
-14.5564
-14.6679
-14.7296
-15.078
-15.3925
-15.6126
-15.1559
-13.9219
-11.9702
-9.42982
-6.12367
-1.65052
2.1294
5.97324
9.77302
13.2209
15.7765
18.1106
19.7557
20.7752
21.2181
21.2862
20.9446
19.5554
17.0673
14.7339
12.5927
10.1278
7.83823
5.9629
4.26695
2.84486
1.58969
0.661506
-0.0251541
-0.518853
-0.590652
-0.747988
-14.9933
-14.9552
-15.0353
-15.1882
-15.2692
-15.7543
-16.1109
-16.2021
-15.7694
-14.5908
-12.7484
-10.2144
-6.8199
-2.02699
2.40566
6.87101
11.157
14.8651
17.5109
19.9346
21.535
22.6025
23.053
22.8351
22.1925
20.7632
18.4719
15.5211
12.6215
10.3767
7.80471
5.60105
3.49167
1.91793
0.705599
-0.148109
-0.83673
-1.18654
-1.39314
-1.48115
-14.9858
-14.9658
-15.092
-15.2977
-15.5512
-15.967
-16.4266
-16.4383
-15.9869
-14.8531
-13.0882
-10.5983
-7.15104
-2.69728
2.56494
7.56073
12.2359
16.2045
19.3365
21.543
23.2933
24.4596
24.8802
24.6309
23.5153
21.7611
19.4535
16.5543
13.2074
10.1775
8.01718
5.58717
3.41245
1.748
0.400424
-0.680128
-1.58308
-2.17053
-2.4596
-2.67067
-14.6091
-14.6312
-14.8189
-15.082
-15.4354
-15.8352
-16.3504
-16.3091
-15.8123
-14.7047
-13.0155
-10.6658
-7.3079
-3.08727
2.31065
7.8799
12.9935
17.3466
20.8797
23.0893
24.7503
26.2332
26.6463
26.2697
25.098
23.0597
20.3678
17.4499
14.0054
10.3939
7.83362
5.56215
3.49449
1.87457
0.481195
-0.618781
-1.61164
-2.26213
-2.60901
-2.73814
-13.7875
-13.7975
-14.0667
-14.3699
-14.7517
-15.1559
-15.6714
-15.588
-15.0608
-13.9907
-12.3932
-10.2423
-7.13556
-3.03828
1.96603
7.87868
13.4212
18.1404
22.0858
24.9389
26.5395
27.9451
28.36
27.8901
26.5493
24.3961
21.4858
18.2374
14.6237
10.8356
7.75157
5.58077
3.48865
1.88387
0.444596
-0.676417
-1.6992
-2.48121
-3.01961
-3.11971
-12.7931
-12.8762
-13.0069
-13.2944
-13.665
-13.9839
-14.4736
-14.3434
-13.7852
-12.7561
-11.2743
-9.29524
-6.55966
-2.73531
1.97095
7.44677
13.3844
18.4675
22.8761
25.981
27.9428
29.5101
30.092
29.3231
27.7901
25.4067
22.3338
18.956
15.2509
11.3967
8.33867
5.84408
3.97333
2.43999
0.995011
-0.0837883
-1.13997
-2.00183
-2.67625
-2.73499
-11.4032
-11.5294
-11.5393
-11.7779
-12.051
-12.2251
-12.5874
-12.3949
-11.7971
-10.8127
-9.45209
-7.62837
-5.20481
-1.92444
2.32403
7.50385
13.4532
19.0304
23.8921
27.3882
29.3267
30.4292
30.6854
30.3621
28.6397
25.9567
22.6606
19.1155
15.3715
11.5386
7.99707
5.08425
3.44389
1.59756
0.0403289
-0.950395
-1.91266
-2.65347
-3.07854
-3.41203
-9.85802
-9.98241
-9.92718
-10.0227
-10.1917
-10.1834
-10.2305
-9.90966
-9.26368
-8.32596
-7.02755
-5.27417
-3.01526
-0.136997
3.77913
9.09526
15.1501
20.8998
25.6617
28.6761
29.9228
30.5088
30.4604
29.8309
28.512
25.9961
22.8355
19.4001
15.715
12.1338
8.2238
5.62942
3.9825
2.0317
0.422435
-0.580607
-1.69505
-2.3466
-2.70717
-2.99838
-8.01534
-8.05116
-7.983
-7.9001
-7.93067
-7.71483
-7.42166
-6.94641
-6.25083
-5.25837
-3.94626
-2.19847
0.0645082
2.87598
6.63422
11.5112
17.0189
21.8965
25.8471
28.5081
29.6381
30.0847
30.1279
29.3532
27.8287
25.3389
22.3399
19.0345
15.4979
12.0553
8.48213
5.7991
4.10422
2.23903
0.656172
-0.310742
-1.36799
-1.80328
-2.05448
-2.10303
-6.11329
-6.11894
-5.96977
-5.74803
-5.55422
-5.1346
-4.58173
-3.79259
-2.99768
-1.91467
-0.522303
1.28044
3.54859
6.35207
9.64477
13.5079
17.8242
21.9234
25.4956
27.8416
28.8157
29.4221
29.4592
28.5654
27.0367
24.6853
21.7895
18.8036
15.2331
11.6521
8.32846
6.41514
4.47236
2.75396
0.921371
0.0604293
-1.02158
-1.23436
-1.44493
-1.28895
-3.96923
-3.92033
-3.73412
-3.39963
-2.98351
-2.33007
-1.51371
-0.509429
0.506931
1.66107
3.1109
4.92436
7.13212
9.70127
12.4788
15.4297
18.969
22.475
25.6147
27.5102
28.3503
28.9452
28.6707
27.7909
26.2953
24.0049
21.2375
18.4217
14.2112
10.9418
8.20168
6.40613
4.77016
2.965
1.15292
0.245038
-0.812464
-0.771384
-1.04332
-0.631595
-1.99838
-1.90469
-1.64201
-1.27829
-0.637238
0.225685
1.39768
2.58858
3.76539
5.00017
6.42893
8.18502
10.1718
12.4107
14.7641
17.2875
20.3179
23.2465
25.7278
27.536
28.0199
28.4669
27.9371
26.9654
25.4909
23.2392
20.6024
18.0889
13.0747
10.2161
7.87307
6.26507
4.31543
3.27558
1.46415
0.311436
-0.786585
-0.518312
-0.897327
-0.151175
0.0943846
0.258517
0.535506
1.03237
1.68932
2.74765
4.24099
5.56442
6.74447
8.03328
9.39148
10.8624
12.5938
14.5831
16.8219
19.0836
21.708
24.0256
26.1161
27.5634
27.3947
27.6933
27.1092
26.1235
24.6594
22.5862
20.0233
17.8082
12.3473
9.55716
7.28444
6.05354
3.96914
3.09563
1.54683
0.987568
-1.08003
-0.27668
-1.00229
0.348505
1.8026
1.95705
2.4011
2.7981
3.6821
4.7046
6.49491
7.897
9.1417
10.3524
11.6375
13.108
14.6991
16.557
18.7043
20.8486
23.0451
24.8146
26.5304
27.7414
26.794
26.9417
26.2886
25.2549
23.604
21.8778
19.3994
17.3386
11.7207
8.8774
6.37033
5.48786
3.65647
2.7161
1.10691
0.800638
-0.851178
-0.510565
-1.23663
0.720883
3.40713
3.78683
4.16382
4.90676
5.59703
6.70797
8.46085
9.88458
11.0419
12.3911
13.8831
15.6991
17.3508
18.9826
20.6136
22.4534
24.1136
25.7359
27.1297
27.8748
26.185
26.2115
25.6525
24.5672
22.8238
21.3084
18.9047
16.847
11.1494
8.25369
5.75439
4.67741
3.23236
2.60342
0.92307
0.860285
-0.845275
0.161011
-1.38579
1.84359
4.79661
4.8863
5.43021
6.04385
7.05648
8.01887
9.89486
11.2449
12.5811
14.1227
15.7542
17.3258
18.7704
20.3283
21.9931
23.5812
25.0258
26.467
27.3703
27.6931
25.5717
25.4048
24.933
23.7008
22.2526
20.7841
18.6163
16.3575
10.6744
7.66084
5.21532
4.01306
2.47503
2.19365
0.654855
0.79216
-0.814905
0.317223
-0.937237
3.86608
6.01893
6.55915
6.73087
7.6206
8.41342
9.5381
11.1571
12.7398
14.1688
15.7475
17.0739
18.5078
19.9341
21.416
22.8255
24.3314
25.5168
26.9021
27.4904
27.5844
25.5067
24.8957
24.3099
23.0658
22.1375
20.6548
18.5636
15.993
10.3254
7.05578
4.51666
3.44183
1.89264
1.92076
0.600506
1.29565
0.0318853
2.13323
1.78668
9.50867
7.02723
6.82932
7.33562
7.86411
8.95776
10.0609
11.8464
13.5288
15.0557
16.697
18.1521
19.5412
20.8285
22.1594
23.4966
24.8809
25.9448
26.9903
27.5476
27.3738
25.4282
24.4669
23.7579
22.8169
21.8944
20.7203
18.6156
15.7189
9.98872
6.64602
3.96402
3.26435
1.77103
1.71313
0.498526
1.29996
0.315942
3.60413
5.76218
17.0879
4.82924
7.82954
7.97416
8.833
9.61347
10.8708
12.4375
14.1832
15.6932
17.2797
18.7158
20.1687
21.4749
22.7993
23.9498
25.1942
26.1782
27.0807
27.5279
27.2644
25.5536
24.4615
23.784
22.9882
21.9843
20.9218
18.6224
15.344
9.66583
6.11085
3.52758
2.9462
1.7273
1.90818
0.89244
2.21156
2.3705
8.20507
15.6441
33.5795
-0.10633
-0.0867835
-0.0349327
0.0701179
0.219806
0.440489
0.656015
0.877121
1.14484
1.39727
1.81541
2.20806
2.64534
3.05861
3.50426
3.92501
4.35989
4.70873
5.14364
5.40841
5.50394
5.12945
5.44701
5.47636
5.73544
5.84794
6.05474
6.14165
6.23657
6.21072
6.22885
6.1549
5.94813
5.82346
5.64706
5.55159
5.41397
5.34637
5.30602
5.29158
-0.260662
-0.237151
-0.168131
-0.0501324
0.151239
0.3348
0.577169
0.754513
0.990649
1.44585
1.80314
2.20628
2.66823
3.09523
3.57714
4.01212
4.50028
4.84926
5.29461
5.43562
5.47046
5.13218
5.30814
5.35844
5.61407
5.73836
5.93475
6.0026
6.08992
6.05771
6.06444
5.98086
5.90171
5.86205
5.65162
5.57467
5.44672
5.3754
5.30526
5.25357
-0.549331
-0.503865
-0.396021
-0.244168
-0.0854814
0.124619
0.342364
0.615103
0.890878
1.28024
1.67545
2.08959
2.54838
2.98655
3.46955
3.91933
4.43532
4.78792
5.22236
5.26799
5.24093
4.79381
4.91281
4.91768
5.15668
5.26358
5.46029
5.56625
5.64334
5.75133
5.76481
5.79004
5.73475
5.67021
5.54661
5.52615
5.38629
5.32422
5.25203
5.22993
-1.00137
-0.928288
-0.812387
-0.588069
-0.424002
-0.187738
0.0726013
0.329456
0.656153
1.03207
1.44368
1.86355
2.33045
2.76172
3.27536
3.75957
4.26691
4.62503
5.03393
5.05467
4.95942
4.48927
4.56258
4.57823
4.8175
4.94156
5.1515
5.18889
5.39116
5.49599
5.6599
5.71589
5.69468
5.65415
5.49096
5.41916
5.3006
5.27003
5.17542
5.14909
-1.51736
-1.40636
-1.19159
-1.04537
-0.814054
-0.605615
-0.328793
-0.0666563
0.281117
0.654612
1.05395
1.42862
1.87768
2.37535
2.95085
3.44486
3.98391
4.35614
4.79241
4.80082
4.76904
4.28826
4.4298
4.41998
4.65113
4.77448
4.97101
5.11767
5.30751
5.46158
5.57849
5.64901
5.67603
5.63752
5.40951
5.34174
5.22158
5.14671
5.08646
5.04931
-2.06299
-1.91653
-1.80884
-1.59346
-1.3636
-1.13964
-0.840442
-0.582774
-0.275614
0.0235042
0.394178
0.862662
1.41675
1.9781
2.60484
3.15764
3.69278
4.16749
4.64414
4.78188
4.75605
4.30928
4.42817
4.45897
4.69198
4.81826
4.99892
5.13586
5.22028
5.41138
5.52602
5.67158
5.71929
5.69161
5.36713
5.29068
5.17065
5.08141
5.00683
4.96674
-2.60925
-2.58263
-2.46843
-2.29346
-2.05613
-1.84757
-1.59667
-1.53901
-1.25846
-0.826008
-0.299325
0.266928
0.899518
1.53335
2.22127
2.8117
3.51687
4.01353
4.53449
4.80685
4.89512
4.48655
4.62804
4.66939
4.85511
4.95085
4.93292
5.15803
5.29338
5.40599
5.53162
5.67291
5.66988
5.71236
5.40924
5.25683
5.16239
5.02542
4.9487
4.88861
-3.27513
-3.25257
-3.19771
-3.10855
-2.93986
-2.81619
-2.73159
-2.5041
-2.06731
-1.57216
-0.990726
-0.337879
0.364769
1.14037
1.87133
2.56651
3.27692
3.90262
4.52002
4.90542
5.18948
4.78343
4.91733
4.98388
5.12263
5.1765
5.1851
5.25999
5.21496
5.55661
5.69813
5.67725
5.68774
5.69714
5.42672
5.25118
5.10495
4.97719
4.8654