/*--------------------------------*- C++ -*----------------------------------*\
| =========                 |                                                 |
| \\      /  F ield         | OpenFOAM: The Open Source CFD Toolbox           |
|  \\    /   O peration     | Version:  v1806                                 |
|   \\  /    A nd           | Web:      www.OpenFOAM.com                      |
|    \\/     M anipulation  |                                                 |
\*---------------------------------------------------------------------------*/
FoamFile
{
    version     2.0;
    format      ascii;
    class       surfaceScalarField;
    location    "0.129";
    object      phi;
}
// * * * * * * * * * * * * * * * * * * * * * * * * * * * * * * * * * * * * * //

dimensions      [0 3 -1 0 0 0 0];
oriented        oriented;


internalField   nonuniform List<scalar> 
187200
(
2.46062e-06
5.57364e-06
-8.052e-06
5.14645e-05
-2.10793e-05
-2.79235e-05
6.90684e-05
-5.83942e-06
-1.17629e-05
8.36659e-05
-5.26441e-06
-9.33202e-06
9.51471e-05
-2.92142e-06
-8.55953e-06
0.000108905
-3.0658e-06
-1.06924e-05
0.000123302
-1.26147e-06
-1.31351e-05
0.000141317
-1.5067e-06
-1.65072e-05
0.000159776
1.35415e-07
-1.85931e-05
0.000177708
2.54352e-07
-1.81854e-05
0.000198341
-6.02718e-07
-2.00295e-05
0.000213354
3.87756e-06
-1.88904e-05
0.000217272
7.77409e-06
-1.1692e-05
0.000205432
1.72989e-05
-5.4583e-06
0.000176612
2.3799e-05
5.0202e-06
0.000151806
1.45022e-05
1.03025e-05
0.00011591
1.05332e-05
2.53625e-05
7.50254e-05
2.11007e-05
1.97836e-05
-1.5446e-05
7.89744e-05
1.14977e-05
-0.000171457
0.000133214
2.27976e-05
-0.000446464
0.000218191
5.68163e-05
-0.000632083
0.000219104
-3.34872e-05
-0.000779984
0.000269157
-0.000121256
-0.000821931
0.000287286
-0.00024534
-0.000809435
0.000320487
-0.000332983
-0.000740365
0.000349827
-0.000418896
-0.000630095
0.000377082
-0.000487352
-0.000488583
0.000394184
-0.000535696
-0.000314517
0.000386829
-0.000560895
-0.000143928
0.000372935
-0.000543525
-1.52856e-05
0.000340741
-0.000469384
6.61537e-05
0.00029297
-0.000374409
9.53668e-05
0.0002293
-0.000258512
8.55839e-05
0.000166521
-0.000156737
5.34292e-05
0.000115091
-8.29353e-05
2.82459e-05
7.45946e-05
-4.941e-05
1.06951e-05
4.9787e-05
-3.2235e-05
8.71392e-07
3.61361e-05
-2.63121e-05
-4.34866e-06
2.5197e-05
-1.99762e-05
1.60762e-05
-2.04253e-05
-5.56049e-06
3.39005e-05
-2.27654e-05
3.4157e-05
-1.966e-05
-4.11338e-05
7.15896e-05
-1.2009e-05
-3.1261e-05
0.000100023
-5.93234e-06
-2.77646e-05
0.000118689
4.10462e-06
-2.56913e-05
0.00013274
1.18917e-05
-2.90082e-05
0.00014122
2.40251e-05
-3.37653e-05
0.000146924
3.21096e-05
-3.93182e-05
0.000149407
4.66902e-05
-4.90357e-05
0.000136469
6.75787e-05
-5.43852e-05
0.000101884
0.000107157
-7.31749e-05
4.72548e-05
0.000145008
-8.65009e-05
-2.67707e-05
0.000176136
-9.43364e-05
-0.000115994
0.000211411
-0.000104889
-0.000222246
0.000260947
-0.000130897
-0.000368393
0.000326992
-0.000166344
-0.000520916
0.000403932
-0.000240876
-0.000682299
0.000481088
-0.000298605
-0.000833131
0.000592452
-0.000362645
-0.000994864
0.000704747
-0.000409801
-0.00116243
0.000828417
-0.000442664
-0.00126689
0.000912577
-0.000589013
-0.00134684
0.00101463
-0.000665526
-0.00134578
0.00105078
-0.000764564
-0.00127244
0.00109717
-0.000850026
-0.00113477
0.00112206
-0.000909898
-0.000948074
0.00113277
-0.000942384
-0.000725226
0.00111229
-0.000940953
-0.000499796
0.00105944
-0.000898045
-0.000275688
0.00097763
-0.000828802
-8.16853e-05
0.000849805
-0.000703066
7.75956e-05
0.000707772
-0.000574081
0.000153682
0.000561272
-0.000408057
0.000177829
0.000429095
-0.00028672
0.000158512
0.000314556
-0.000180146
0.000123214
0.000229255
-0.000119362
8.41551e-05
0.000170027
-8.11798e-05
5.01975e-05
0.000133077
-6.29828e-05
2.08666e-05
0.000101916
-4.73881e-05
6.62881e-05
-2.93474e-05
1.18752e-05
3.34439e-05
-1.1417e-05
4.57353e-05
-1.50727e-05
-3.84449e-05
8.34447e-05
-7.10136e-06
-4.26157e-05
0.000108826
1.26832e-05
-4.39956e-05
0.000120174
4.08352e-05
-4.80779e-05
0.000123471
6.67295e-05
-5.81342e-05
0.000114895
9.75273e-05
-6.49258e-05
0.000102726
0.000129222
-8.49422e-05
7.2114e-05
0.000184787
-0.000107485
1.96668e-05
0.000245688
-0.000125662
-5.47654e-05
0.000318108
-0.000136518
-0.000149155
0.000396584
-0.000157185
-0.000290878
0.000494125
-0.000176265
-0.000450162
0.000591694
-0.000220998
-0.000625749
0.000696077
-0.000259543
-0.000786068
0.000800387
-0.000313077
-0.000920659
0.000910746
-0.000372222
-0.00103722
0.00102634
-0.000428684
-0.00115331
0.00118474
-0.000476198
-0.00128961
0.00134547
-0.000504428
-0.00142755
0.00147462
-0.000508269
-0.00149946
0.0015802
-0.000595714
-0.00153761
0.00167271
-0.000619934
-0.00151295
0.00168565
-0.000659522
-0.0014272
0.00171124
-0.000699817
-0.00129231
0.00169944
-0.000712278
-0.00112222
0.00166411
-0.00070143
-0.000927386
0.00158412
-0.000666666
-0.000722592
0.00146964
-0.000614991
-0.000509186
0.00131738
-0.000553153
-0.000336268
0.0011469
-0.000470014
-0.000179879
0.000955322
-0.000403939
-5.91856e-05
0.000756773
-0.000316194
2.36514e-05
0.000593268
-0.00024701
5.69832e-05
0.000455063
-0.000173838
6.78759e-05
0.000352644
-0.000134282
6.12627e-05
0.000278613
-0.000101972
4.40291e-05
0.000232555
-8.22427e-05
2.05856e-05
0.000181208
-5.58478e-05
0.000117504
-3.06304e-05
1.39829e-05
3.74178e-05
-1.79554e-05
4.59828e-05
3.12941e-06
-5.02e-05
7.73805e-05
2.22465e-05
-6.07441e-05
9.11979e-05
6.55672e-05
-6.67003e-05
9.24422e-05
0.000110967
-7.13753e-05
8.02936e-05
0.000163987
-8.51085e-05
6.0271e-05
0.000227284
-0.000109734
2.23949e-05
0.000301884
-0.000134785
-3.02497e-05
0.00040116
-0.000163728
-0.000108958
0.000507106
-0.000182709
-0.000223055
0.00063123
-0.000199025
-0.000355941
0.000750228
-0.000220758
-0.00049763
0.000873795
-0.00023798
-0.000632767
0.000983227
-0.000256395
-0.000761231
0.00110488
-0.000280342
-0.000875489
0.00122526
-0.000310614
-0.000977579
0.00135467
-0.000341839
-0.00106645
0.0014718
-0.000356596
-0.00116199
0.00163872
-0.000358439
-0.00127438
0.00177751
-0.000319645
-0.00140883
0.00185981
-0.000250733
-0.00147007
0.00192351
-0.00028206
-0.00150601
0.00196778
-0.00025913
-0.00148418
0.00192395
-0.000260127
-0.00141649
0.00191024
-0.000266689
-0.00131752
0.00185563
-0.000255153
-0.00119635
0.00177987
-0.000236932
-0.00106021
0.00166201
-0.000214034
-0.000912957
0.00151266
-0.000190266
-0.000754644
0.00134305
-0.000183989
-0.000578202
0.00115418
-0.000183724
-0.000408806
0.000971866
-0.000185939
-0.000261012
0.000790394
-0.000181416
-0.000138658
0.00064471
-0.000173796
-5.78522e-05
0.00052913
-0.000154873
-2.38295e-06
0.000432145
-0.00013497
2.6996e-05
0.000363333
-0.000114098
3.53932e-05
0.000317153
-9.29948e-05
2.09789e-05
0.000255989
-6.03684e-05
0.000165715
-2.72319e-05
1.3116e-05
5.73778e-05
-3.30748e-05
4.57246e-05
4.46433e-05
-7.41206e-05
7.82984e-05
8.29395e-05
-9.32655e-05
8.61379e-05
0.00015333
-9.56015e-05
7.30967e-05
0.000229312
-0.000105304
4.32366e-05
0.000316346
-0.000122499
2.61816e-06
0.000421683
-0.000153781
-4.25308e-05
0.0005297
-0.000182667
-9.26258e-05
0.000659428
-0.000208173
-0.000158607
0.000794174
-0.000221088
-0.000240347
0.00093838
-0.00022541
-0.000334671
0.00106797
-0.000223416
-0.000443007
0.0011995
-0.000217374
-0.000560725
0.00131886
-0.000217917
-0.00067175
0.00143352
-0.000217613
-0.000768097
0.00153727
-0.000215664
-0.000846719
0.00163705
-0.00020376
-0.00090479
0.00169947
-0.000169602
-0.000981893
0.0018036
-8.77838e-05
-0.00108814
0.00187662
7.13706e-06
-0.00123676
0.00188986
0.000118561
-0.00130393
0.00187034
0.000120332
-0.00135678
0.00187885
0.000141787
-0.00136387
0.00180235
0.000128693
-0.00134179
0.00177565
0.000112512
-0.00130036
0.0017104
0.000103798
-0.0012416
0.00163297
8.81347e-05
-0.00117723
0.00152365
7.39907e-05
-0.00108765
0.00139302
3.00559e-05
-0.000971683
0.00124327
-1.61868e-05
-0.000829969
0.00108017
-6.77034e-05
-0.000663906
0.000926533
-0.00012073
-0.000492659
0.000772041
-0.000152894
-0.000331518
0.00064935
-0.000165782
-0.000195928
0.000561379
-0.000167839
-9.2042e-05
0.000481604
-0.000153342
-2.34576e-05
0.000424551
-0.000129802
1.57712e-05
0.0003824
-0.000104475
1.93091e-05
0.000314897
-6.2446e-05
0.000206426
-2.14041e-05
6.4489e-06
0.000110513
-5.95828e-05
4.57651e-05
0.000122169
-0.00011684
7.85348e-05
0.000186995
-0.000136824
8.22101e-05
0.000284666
-0.000135011
6.06556e-05
0.00038607
-0.000135203
1.81609e-05
0.000510598
-0.000151757
-1.64888e-05
0.000644295
-0.000187961
-4.07325e-05
0.000776373
-0.000222428
-7.84657e-05
0.000933217
-0.000236055
-0.000134245
0.00107639
-0.000226435
-0.000197106
0.00121007
-0.000208828
-0.000266673
0.00132406
-0.000186529
-0.000335901
0.00142974
-0.000161009
-0.000401538
0.00151724
-0.000132745
-0.000462055
0.00159327
-9.9237e-05
-0.000507472
0.00164413
-6.14475e-05
-0.000563315
0.00168065
1.22497e-05
-0.000640406
0.00168942
8.7141e-05
-0.00072156
0.00170996
0.000174795
-0.00082904
0.00169638
0.000287722
-0.000986954
0.00169089
0.00035688
-0.00107567
0.00160013
0.000358934
-0.00116593
0.00160221
0.000366901
-0.00122077
0.00150893
0.000348254
-0.00125085
0.00148371
0.000322022
-0.00126575
0.00142707
0.000298231
-0.00126799
0.00137204
0.000263165
-0.00125726
0.00129224
0.00022069
-0.00122642
0.00119669
0.000165497
-0.00114523
0.00109235
6.97352e-05
-0.00103369
0.000977367
-8.74533e-06
-0.000874427
0.000861914
-9.46389e-05
-0.000692848
0.000748393
-0.000157931
-0.00050569
0.000654472
-0.000192281
-0.000326929
0.000585193
-0.000202575
-0.00018485
0.000521008
-0.000181483
-7.55254e-05
0.000468738
-0.00015351
-5.4254e-06
0.00043056
-0.000118259
1.50119e-05
0.000363147
-6.86871e-05
0.000240677
-1.92418e-05
4.7727e-06
0.000198197
-9.24558e-05
5.13514e-05
0.000241026
-0.000165435
8.98854e-05
0.000331309
-0.000182848
9.70959e-05
0.000453302
-0.000175845
7.20065e-05
0.000583001
-0.000171841
2.86187e-05
0.00074054
-0.000186553
1.63454e-05
0.000881355
-0.000224785
-4.77343e-07
0.00102617
-0.000232969
-2.09219e-05
0.00117554
-0.000221878
-5.24359e-05
0.00129741
-0.00018951
-9.14396e-05
0.00140387
-0.0001548
-0.00014204
0.00149036
-0.000115693
-0.00019585
0.00155753
-7.39784e-05
-0.000245666
0.00159569
-2.86265e-05
-0.00029225
0.00161259
2.72698e-05
-0.000330761
0.0015946
8.80461e-05
-0.000374162
0.00157411
0.00014994
-0.000414501
0.00150954
0.000220218
-0.000497324
0.00147729
0.000315493
-0.000581814
0.00138195
0.000398916
-0.000748871
0.00138275
0.000475198
-0.000860294
0.00123362
0.000477928
-0.000975774
0.00125201
0.000465678
-0.0010794
0.0011778
0.000434755
-0.00116149
0.00117295
0.000392849
-0.00123139
0.0011424
0.00035457
-0.00128989
0.00112246
0.000308074
-0.00132789
0.00108124
0.000249005
-0.00134273
0.00103295
0.000178577
-0.00129502
0.000973098
7.15434e-05
-0.00121403
0.000892923
3.44782e-06
-0.00107679
0.000807421
-8.27488e-05
-0.000888561
0.000720047
-0.00015988
-0.000672266
0.000640789
-0.000202611
-0.000441571
0.000585994
-0.000231496
-0.000264888
0.000554558
-0.000210232
-0.000119704
0.000507349
-0.000183791
-2.60685e-05
0.000474615
-0.000137689
1.26279e-05
0.000404523
-8.00693e-05
0.000273879
-2.05741e-05
7.96691e-06
0.000315448
-0.000125217
6.61088e-05
0.000394923
-0.000212038
0.000108796
0.000510931
-0.000222309
0.000119274
0.000641044
-0.00019822
0.000100212
0.000782551
-0.000180487
9.12392e-05
0.000946318
-0.000196804
0.000101752
0.00109026
-0.000219413
9.64889e-05
0.00123482
-0.000203388
8.96958e-05
0.00135377
-0.000171432
5.80901e-05
0.00145856
-0.000129544
1.85855e-05
0.00153316
-8.97821e-05
-2.38146e-05
0.00157811
-4.53569e-05
-6.93225e-05
0.00159391
9.12343e-06
-0.000111132
0.00157178
6.5718e-05
-0.000148976
0.00152762
0.000122812
-0.000188202
0.00144942
0.000184401
-0.000227592
0.00137159
0.000241909
-0.000265015
0.00125556
0.000291411
-0.000323491
0.00118853
0.00034724
-0.00040542
0.00105376
0.000410127
-0.000545526
0.00106227
0.000460587
-0.000694375
0.000916603
0.000465867
-0.000829088
0.000945546
0.000441176
-0.000975358
0.000907035
0.000417035
-0.00109701
0.000920223
0.000374377
-0.00120536
0.000915884
0.000334869
-0.00130204
0.000922915
0.000296219
-0.00137759
0.000911871
0.000244916
-0.0014217
0.000896922
0.000180143
-0.00141343
0.000857444
0.000107373
-0.00135225
0.000802439
2.93093e-05
-0.00123378
0.000733352
-4.44017e-05
-0.00104701
0.000667307
-0.000134026
-0.000825382
0.000614677
-0.00019552
-0.00057899
0.000567546
-0.000227945
-0.000353666
0.000568052
-0.000238818
-0.000174025
0.000532527
-0.000204818
-5.24242e-05
0.000510214
-0.000157202
6.5308e-06
0.000438057
-9.24869e-05
0.000303113
-2.27016e-05
2.22984e-05
0.000446486
-0.000153336
0.000109932
0.00056203
-0.000254741
0.0001829
0.000699535
-0.000261572
0.000209931
0.0008337
-0.000219687
0.000189646
0.000990961
-0.000188123
0.000188919
0.00113755
-0.000190505
0.000197261
0.00127165
-0.000189731
0.000196487
0.00139637
-0.000160777
0.000181669
0.00149088
-0.000122299
0.000155325
0.00155742
-7.25132e-05
0.000119949
0.00159076
-2.22209e-05
7.83292e-05
0.00159043
2.92999e-05
2.99817e-05
0.00155477
8.74923e-05
-1.35815e-05
0.00148178
0.000133561
-5.36999e-05
0.00138584
0.0001819
-9.33666e-05
0.00126293
0.00022616
-0.000131621
0.001148
0.000261841
-0.000177822
0.00101376
0.000287996
-0.00022797
0.000927825
0.000310857
-0.000321697
0.000801723
0.000345763
-0.00042895
0.000797076
0.000372452
-0.00059972
0.000695195
0.000392177
-0.000742076
0.000715457
0.000372444
-0.000908021
0.000711558
0.000361422
-0.00105055
0.000733246
0.000329505
-0.0011808
0.000749963
0.000296171
-0.00130446
0.000768777
0.000277804
-0.00140649
0.000779019
0.000234877
-0.00148118
0.000770351
0.00020126
-0.00150618
0.000738579
0.000143865
-0.00146867
0.000694963
6.99622e-05
-0.00136379
0.000647554
-1.90817e-05
-0.00118568
0.000591974
-0.000102772
-0.00094819
0.000549802
-0.000172615
-0.000683277
0.000515194
-0.000212561
-0.000430893
0.000542466
-0.000226796
-0.000222066
0.000546966
-0.000223268
-7.14283e-05
0.000532371
-0.000172796
5.42297e-07
0.000470309
-0.000104224
0.000330669
-2.70122e-05
4.20662e-05
0.000576705
-0.000172285
0.000152241
0.000736975
-0.00028512
0.000251942
0.000886817
-0.000286984
0.000289654
0.0010224
-0.000226411
0.000287088
0.00116982
-0.000176295
0.000284549
0.00129746
-0.000157372
0.000278935
0.00141736
-0.000140097
0.000280897
0.00150635
-0.000111939
0.000268419
0.00157144
-6.80795e-05
0.000237842
0.00160143
-1.34365e-05
0.000198419
0.00159419
3.59889e-05
0.000146335
0.0015489
9.36214e-05
9.33832e-05
0.00147098
0.000136739
4.27355e-05
0.00135451
0.000177922
-2.39678e-06
0.00122085
0.000210125
-4.69436e-05
0.00107232
0.000235163
-8.7033e-05
0.000939584
0.000248509
-0.000135687
0.000807499
0.00025492
-0.000179211
0.000716642
0.000254708
-0.000276177
0.000624007
0.000274682
-0.000363091
0.00059806
0.000285929
-0.000533732
0.000548297
0.000317538
-0.000681896
0.000551216
0.000312405
-0.00084541
0.000560563
0.00031451
-0.000992649
0.000582522
0.000297964
-0.0011347
0.000604936
0.00028708
-0.00127227
0.000632543
0.0002738
-0.00140132
0.000640464
0.000267608
-0.00149661
0.000632633
0.000233002
-0.00154615
0.000610718
0.000177398
-0.00153309
0.000580847
0.000101065
-0.00145074
0.000545051
2.01495e-05
-0.00129171
0.000510255
-7.73132e-05
-0.00105843
0.000480824
-0.000164297
-0.000790437
0.000451377
-0.000204178
-0.00050541
0.000472348
-0.000214907
-0.000274885
0.000521371
-0.00020493
-9.98045e-05
0.000536199
-0.000178908
-8.99381e-06
0.000488096
-0.000108601
0.000352364
-3.06891e-05
5.92681e-05
0.000692259
-0.000174823
0.000195974
0.000900835
-0.000300567
0.000320769
0.00106101
-0.000298987
0.000374593
0.00119315
-0.00022457
0.000388255
0.00131748
-0.000161321
0.000374442
0.00142549
-0.000114211
0.000362667
0.00152007
-9.09338e-05
0.000346049
0.00158314
-6.01727e-05
0.000327632
0.00161321
-2.33539e-05
0.000297287
0.001606
2.5777e-05
0.00024814
0.00155987
8.34636e-05
0.000188007
0.00147427
0.000134758
0.00012732
0.00136016
0.000171507
6.87527e-05
0.00121273
0.000200349
1.58407e-05
0.00105617
0.000217586
-3.17885e-05
0.000896639
0.000223307
-7.34856e-05
0.000761182
0.000220101
-0.000122111
0.000641355
0.00021477
-0.000167034
0.00055497
0.000206597
-0.000254112
0.00049129
0.000219796
-0.000336146
0.00045101
0.000229084
-0.000483298
0.000430726
0.000264723
-0.000623827
0.000419155
0.000272591
-0.000773542
0.000425156
0.000285122
-0.000913924
0.000443381
0.000279522
-0.00106018
0.000464002
0.000287192
-0.00121485
0.0004859
0.000301314
-0.00135688
0.000492227
0.000290262
-0.00147507
0.000493631
0.000257193
-0.001554
0.000483802
0.000205848
-0.00157937
0.000458737
0.00014748
-0.00152317
0.000438511
5.03405e-05
-0.0013844
0.000410862
-3.9375e-05
-0.00114839
0.000392355
-0.000147548
-0.000859889
0.00037694
-0.000214061
-0.000560342
0.000395992
-0.00022319
-0.00030762
0.000464471
-0.000195822
-0.000113315
0.000523585
-0.000181688
-1.39412e-05
0.000498501
-0.000109781
0.000373035
-3.46135e-05
7.11718e-05
0.000789119
-0.000168031
0.000233025
0.00104421
-0.000305224
0.000379935
0.00121663
-0.00030253
0.000452124
0.00133795
-0.00021699
0.000475485
0.0014356
-0.000141481
0.000458355
0.00151946
-7.68405e-05
0.000435166
0.00158615
-4.28878e-05
0.000401046
0.00162108
-3.82013e-06
0.00035799
0.0016236
3.26688e-05
0.000316039
0.00158511
6.2842e-05
0.000266556
0.0015069
0.000102453
0.000197276
0.0013865
0.000157048
0.000128286
0.00123982
0.000189337
6.33559e-05
0.00107092
0.000206731
7.78238e-06
0.000903402
0.000208347
-3.94786e-05
0.000742908
0.000200993
-7.69906e-05
0.000610889
0.000187805
-0.000119319
0.000503621
0.000180063
-0.00016251
0.000423369
0.000174791
-0.000236471
0.000374765
0.000190486
-0.000311392
0.00032378
0.000202152
-0.000432504
0.000314964
0.000236875
-0.000549138
0.000284473
0.000251318
-0.000677249
0.000284186
0.000269082
-0.000807845
0.000292599
0.000281378
-0.000954382
0.000309335
0.000301203
-0.00111121
0.000329085
0.000313646
-0.00126535
0.000346628
0.00029973
-0.00140073
0.000356321
0.000272693
-0.00150456
0.00035957
0.000228065
-0.0015438
0.000355711
0.000142265
-0.00152906
0.000336689
8.70809e-05
-0.00143599
0.000309847
7.94654e-06
-0.00125036
0.00028994
-8.32194e-05
-0.000967234
0.000284247
-0.000190429
-0.000638712
0.000307417
-0.000239944
-0.000347875
0.000381388
-0.000207756
-0.000140999
0.000475523
-0.000158813
-2.18155e-05
0.000495169
-0.000115849
0.000389785
-3.8565e-05
8.08728e-05
0.000856474
-0.000148228
0.000265753
0.00115662
-0.000297297
0.000436757
0.00134144
-0.000295815
0.000525159
0.00144991
-0.000200359
0.000550267
0.0015258
-0.000115302
0.000536323
0.00158159
-4.81847e-05
0.00049814
0.001618
6.32371e-06
0.000447912
0.00162919
4.21124e-05
0.00038173
0.00160242
8.7367e-05
0.000313674
0.00153619
0.000116977
0.000251496
0.00143292
0.000136159
0.00017992
0.00128941
0.000168672
0.000106222
0.00111975
0.000193769
3.68306e-05
0.000939114
0.000201203
-1.87627e-05
0.000766452
0.000192545
-6.06593e-05
0.000610833
0.000173971
-9.04445e-05
0.000483199
0.000157475
-0.000120338
0.000382657
0.000150858
-0.000155543
0.000304602
0.000153973
-0.000211288
0.000256603
0.000173908
-0.00027365
0.000194888
0.000191256
-0.000367485
0.000186725
0.000222077
-0.000456805
0.000138498
0.000235297
-0.000562121
0.000135946
0.000253558
-0.000683244
0.000136744
0.000276978
-0.000825382
0.000152445
0.000299027
-0.000976995
0.000175003
0.000305696
-0.00113249
0.000199889
0.00030224
-0.00128074
0.000218856
0.000285716
-0.00140919
0.000232551
0.000255461
-0.00150564
0.000232645
0.000219523
-0.00154231
0.000208768
0.000164588
-0.00148657
0.000174293
7.98132e-05
-0.0013247
0.000143109
-1.50424e-05
-0.00105961
0.000142764
-0.000123601
-0.000715495
0.000179505
-0.000216204
-0.000379923
0.000282976
-0.000237162
-0.00014943
0.000412413
-0.000167383
-2.83074e-05
0.000474955
-0.00010091
0.000404589
-4.31098e-05
8.44045e-05
0.00089931
-0.000127239
0.000286287
0.00123809
-0.000283345
0.000478952
0.00143304
-0.000284265
0.000582098
0.00153082
-0.000184054
0.000609513
0.00158703
-8.8647e-05
0.000594661
0.0016187
-2.2264e-05
0.000544061
0.00162583
4.27733e-05
0.000472749
0.00160404
9.64716e-05
0.000390398
0.00155466
0.000130112
0.000302001
0.00146715
0.000157432
0.000218139
0.00134403
0.000172755
0.000139199
0.00118601
0.000182337
5.96945e-05
0.00100443
0.000194817
-9.64895e-06
0.000817294
0.000191165
-6.11121e-05
0.000643748
0.000174167
-9.1062e-05
0.000491508
0.000149275
-0.000106111
0.000366281
0.000131967
-0.000118176
0.000266426
0.000128296
-0.000139226
0.000187084
0.000138569
-0.000173331
0.000129396
0.000161314
-0.0002234
6.19113e-05
0.000183048
-0.00028599
4.04902e-05
0.000208827
-0.000353259
-1.49259e-05
0.000220693
-0.000440067
-1.89444e-05
0.000241699
-0.000541385
-2.45162e-05
0.000262578
-0.000662999
-3.73316e-06
0.000277793
-0.000802857
2.56773e-05
0.000289183
-0.000955944
5.88191e-05
0.000294158
-0.00112037
8.69197e-05
0.000296363
-0.00127937
9.99358e-05
0.00029162
-0.00141159
9.62252e-05
0.000268638
-0.00149273
7.022e-05
0.000219686
-0.00149235
2.94996e-05
0.000144413
-0.00138294
-1.26059e-05
4.62981e-05
-0.00114959
-3.01376e-05
-6.04438e-05
-0.000826333
1.34123e-05
-0.000157166
-0.000449128
0.000131482
-0.000225713
-0.000174095
0.000330375
-0.000192996
-2.76419e-05
0.00043677
-0.000108271
0.000421832
-4.48844e-05
8.89239e-05
0.00090212
-9.1734e-05
0.000306717
0.00127505
-0.000254756
0.00051807
0.00148367
-0.000261978
0.000633898
0.00157603
-0.000161042
0.000661149
0.00161529
-5.55099e-05
0.000637058
0.00162442
1.83718e-05
0.000573142
0.00160403
8.5717e-05
0.000486181
0.00155579
0.000135202
0.000387687
0.00148242
0.000170726
0.000282371
0.00137653
0.000195937
0.000180017
0.00123826
0.000208126
8.95566e-05
0.00107193
0.000204539
4.19165e-06
0.000886042
0.000203757
-6.1683e-05
0.000699098
0.000184071
-0.000105556
0.000530029
0.000157592
-0.0001231
0.000379916
0.000129136
-0.000122393
0.000254899
0.000110676
-0.000117024
0.000151745
0.000109312
-0.000121625
6.72883e-05
0.000124398
-0.000128559
-1.08637e-05
0.000147196
-0.000160005
-7.83889e-05
0.000171749
-0.000195461
-0.000112318
0.000188266
-0.000255349
-0.000155797
0.00020076
-0.000321037
-0.000170233
0.000216978
-0.00039976
-0.000176328
0.000230535
-0.000501644
-0.000148644
0.000246796
-0.000626464
-0.000117085
0.000267582
-0.000771515
-8.46343e-05
0.000288504
-0.000934479
-5.63969e-05
0.000306281
-0.00110753
-3.95003e-05
0.000312482
-0.00127288
-3.91411e-05
0.000300722
-0.00140233
-6.57442e-05
0.000265416
-0.00145901
-0.000115074
0.000201247
-0.00140547
-0.000178033
0.000111888
-0.00121539
-0.000219209
-1.00464e-06
-0.000902835
-0.000196861
-0.000102287
-0.000522714
-6.66456e-05
-0.000181995
-0.000180691
0.000192394
-0.00020404
-3.91998e-05
0.000402651
-0.000107373
0.00042367
-4.10425e-05
8.61752e-05
0.000883135
-6.71897e-05
0.000313472
0.00127752
-0.000229768
0.000538735
0.00150043
-0.000242018
0.000665945
0.00159208
-0.000143256
0.00069787
0.00161846
-3.51017e-05
0.000661431
0.00159875
6.21103e-05
0.000586482
0.00155768
0.000121296
0.000486218
0.00148624
0.000169815
0.000372778
0.00139506
0.000200808
0.000252764
0.00127553
0.000221019
0.000134296
0.00112852
0.000228208
3.009e-05
0.000957493
0.000218643
-6.55643e-05
0.000776274
0.000205421
-0.000139374
0.000596356
0.000176552
-0.000176819
0.000425768
0.000141707
-0.000181048
0.000273052
0.000111093
-0.000162189
0.000142808
9.32329e-05
-0.000131169
2.87167e-05
9.20088e-05
-9.94372e-05
-7.28014e-05
0.00010836
-8.46885e-05
-0.000154764
0.000129155
-0.000100811
-0.000211405
0.00014914
-0.000122387
-0.000255692
0.000164951
-0.000165573
-0.00029092
0.000178309
-0.000215469
-0.000311718
0.00019138
-0.000278392
-0.000320927
0.000207521
-0.00034576
-0.000309264
0.000227987
-0.000445165
-0.000270487
0.000252808
-0.00057421
-0.000232884
0.000277295
-0.00073184
-0.000198002
0.000299237
-0.000908051
-0.000180131
0.000316842
-0.00109185
-0.000175774
0.000320436
-0.00125728
-0.000201089
0.000300773
-0.00136919
-0.000253014
0.000249844
-0.00138054
-0.000335369
0.00016869
-0.0012605
-0.000404375
6.51244e-05
-0.000986347
-0.000421104
-4.99104e-05
-0.000621314
-0.000292175
-0.000139507
-0.000239774
-1.44147e-05
-0.000174729
-3.2192e-05
0.000318547
-0.000123473
0.000430012
-3.85357e-05
0.000100463
0.00078715
-4.47791e-06
0.000338295
0.00121474
-0.000175052
0.000574342
0.00145994
-0.000195561
0.000712485
0.00155606
-0.000102127
0.00073724
0.00157414
1.95691e-05
0.000689197
0.00154072
0.000106076
0.000596503
0.00148037
0.00017001
0.000478952
0.00139135
0.00021245
0.000349959
0.00128541
0.000238644
0.000216529
0.00115493
0.000254032
8.97037e-05
0.00100273
0.000252615
-2.26265e-05
0.000833747
0.000236075
-0.000118313
0.000661572
0.000210389
-0.000181332
0.000488457
0.000170918
-0.000207856
0.000324005
0.000128287
-0.000199856
0.000172057
9.29961e-05
-0.000171792
4.23993e-05
7.23455e-05
-0.000119879
-9.19747e-05
6.87794e-05
-7.5113e-05
-0.000194352
7.67864e-05
-4.45324e-05
-0.000277777
9.24339e-05
-3.50164e-05
-0.000338224
0.000117304
-3.76735e-05
-0.000387761
0.000134726
-6.01593e-05
-0.000420693
0.000152256
-9.66802e-05
-0.000440745
0.000165546
-0.000152599
-0.000448863
0.000183855
-0.000225001
-0.000445727
0.000208867
-0.000301967
-0.000426952
0.000233432
-0.000401572
-0.000396454
0.000263175
-0.000544307
-0.000344866
0.000289599
-0.000710155
-0.000327961
0.000313679
-0.000898317
-0.000316931
0.000329319
-0.00108403
-0.000340111
0.000324733
-0.00123663
-0.000392309
0.0002919
-0.00130781
-0.0004894
0.000225206
-0.00125196
-0.0005887
0.000128481
-0.00102224
-0.000672708
2.18816e-05
-0.000668171
-0.000562613
-8.36324e-05
-0.000287342
-0.000254863
-0.000140382
-2.36847e-05
0.000188018
-0.000133127
0.000432625
-2.62922e-05
9.52535e-05
0.000670615
2.12825e-05
0.000327905
0.00113929
-0.000157193
0.000576673
0.00140183
-0.000190654
0.000729861
0.00149612
-9.3245e-05
0.00076113
0.00150237
4.05005e-05
0.00071374
0.00145063
0.000137481
0.000613191
0.00137546
0.000205455
0.000481643
0.00127929
0.000243606
0.000339179
0.00116783
0.000260044
0.000190215
0.00103678
0.000267114
4.87668e-05
0.000886462
0.000257713
-7.58849e-05
0.000727428
0.000230972
-0.000176466
0.000560991
0.000201163
-0.000238891
0.000393447
0.000157435
-0.000260057
0.000233548
0.000111623
-0.000242095
8.08134e-05
7.32824e-05
-0.000190498
-5.69822e-05
4.77851e-05
-0.000126172
-0.000188944
3.26449e-05
-5.7936e-05
-0.000295182
3.25942e-05
4.51273e-07
-0.000383795
4.76303e-05
3.54912e-05
-0.000449356
7.60916e-05
4.21812e-05
-0.000498057
0.000103605
3.47811e-05
-0.000537244
0.00012395
1.59341e-05
-0.000563326
0.000141428
-2.17215e-05
-0.000573016
0.000161808
-8.36587e-05
-0.000568352
0.000184563
-0.000166174
-0.000555576
0.00021114
-0.000261956
-0.000541241
0.00024057
-0.000371969
-0.000507894
0.000273041
-0.000517328
-0.000490546
0.000307947
-0.000694362
-0.00047482
0.000334924
-0.000887448
-0.000492286
0.000345263
-0.0010746
-0.000536267
0.000331116
-0.00119543
-0.000655965
0.000287388
-0.00119982
-0.000790428
0.000206121
-0.00105771
-0.00091048
9.56588e-05
-0.000729012
-0.00087873
-1.25796e-05
-0.000347377
-0.000545521
-9.09784e-05
-3.69478e-05
-2.90778e-05
-9.33352e-05
0.000385193
1.04886e-05
0.000126711
0.000455911
8.79928e-05
0.000335062
0.00100038
-6.94445e-05
0.000584165
0.0012804
-0.000127678
0.000741783
0.00138096
-4.24583e-05
0.00077437
0.0013898
7.99805e-05
0.000714726
0.00133473
0.000175535
0.000596583
0.00124964
0.000243968
0.000449798
0.00114302
0.000283055
0.000295394
0.00102633
0.0002959
0.000137646
0.000900739
0.000293785
-9.20992e-06
0.0007637
0.000269618
-0.000125837
0.000618609
0.000225447
-0.000218218
0.000469252
0.000184119
-0.000279103
0.000310427
0.000143906
-0.000294194
0.000150974
9.76649e-05
-0.000261922
-7.08008e-06
5.56221e-05
-0.000202087
-0.000130768
1.39524e-05
-0.000125543
-0.000253705
-1.1783e-05
-3.68309e-05
-0.000365057
-1.88375e-05
3.67378e-05
-0.000462194
4.8295e-06
8.76308e-05
-0.000537286
3.70368e-05
0.00012497
-0.000596136
6.07387e-05
0.000136077
-0.00063519
8.68384e-05
0.000124155
-0.000660523
0.000109118
8.71826e-05
-0.000670888
0.000134846
3.85005e-05
-0.000678717
0.000159049
-3.02439e-05
-0.000673147
0.000186315
-0.000122694
-0.000664513
0.000215725
-0.000227936
-0.000651866
0.000249213
-0.000350641
-0.000651066
0.000283227
-0.000511277
-0.000638165
0.000323982
-0.000693345
-0.00066994
0.000359723
-0.000883603
-0.000720681
0.000374672
-0.00104586
-0.000841852
0.000348143
-0.00112143
-0.000992769
0.00027791
-0.0010462
-0.00115907
0.000173366
-0.000797481
-0.0011857
5.82469e-05
-0.000373746
-0.000941887
-2.73688e-05
-6.20717e-05
-0.000291188
-4.95655e-05
0.000274094
4.90267e-05
0.000115838
0.000263901
7.6172e-05
0.000299983
0.000885295
-6.90623e-05
0.000547756
0.00116404
-0.000131413
0.000713178
0.00126331
-4.77696e-05
0.000769177
0.00125822
7.55742e-05
0.000728543
0.00119433
0.00018104
0.000624924
0.0011021
0.00025115
0.000477382
0.00100462
0.000285943
0.000307299
0.000908893
0.000287518
0.0001345
0.000803559
0.000269979
-2.83653e-05
0.000688465
0.000238102
-0.000159151
0.000559961
0.000189434
-0.000255836
0.000423914
0.000142023
-0.000325434
0.000274209
0.000105816
-0.000339028
0.00010686
5.77083e-05
-0.000315112
-3.76669e-05
6.67281e-06
-0.000244247
-0.000165635
-3.59964e-05
-0.000149764
-0.000283312
-6.48759e-05
-4.75384e-05
-0.000402328
-6.49576e-05
4.80372e-05
-0.000508203
-4.95686e-05
0.000115174
-0.000594456
-9.96684e-06
0.000166314
-0.00066433
1.70537e-05
0.000199843
-0.000710899
4.21811e-05
0.000216496
-0.000745231
6.80552e-05
0.00020962
-0.000758791
9.47794e-05
0.000172388
-0.00076521
0.000123727
0.000105122
-0.000760845
0.000154963
2.73876e-05
-0.000768061
0.000181283
-7.14838e-05
-0.000763763
0.000210768
-0.000194015
-0.000776836
0.000248306
-0.000331684
-0.000791191
0.000290695
-0.000505766
-0.000839286
0.000343429
-0.000708912
-0.000906398
0.000388863
-0.000905505
-0.0010505
0.000405245
-0.00104555
-0.00122477
0.000372052
-0.0010435
-0.00144273
0.000281605
-0.000876778
-0.00152646
0.000174032
-0.000486325
-0.00138525
5.29097e-05
-8.53023e-05
-0.000715193
2.29827e-05
0.00010989
7.8905e-05
7.45707e-05
0.000126857
6.24726e-05
0.000278315
0.000750361
-6.88111e-05
0.000524216
0.00104466
-0.000126527
0.000706643
0.00115601
-7.51355e-05
0.000777655