/*--------------------------------*- C++ -*----------------------------------*\
| =========                 |                                                 |
| \\      /  F ield         | OpenFOAM: The Open Source CFD Toolbox           |
|  \\    /   O peration     | Version:  v1806                                 |
|   \\  /    A nd           | Web:      www.OpenFOAM.com                      |
|    \\/     M anipulation  |                                                 |
\*---------------------------------------------------------------------------*/
FoamFile
{
    version     2.0;
    format      ascii;
    class       volVectorField;
    location    "0.129";
    object      U;
}
// * * * * * * * * * * * * * * * * * * * * * * * * * * * * * * * * * * * * * //

dimensions      [0 1 -1 0 0 0 0];


internalField   nonuniform List<vector> 
64000
(
(-0.0134266 -0.0102032 -0.0119023)
(0.0117577 -0.00983835 -0.00993151)
(0.0144233 -0.000556807 -0.000935819)
(0.017723 0.000207293 0.000514079)
(0.0168432 -6.19063e-05 0.000824594)
(0.016614 -0.00133753 0.00125689)
(0.0165067 -0.00282924 0.00100219)
(0.0141909 -0.00389393 0.00196403)
(0.0137379 -0.00499311 0.00241775)
(0.0088802 -0.00536422 0.00348854)
(0.00517358 -0.00623001 0.00330527)
(-0.00363519 -0.00862253 0.00701312)
(-0.0137925 -0.0138188 0.00519995)
(-0.0324487 -0.0191985 0.00427005)
(-0.04951 -0.0209371 0.00384042)
(-0.0781559 -0.021927 0.00255668)
(-0.0902994 -0.00765458 4.03632e-05)
(-0.126091 -0.0105026 -0.00362538)
(-0.110978 -0.0155002 0.00271797)
(-0.158734 -0.0332314 -0.0150723)
(-0.107744 -0.0213848 -0.0138645)
(-0.0372946 -0.0231955 -0.0324486)
(-0.0744277 -0.00365288 -0.0162665)
(-0.0706561 -0.00299713 -0.0327021)
(-0.0964619 0.00373583 -0.0430311)
(-0.0875939 0.0116948 -0.0538565)
(-0.078743 0.0228019 -0.058551)
(-0.0434796 0.0348353 -0.0551693)
(-0.0132653 0.0434845 -0.0501924)
(0.0362099 0.0584642 -0.0326928)
(0.0864955 0.04507 -0.0351021)
(0.122936 0.038457 -0.0243243)
(0.136077 0.028232 -0.0108969)
(0.132811 0.0134129 -0.00411201)
(0.114681 0.0052171 0.00296196)
(0.0906597 -0.00298623 0.00514778)
(0.067409 -0.00618159 0.00905468)
(0.0438399 -0.005669 0.00940425)
(0.0241508 -0.00365968 0.00831212)
(0.00508735 -0.00238368 0.00637288)
(-0.0104285 0.0152129 -0.00851673)
(0.00173905 -0.00684891 -0.00880373)
(0.0134297 -0.000785213 -0.00429712)
(0.0223173 0.0011294 -0.00256261)
(0.0263761 0.00344474 -0.00273721)
(0.0273753 0.00398957 -0.00244678)
(0.0269589 0.00623014 -0.0039797)
(0.0211877 0.00710448 -0.00330167)
(0.014889 0.0114078 -0.00727396)
(-0.000863256 0.0142098 -0.00451974)
(-0.0215899 0.0187102 -0.0096417)
(-0.0556223 0.0255143 -0.000152671)
(-0.0951612 0.0332863 -0.00561268)
(-0.142169 0.0496032 -0.00821081)
(-0.190198 0.0623603 -0.0129482)
(-0.241136 0.0706914 -0.0187664)
(-0.298586 0.077585 -0.0447554)
(-0.391246 0.0773264 -0.0610157)
(-0.424854 0.0835634 -0.0783143)
(-0.49372 0.0856585 -0.0913399)
(-0.414585 0.117262 -0.0824202)
(-0.316014 0.139319 -0.120732)
(-0.339656 0.189181 -0.123345)
(-0.324628 0.20795 -0.138271)
(-0.323117 0.232094 -0.150818)
(-0.281253 0.252988 -0.159042)
(-0.236604 0.274666 -0.161635)
(-0.165699 0.291777 -0.151361)
(-0.0948427 0.300978 -0.131112)
(-0.0296099 0.308023 -0.108046)
(0.0381832 0.289485 -0.0664082)
(0.111937 0.253742 -0.0463975)
(0.142027 0.203188 -0.035466)
(0.154548 0.153985 -0.0247739)
(0.145776 0.105595 -0.00974557)
(0.121488 0.0655246 -0.00246567)
(0.0977118 0.0386014 0.00231856)
(0.0690719 0.0243117 0.00311104)
(0.0411333 0.0155253 0.00374872)
(0.0105252 0.00836148 0.00479903)
(-0.00186927 0.0156755 -5.9295e-05)
(0.00857605 -0.00460702 -0.00465896)
(0.0195618 -0.000518369 -0.00527785)
(0.0278345 0.00581525 -0.00562235)
(0.0295124 0.013134 -0.00729342)
(0.0280837 0.0217216 -0.0082125)
(0.0221135 0.0333751 -0.00978789)
(0.00925202 0.0467329 -0.00955928)
(-0.00818062 0.0657257 -0.00366251)
(-0.039784 0.0829258 -0.00595141)
(-0.0733073 0.106741 -0.00899382)
(-0.120858 0.134792 -0.0131769)
(-0.169855 0.165855 -0.0185654)
(-0.240051 0.19288 -0.0324849)
(-0.321382 0.212489 -0.0378943)
(-0.410089 0.225316 -0.0452556)
(-0.478523 0.230635 -0.0634774)
(-0.555613 0.245158 -0.0825896)
(-0.580895 0.279193 -0.100322)
(-0.636661 0.317226 -0.111611)
(-0.53777 0.351944 -0.0932356)
(-0.410704 0.396809 -0.121961)
(-0.41591 0.452209 -0.11487)
(-0.389618 0.480669 -0.117924)
(-0.37956 0.511853 -0.122932)
(-0.332498 0.531309 -0.123391)
(-0.286985 0.545306 -0.119402)
(-0.220394 0.547024 -0.104887)
(-0.159921 0.538498 -0.0822674)
(-0.0958701 0.516922 -0.0587972)
(-0.0446399 0.493754 -0.0375528)
(0.000279047 0.438455 -0.0244757)
(0.0378561 0.36674 -0.00963973)
(0.0647776 0.29399 -0.00717696)
(0.0707903 0.21973 -0.00728488)
(0.0707475 0.15738 -0.00816726)
(0.0676565 0.110133 -0.00364638)
(0.0542386 0.0767022 -0.00167089)
(0.0375479 0.0507398 0.00148003)
(0.0116747 0.0267957 0.0044186)
(-0.00038313 0.015983 0.000597926)
(0.010116 -0.000720623 -0.00438734)
(0.0208504 0.0068081 -0.006156)
(0.0251653 0.0211125 -0.00859234)
(0.024728 0.0415071 -0.0091449)
(0.0204026 0.0632157 -0.0105493)
(0.0100812 0.0918925 -0.00668058)
(-0.00911196 0.124375 -0.00678241)
(-0.0384655 0.160448 -0.0110233)
(-0.080448 0.197247 -0.013576)
(-0.123761 0.238028 -0.0192611)
(-0.184599 0.273744 -0.0260558)
(-0.257958 0.302526 -0.0294407)
(-0.340764 0.314718 -0.0304468)
(-0.414497 0.332857 -0.0338261)
(-0.484897 0.352483 -0.0400148)
(-0.537993 0.382306 -0.0568178)
(-0.600351 0.410974 -0.0672241)
(-0.612669 0.459042 -0.0778397)
(-0.660099 0.507975 -0.0747618)
(-0.543664 0.534711 -0.0315425)
(-0.393904 0.572246 -0.0434803)
(-0.390087 0.608452 -0.0292226)
(-0.36303 0.613117 -0.0248661)
(-0.354424 0.625657 -0.0243916)
(-0.316397 0.623131 -0.0211149)
(-0.282363 0.61446 -0.0178471)
(-0.23205 0.592343 -0.0103139)
(-0.188252 0.565125 0.00154796)
(-0.143176 0.530204 0.00882714)
(-0.114842 0.489602 0.0135189)
(-0.0866005 0.446339 0.0119679)
(-0.0627781 0.389954 0.00591069)
(-0.0355873 0.325306 -0.00147812)
(-0.0135529 0.259349 -0.00382447)
(0.00576063 0.198343 -0.00509231)
(0.0230652 0.14615 -0.00490299)
(0.0274145 0.111775 -0.00522065)
(0.027239 0.0761779 -0.000285772)
(0.0104742 0.0391924 0.00379222)
(-0.000600097 0.0178881 -0.000655816)
(0.0111864 0.0108175 -0.00580537)
(0.0257625 0.0273957 -0.0105644)
(0.0330522 0.0580449 -0.0103109)
(0.0297047 0.0915377 -0.0109463)
(0.0212009 0.134149 -0.0144788)
(0.00646206 0.18203 -0.0108914)
(-0.0221375 0.233354 -0.00798409)
(-0.0594639 0.286062 -0.00912222)
(-0.108126 0.331238 -0.0117113)
(-0.161554 0.366725 -0.0152742)
(-0.231614 0.385396 -0.0179883)
(-0.303025 0.403822 -0.0193651)
(-0.37114 0.42246 -0.0219711)
(-0.427733 0.448724 -0.0234657)
(-0.487301 0.477205 -0.0266494)
(-0.527139 0.5071 -0.0319334)
(-0.571346 0.537714 -0.0305268)
(-0.562476 0.598152 -0.0244291)
(-0.596063 0.646735 -0.0265248)
(-0.477674 0.670422 0.0206985)
(-0.320561 0.684907 0.0200069)
(-0.316685 0.689438 0.0387863)
(-0.298926 0.65709 0.0399169)
(-0.304194 0.641702 0.0392057)
(-0.285436 0.613113 0.0426527)
(-0.27136 0.581745 0.0457883)
(-0.239431 0.542054 0.0511032)
(-0.215751 0.50045 0.0443417)
(-0.189399 0.458938 0.0351571)
(-0.170033 0.413842 0.0245473)
(-0.157008 0.380413 0.0152635)
(-0.148297 0.344362 0.00892556)
(-0.126107 0.313293 -0.00184946)
(-0.101698 0.271421 -0.00932006)
(-0.0699856 0.206724 -0.0111357)
(-0.0269538 0.159155 -0.00970007)
(-0.0013257 0.129115 -0.00926003)
(0.0122668 0.0944572 -0.00187971)
(0.00865084 0.0464057 0.00356721)
(0.00118969 0.0251032 -0.00187797)
(0.0172998 0.0309034 -0.00917522)
(0.0386081 0.0626388 -0.0110503)
(0.0431724 0.112249 -0.0120958)
(0.0394134 0.164113 -0.0180646)
(0.0323754 0.222992 -0.0174184)
(0.0132811 0.290052 -0.0117664)
(-0.0174399 0.344361 -0.00530348)
(-0.0659234 0.388375 -0.00727243)
(-0.130422 0.417317 -0.00989457)
(-0.196959 0.440168 -0.0125915)
(-0.260031 0.458322 -0.01268)
(-0.312242 0.481858 -0.0112874)
(-0.363685 0.506523 -0.00819606)
(-0.40147 0.531222 -0.00309518)
(-0.443055 0.555375 0.000622323)
(-0.4616 0.584122 0.00307651)
(-0.475332 0.614807 0.00632381)
(-0.457929 0.668622 0.0038543)
(-0.480952 0.708595 0.0119796)
(-0.366227 0.717037 0.055638)
(-0.231405 0.685142 0.0586708)
(-0.246558 0.657959 0.0780824)
(-0.24898 0.593058 0.083256)
(-0.266686 0.55728 0.0831569)
(-0.267281 0.513992 0.0805715)
(-0.268628 0.475021 0.0773126)
(-0.256781 0.432801 0.0689322)
(-0.244845 0.388091 0.0636898)
(-0.232366 0.348767 0.0440391)
(-0.223671 0.307397 0.0309818)
(-0.208135 0.274645 0.0177403)
(-0.19439 0.251437 0.00404853)
(-0.177144 0.240271 -0.00357276)
(-0.176723 0.225532 -0.0155002)
(-0.143816 0.184978 -0.0124057)
(-0.0694151 0.150982 -0.0107235)
(-0.022389 0.127566 -0.00937328)
(0.00378151 0.0982808 -0.00365209)
(0.00546324 0.0461438 0.00497755)
(0.00366057 0.0329601 -0.00308147)
(0.0296461 0.0501864 -0.0118066)
(0.0636684 0.0905672 -0.0143416)
(0.0753535 0.149564 -0.016946)
(0.0672182 0.213565 -0.0242569)
(0.0596462 0.28348 -0.0207249)
(0.0293663 0.348481 -0.012546)
(-0.0280308 0.381194 -0.00246203)
(-0.0892612 0.413642 -0.00700734)
(-0.147389 0.440548 -0.00785673)
(-0.192774 0.471451 -0.00800364)
(-0.238378 0.503552 -0.005926)
(-0.276941 0.534317 -0.00214555)
(-0.314295 0.560408 0.00208018)
(-0.340884 0.586234 0.00763006)
(-0.364568 0.605288 0.0126512)
(-0.365317 0.629958 0.0214568)
(-0.37163 0.640305 0.0246039)
(-0.338279 0.657795 0.0265188)
(-0.352159 0.673062 0.0196938)
(-0.291667 0.670829 0.0541768)
(-0.179843 0.572951 0.0614981)
(-0.195413 0.539206 0.0763874)
(-0.212213 0.470547 0.0827914)
(-0.240693 0.438855 0.0814156)
(-0.258425 0.401734 0.0796007)
(-0.27526 0.373417 0.0756448)
(-0.280512 0.341431 0.0655931)
(-0.282756 0.30889 0.0496695)
(-0.282345 0.275519 0.0318415)
(-0.280311 0.244207 0.0158161)
(-0.268735 0.217031 0.00202736)
(-0.251647 0.196671 -0.00606964)
(-0.225681 0.184417 -0.010489)
(-0.219642 0.186199 -0.0158447)
(-0.188197 0.178606 -0.0178158)
(-0.103698 0.154439 -0.0164058)
(-0.0364932 0.133288 -0.0134065)
(-0.00042915 0.103949 -0.00676984)
(0.00600335 0.0492502 0.00351902)
(0.00522322 0.0437491 -0.00516422)
(0.0370412 0.0708621 -0.0158841)
(0.0819164 0.116824 -0.0163276)
(0.0982206 0.174232 -0.014015)
(0.0964896 0.234502 -0.0166993)
(0.080566 0.308945 -0.0117036)
(0.0253476 0.341082 -0.00181867)
(-0.0296989 0.374421 -0.000198439)
(-0.0719166 0.418037 -0.00249029)
(-0.118925 0.458179 -0.00154316)
(-0.15871 0.49398 -0.000986111)
(-0.196398 0.522618 0.00393352)
(-0.224767 0.545587 0.00954256)
(-0.24816 0.562644 0.0164943)
(-0.261523 0.577586 0.0206866)
(-0.275686 0.581974 0.0263306)
(-0.274497 0.586155 0.0304131)
(-0.277142 0.570071 0.030882)
(-0.253096 0.566944 0.0282928)
(-0.258956 0.529723 0.0142854)
(-0.247829 0.538344 0.0312165)
(-0.164871 0.419462 0.0440629)
(-0.163312 0.397263 0.0518062)
(-0.194073 0.347784 0.0632475)
(-0.22772 0.329035 0.0646216)
(-0.259504 0.305166 0.0663678)
(-0.285687 0.288528 0.0661897)
(-0.304007 0.2664 0.055581)
(-0.318532 0.244919 0.0417951)
(-0.326883 0.217987 0.0168943)
(-0.328409 0.191279 0.00688011)
(-0.315113 0.169816 -0.00455464)
(-0.298281 0.156527 -0.013917)
(-0.26567 0.149454 -0.0154485)
(-0.255404 0.154832 -0.0202214)
(-0.227309 0.175471 -0.0180125)
(-0.138839 0.155202 -0.0173931)
(-0.0541442 0.138125 -0.0121047)
(-0.00369105 0.106844 -0.00677995)
(0.0059834 0.049378 0.00452072)
(0.00400828 0.0614283 -0.00721283)
(0.0441912 0.101911 -0.0187162)
(0.1015 0.157 -0.0195619)
(0.124804 0.212238 -0.0138457)
(0.130578 0.274869 -0.0159792)
(0.0938964 0.329643 -0.0111649)
(0.0338748 0.357008 -0.00135093)
(-0.00168161 0.398855 0.00401126)
(-0.0414223 0.435979 0.00326609)
(-0.0834595 0.474802 0.00588494)
(-0.116977 0.499066 0.00931961)
(-0.146578 0.514823 0.0134551)
(-0.165345 0.525347 0.0218043)
(-0.180996 0.525335 0.0263678)
(-0.192018 0.517352 0.0290698)
(-0.202002 0.497574 0.0302234)
(-0.204201 0.477956 0.0297762)
(-0.208475 0.443002 0.0259572)
(-0.207218 0.422222 0.0192427)
(-0.205836 0.369017 0.00633726)
(-0.229372 0.378017 0.00295608)
(-0.178555 0.294696 0.0234573)
(-0.147387 0.279431 0.026978)
(-0.186677 0.256378 0.041514)
(-0.22248 0.249012 0.0469314)
(-0.26307 0.236428 0.0537041)
(-0.296869 0.227073 0.056823)
(-0.324939 0.212491 0.0484899)
(-0.34942 0.195747 0.0306678)
(-0.365512 0.170562 0.0127032)
(-0.367648 0.150773 0.00244193)
(-0.355724 0.132282 0.000279093)
(-0.33861 0.119173 -0.00632158)
(-0.305268 0.120869 -0.0165119)
(-0.272702 0.125792 -0.0246009)
(-0.249188 0.161003 -0.0260919)
(-0.1721 0.157528 -0.0200253)
(-0.0683609 0.145287 -0.0185861)
(-0.0078634 0.11208 -0.0088424)
(0.00756338 0.0524234 0.00275426)
(0.0031003 0.0808801 -0.00859427)
(0.0515338 0.141699 -0.0222464)
(0.120151 0.202109 -0.022906)
(0.152111 0.255317 -0.0157128)
(0.152446 0.313435 -0.0161369)
(0.110009 0.343075 -0.0103996)
(0.0555628 0.384364 -0.000836851)
(0.0222912 0.418705 0.00895399)
(-0.00653617 0.445131 0.0129419)
(-0.0405489 0.46783 0.0172739)
(-0.0747192 0.486069 0.0175801)
(-0.0995373 0.49074 0.0272296)
(-0.116413 0.48313 0.0324117)
(-0.132009 0.459764 0.0368176)
(-0.143105 0.429668 0.0367807)
(-0.155036 0.390553 0.0341341)
(-0.164269 0.353544 0.0288148)
(-0.171365 0.309935 0.0224153)
(-0.182499 0.281308 0.0129475)
(-0.179425 0.241974 0.00405358)
(-0.212589 0.239523 -0.00972943)
(-0.18132 0.208809 0.00915991)
(-0.136561 0.200606 0.0121412)
(-0.177007 0.193882 0.0271487)
(-0.212559 0.190081 0.036772)
(-0.259192 0.184196 0.0473418)
(-0.296171 0.176833 0.0530141)
(-0.332202 0.166584 0.0432235)
(-0.363739 0.149113 0.0321344)
(-0.380307 0.129053 0.0238549)
(-0.389301 0.106552 0.0213976)
(-0.384013 0.0867112 0.0210718)
(-0.365374 0.0701957 0.016554)
(-0.333688 0.0714945 0.00860618)
(-0.298733 0.0815073 -0.00577292)
(-0.269507 0.121716 -0.0230897)
(-0.19597 0.145918 -0.0202873)
(-0.0903058 0.140395 -0.0149103)
(-0.0135189 0.115182 -0.00796133)
(0.00850382 0.0531997 0.00391405)
(0.00409929 0.104767 -0.0097778)
(0.0605035 0.188132 -0.0279084)
(0.138944 0.25071 -0.027518)
(0.177985 0.302316 -0.0177803)
(0.170801 0.343461 -0.0129415)
(0.130175 0.368533 -0.0115734)
(0.088893 0.405698 -0.00108008)
(0.053395 0.434246 0.010863)
(0.0239589 0.452918 0.0206198)
(-0.00520954 0.461246 0.0248406)
(-0.0325829 0.461202 0.030234)
(-0.0590761 0.453901 0.0371621)
(-0.0801191 0.43195 0.0409568)
(-0.0982738 0.393862 0.0424465)
(-0.113358 0.348265 0.0410218)
(-0.127566 0.299473 0.0353417)
(-0.141613 0.25781 0.0266932)
(-0.151806 0.218139 0.0180125)
(-0.167296 0.191309 0.00775401)
(-0.16714 0.169029 -0.00124356)
(-0.197993 0.159765 -0.01455)
(-0.168428 0.155839 0.00127101)
(-0.12302 0.152906 0.0046672)
(-0.162423 0.148281 0.0193036)
(-0.195295 0.144012 0.0318641)
(-0.243175 0.136728 0.0432282)
(-0.284452 0.132341 0.0482238)
(-0.323129 0.120257 0.0425468)
(-0.358276 0.105491 0.0429572)
(-0.386904 0.0826939 0.0445513)
(-0.404529 0.0575156 0.0448021)
(-0.408743 0.0392859 0.031358)
(-0.394486 0.0282666 0.0291986)
(-0.361736 0.0261445 0.0187742)
(-0.310506 0.0391869 0.00683277)
(-0.276003 0.0744624 -0.0117752)
(-0.213401 0.118269 -0.0225301)
(-0.102519 0.131558 -0.0161926)
(-0.0154832 0.111396 -0.00838557)
(0.00856753 0.0525674 0.00307676)
(0.00531053 0.12726 -0.00971145)
(0.066749 0.23034 -0.0306771)
(0.154885 0.296727 -0.0297324)
(0.194326 0.339742 -0.0158332)
(0.185607 0.36623 -0.00950754)
(0.153443 0.392443 -0.00790964)
(0.11789 0.417039 0.00194433)
(0.0834793 0.436928 0.0113519)
(0.0532985 0.446859 0.018092)
(0.0236662 0.445229 0.0314822)
(-0.00172223 0.433451 0.0393107)
(-0.0280188 0.408906 0.0430667)
(-0.0549887 0.376074 0.0449696)
(-0.0781895 0.328928 0.0444146)
(-0.0967435 0.27894 0.0398341)
(-0.111929 0.227832 0.0333575)
(-0.126719 0.187745 0.0226503)
(-0.137284 0.154888 0.0135624)
(-0.151795 0.133195 0.00394381)
(-0.154239 0.122999 -0.00443068)
(-0.179687 0.112683 -0.0146194)
(-0.145483 0.120586 -0.00149068)
(-0.103748 0.114351 0.00112238)
(-0.137369 0.106498 0.0153864)
(-0.167793 0.0984029 0.0282669)
(-0.213601 0.090445 0.039705)
(-0.252564 0.0839674 0.043385)
(-0.294682 0.0711108 0.0508826)
(-0.336398 0.0548103 0.0585667)
(-0.370701 0.0346935 0.0641178)
(-0.392313 0.0107738 0.0645536)
(-0.4016 -0.0165427 0.0579736)
(-0.404769 -0.0359596 0.0333346)
(-0.38513 -0.0371505 0.0258036)
(-0.346004 -0.0246057 0.0225541)
(-0.300777 0.016349 0.0150305)
(-0.226558 0.0771875 -0.0143584)
(-0.121747 0.114603 -0.0184168)
(-0.0227095 0.107333 -0.00799105)
(0.0112128 0.052497 0.00260486)
(0.00559591 0.148528 -0.00737202)
(0.0728032 0.271813 -0.0310825)
(0.164918 0.339907 -0.0301421)
(0.206074 0.370531 -0.0135576)
(0.204261 0.390326 -0.00316226)
(0.17615 0.412117 0.00116822)
(0.14337 0.426628 0.00456899)
(0.111159 0.435417 0.014136)
(0.0799086 0.437839 0.0225853)
(0.0503787 0.428813 0.0318997)
(0.0212526 0.406575 0.044105)
(-0.00689793 0.369539 0.0475641)
(-0.0355895 0.326035 0.0456618)
(-0.0651091 0.274677 0.041862)
(-0.0869487 0.222428 0.0360874)
(-0.102163 0.174072 0.028504)
(-0.115742 0.135875 0.0178763)
(-0.124689 0.108162 0.00911334)
(-0.13399 0.0896734 0.00153037)
(-0.136627 0.0838803 -0.00634781)
(-0.151474 0.073211 -0.0114749)
(-0.112112 0.0901955 -0.00236392)
(-0.0785575 0.0749293 -0.000232996)
(-0.106209 0.0622992 0.0122512)
(-0.130316 0.0486853 0.0237299)
(-0.172368 0.0422556 0.0327337)
(-0.211483 0.035165 0.0485141)
(-0.253667 0.0241003 0.0609084)
(-0.29446 0.00607155 0.0697986)
(-0.338665 -0.0193402 0.0712976)
(-0.384051 -0.0522481 0.0626176)
(-0.41953 -0.0877975 0.0508424)
(-0.423753 -0.120563 0.0363125)
(-0.40753 -0.13485 0.0111945)
(-0.359838 -0.120912 0.00016364)
(-0.308752 -0.0736271 0.00232127)
(-0.240365 0.0155016 0.0104111)
(-0.130652 0.071797 -0.0185457)
(-0.0262313 0.0896572 -0.00582108)
(0.0103811 0.0449789 0.00314225)
(0.00624203 0.159588 -0.00493669)
(0.0734399 0.300217 -0.0312248)
(0.165379 0.369232 -0.0309384)
(0.210885 0.393525 -0.0129088)
(0.219965 0.406035 0.00254132)
(0.197609 0.418846 0.0102384)
(0.162218 0.426876 0.0148943)
(0.131891 0.4284 0.0173299)
(0.102832 0.424071 0.0258371)
(0.0696589 0.406835 0.0337862)
(0.0368688 0.377242 0.0413015)
(0.00510259 0.333057 0.0493665)
(-0.0266459 0.28163 0.0431875)
(-0.0581348 0.226522 0.0362095)
(-0.082491 0.176042 0.0298133)
(-0.0967524 0.13065 0.0224604)
(-0.10615 0.0953752 0.0130557)
(-0.110611 0.0695517 0.00569784)
(-0.11303 0.0517683 -6.21466e-05)
(-0.112669 0.0444011 -0.00611814)
(-0.110191 0.0346593 -0.00682645)
(-0.0708891 0.0542294 -0.00221598)
(-0.0524465 0.0284734 -0.000887004)
(-0.070372 0.0156818 0.0101919)
(-0.0862681 0.00214622 0.0180627)
(-0.117791 -0.00856561 0.0323685)
(-0.152399 -0.0188026 0.0458012)
(-0.197181 -0.0348274 0.0568233)
(-0.250901 -0.0570495 0.0624364)
(-0.307476 -0.0891762 0.0612031)
(-0.362753 -0.122309 0.0545443)
(-0.404456 -0.156158 0.0437505)
(-0.427667 -0.186816 0.0277669)
(-0.418701 -0.209858 0.0149277)
(-0.382327 -0.206548 -0.0082623)
(-0.316841 -0.169097 -0.00696375)
(-0.250199 -0.0751873 -0.00589654)
(-0.15373 0.0382276 -0.00290873)
(-0.030015 0.0709236 -0.0162933)
(0.0132205 0.0428823 0.00317507)
(0.00638969 0.169174 -0.000254032)
(0.0732678 0.322528 -0.0290962)
(0.163815 0.394636 -0.0315088)
(0.214703 0.416272 -0.0121135)
(0.232934 0.42078 0.00798635)
(0.215336 0.421802 0.0210909)
(0.183132 0.42418 0.0276031)
(0.15259 0.422843 0.030116)
(0.119638 0.412105 0.0316825)
(0.0848709 0.388981 0.0323446)
(0.0479416 0.353925 0.038685)
(0.0117967 0.305584 0.0431006)
(-0.0225297 0.249072 0.0392303)
(-0.0541068 0.19109 0.0290653)
(-0.0774703 0.139421 0.0218894)
(-0.0913193 0.0962141 0.0164904)
(-0.0963326 0.0616086 0.00867787)
(-0.0963349 0.0353173 0.00291395)
(-0.0911863 0.0172181 -0.000918024)
(-0.0841385 0.00427096 -0.00443447)
(-0.0629239 -0.00236956 -0.00182392)
(-0.0314856 -0.000645855 -0.00310501)
(-0.0235524 -0.0287689 -0.000252352)
(-0.0276451 -0.042126 0.00465)
(-0.0418643 -0.0601577 0.0132139)
(-0.0713354 -0.0715548 0.028763)
(-0.104913 -0.0887247 0.0423043)
(-0.149171 -0.10882 0.0494756)
(-0.200091 -0.130657 0.0535484)
(-0.258599 -0.15458 0.0524266)
(-0.318213 -0.183539 0.0479247)
(-0.374013 -0.218648 0.0385149)
(-0.411691 -0.255129 0.0257819)
(-0.422584 -0.284767 0.00861993)
(-0.392558 -0.296932 -0.00867881)
(-0.331343 -0.263036 -0.0211143)
(-0.240182 -0.186676 -0.0152033)
(-0.150991 -0.0370105 -0.00015813)
(-0.0490965 0.0402315 -0.0073086)
(0.0118626 0.0315399 0.000730198)
(0.00383411 0.155804 5.75623e-05)
(0.0659656 0.32081 -0.0289061)
(0.15606 0.399075 -0.0310437)
(0.211662 0.422333 -0.0116626)
(0.238114 0.422891 0.0113184)
(0.230688 0.418927 0.0248449)
(0.203595 0.41737 0.0328893)
(0.170408 0.408075 0.0372117)
(0.133832 0.391143 0.0371008)
(0.0944931 0.363193 0.0341732)
(0.0532434 0.321944 0.030824)
(0.0117834 0.271037 0.0308427)
(-0.0262018 0.210467 0.025995)
(-0.0580365 0.152408 0.018386)
(-0.0779058 0.103199 0.0128934)
(-0.0874474 0.0626061 0.00887919)
(-0.0884222 0.0300911 0.00420926)
(-0.0800038 0.00569921 0.000129234)
(-0.0693036 -0.0188006 -0.00334303)
(-0.0522962 -0.0401448 -0.00364001)
(-0.0272625 -0.0500775 -0.0028982)
(-0.00505596 -0.0719745 -0.00320486)
(0.00490541 -0.0933355 -0.000554747)
(0.00387068 -0.112265 0.00417858)
(-0.00350343 -0.131066 0.0132887)
(-0.0247972 -0.145181 0.0210526)
(-0.0569705 -0.157921 0.0299388)
(-0.0942505 -0.172729 0.0385136)
(-0.141245 -0.190484 0.0426951)
(-0.197377 -0.212286 0.0452139)
(-0.260203 -0.239239 0.04334)
(-0.322634 -0.274772 0.0382385)
(-0.373692 -0.315088 0.0266871)
(-0.402721 -0.355909 0.0113539)
(-0.392651 -0.3778 -0.00821891)
(-0.345942 -0.366168 -0.0237915)
(-0.254773 -0.288067 -0.0280883)
(-0.159052 -0.151699 -0.0140156)
(-0.051914 0.0022052 -0.012611)
(0.00950992 0.019422 0.00293786)
(0.00602627 0.14637 0.00750479)
(0.0664502 0.319181 -0.0202588)
(0.153312 0.402945 -0.0243922)
(0.214545 0.423997 -0.00374857)
(0.251028 0.420569 0.0193706)
(0.252213 0.411251 0.0289377)
(0.225248 0.402533 0.0374876)
(0.187896 0.387738 0.0400558)
(0.146034 0.368894 0.0390535)
(0.100626 0.338984 0.0335303)
(0.05446 0.2987 0.0270481)
(0.00848498 0.243774 0.0226834)
(-0.0307764 0.181777 0.0165222)
(-0.0564747 0.125666 0.0101716)
(-0.0720989 0.0787318 0.00410308)
(-0.0785467 0.0381188 0.0012734)
(-0.073733 0.00442276 -0.00188213)
(-0.0672275 -0.0287791 -0.00625834)
(-0.0563591 -0.0600045 -0.00486294)
(-0.0302273 -0.0877415 -0.00276168)
(-0.00604468 -0.112496 -0.00429056)
(0.0168041 -0.13895 -0.00488783)
(0.0315849 -0.159195 -0.00072626)
(0.0333083 -0.178146 0.00271958)
(0.0288597 -0.192982 0.00728969)
(0.0138466 -0.207697 0.0130844)
(-0.00976637 -0.216607 0.0192599)
(-0.0461391 -0.227721 0.025045)
(-0.0893489 -0.238552 0.0328853)
(-0.139223 -0.25878 0.0368039)
(-0.19973 -0.284538 0.0391137)
(-0.264243 -0.320397 0.0367261)
(-0.322911 -0.363589 0.0292548)
(-0.36486 -0.414312 0.0152725)
(-0.373223 -0.450939 -0.00340924)
(-0.34118 -0.455319 -0.020609)
(-0.261127 -0.39557 -0.0310335)
(-0.150937 -0.258427 -0.0246084)
(-0.0463097 -0.0709136 0.00181509)
(-5.78753e-05 0.00309796 0.00342864)
(-0.00223895 0.121738 0.000669574)
(0.048463 0.299787 -0.0241023)
(0.135101 0.39151 -0.0299422)
(0.205215 0.418764 -0.00705754)
(0.25607 0.416389 0.00924799)
(0.269563 0.401112 0.02513)
(0.24912 0.384513 0.032797)
(0.21051 0.36459 0.0334327)
(0.164312 0.341528 0.029443)
(0.112609 0.310105 0.0230584)
(0.0558198 0.264995 0.016408)
(-0.000913353 0.207888 0.0162114)
(-0.039352 0.151022 0.00919885)
(-0.0610835 0.0978271 -0.0013696)
(-0.0732062 0.0506716 -0.00765662)
(-0.0766872 0.00975214 -0.01033)
(-0.0740594 -0.0281891 -0.0118048)
(-0.063335 -0.0675226 -0.00911474)
(-0.0457206 -0.0981069 -0.0048971)
(-0.0204283 -0.132883 -0.00330177)
(0.00723404 -0.16585 -0.00761189)
(0.0351012 -0.193718 -0.0046168)
(0.0530672 -0.216858 -0.00106089)
(0.0590941 -0.234991 0.00152941)
(0.0596487 -0.251445 0.00365383)
(0.0507303 -0.265459 0.00634087)
(0.0319141 -0.274478 0.0093125)
(0.00553827 -0.284142 0.0143096)
(-0.0327594 -0.291011 0.0178958)
(-0.0829978 -0.305196 0.0247911)
(-0.137947 -0.323319 0.0310137)
(-0.199655 -0.357761 0.0326364)
(-0.263557 -0.403688 0.02832)
(-0.316234 -0.463546 0.0176471)
(-0.338282 -0.519107 -0.0019371)
(-0.329098 -0.552384 -0.0222811)
(-0.271294 -0.511202 -0.0380442)
(-0.169792 -0.374937 -0.0337461)
(-0.0457047 -0.168397 -0.0110532)
(0.0109128 -0.0267878 -0.000148681)
(-0.004803 0.127696 0.0083068)
(0.0377034 0.318553 -0.00898563)
(0.121663 0.416241 -0.0155689)
(0.1975 0.440275 -0.000737887)
(0.257333 0.43095 0.00855481)
(0.278327 0.403066 0.0239653)
(0.262534 0.382809 0.0311912)
(0.223575 0.371717 0.0321428)
(0.173536 0.359236 0.0279209)
(0.112379 0.332681 0.0214496)
(0.0464259 0.286155 0.0171254)
(-0.00765635 0.23356 0.0191275)
(-0.0427546 0.180814 0.0105143)
(-0.0625569 0.125144 -0.00187122)
(-0.0713281 0.0719062 -0.0113731)
(-0.0731854 0.016454 -0.0164559)
(-0.0699024 -0.0327353 -0.0175111)
(-0.0568584 -0.0779742 -0.0136258)
(-0.0406935 -0.119379 -0.00833077)
(-0.0165264 -0.158953 -0.0113934)
(0.0141067 -0.192579 -0.00948294)
(0.0457404 -0.225895 -0.00506088)
(0.0697281 -0.256605 -0.00302213)
(0.0788881 -0.283252 -0.0022419)
(0.0812999 -0.300543 -0.000268248)
(0.0786637 -0.31336 0.00180583)
(0.0677924 -0.321654 0.00285752)
(0.0459013 -0.332143 0.00483927)
(0.0154765 -0.339981 0.00855891)
(-0.0224707 -0.35401 0.0119433)
(-0.0742268 -0.369867 0.0152145)
(-0.137545 -0.401743 0.0183224)
(-0.204382 -0.448028 0.0188357)
(-0.267857 -0.520651 0.0111381)
(-0.312117 -0.600585 -0.00368769)
(-0.313219 -0.664945 -0.0210269)
(-0.25665 -0.657649 -0.0420888)
(-0.169359 -0.519592 -0.0480055)
(-0.0499201 -0.290401 -0.0196445)
(0.0105685 -0.0780549 0.0056414)
(-0.0191756 0.211397 -0.00619328)
(0.0105873 0.439988 -0.0210508)
(0.0908341 0.54689 -0.0247353)
(0.166922 0.578626 -0.0106208)
(0.234373 0.568086 0.00228137)
(0.276824 0.531117 0.0206393)
(0.291868 0.500207 0.0286673)
(0.268214 0.478391 0.0263224)
(0.208652 0.45073 0.0176076)
(0.124902 0.408043 0.00975477)
(0.0455758 0.354523 0.00790186)
(-0.0144155 0.297441 0.0087162)
(-0.0549044 0.237187 0.00128829)
(-0.0786829 0.16987 -0.0111394)
(-0.094251 0.0990742 -0.0241897)
(-0.0975879 0.0323687 -0.0282777)
(-0.0869751 -0.0261439 -0.0310656)
(-0.0697392 -0.079688 -0.0256559)
(-0.0478571 -0.129141 -0.0207805)
(-0.0159959 -0.167579 -0.0235458)
(0.0161301 -0.199158 -0.0193615)
(0.0451807 -0.231755 -0.0103617)
(0.0689691 -0.264886 -0.00489577)
(0.0887351 -0.296404 -0.00270572)
(0.105261 -0.317222 -0.00200411)
(0.109511 -0.330395 -0.00245546)
(0.099955 -0.339694 -0.00295096)
(0.0851496 -0.352345 -0.000534384)
(0.0595811 -0.365336 0.000688987)
(0.023867 -0.390609 0.00445674)
(-0.0198853 -0.419481 0.00800092)
(-0.0773533 -0.459341 0.00907959)
(-0.150986 -0.503589 0.00924744)
(-0.229399 -0.580436 0.0072889)
(-0.285974 -0.667306 -0.00171666)
(-0.310017 -0.757698 -0.0180869)
(-0.25735 -0.782563 -0.0334059)
(-0.180419 -0.692116 -0.0532076)
(-0.0558528 -0.400526 -0.0187692)
(0.0220543 -0.132348 0.00874955)
(-0.0112989 0.226784 0.00678901)
(0.0120644 0.466141 -0.0269096)
(0.0817263 0.587709 -0.0342891)
(0.161839 0.639755 -0.029493)
(0.228269 0.642139 -0.0199672)
(0.276014 0.615073 -0.00224022)
(0.295249 0.573942 0.00822427)
(0.260217 0.523977 0.0101087)
(0.188892 0.469699 0.00730695)
(0.103004 0.413788 0.00464848)
(0.0236795 0.360369 0.00480719)
(-0.035723 0.302305 0.00603722)
(-0.0805015 0.240868 -0.000380004)
(-0.11184 0.17002 -0.0107431)
(-0.121923 0.0980584 -0.0218202)
(-0.113971 0.0337416 -0.030954)
(-0.1003 -0.0271857 -0.0373598)
(-0.0805562 -0.0817922 -0.0372225)
(-0.0518897 -0.130521 -0.034194)
(-0.0125603 -0.171672 -0.0339471)
(0.0216705 -0.202655 -0.0295002)
(0.0500661 -0.230657 -0.0231548)
(0.0742002 -0.253768 -0.0150203)
(0.0959717 -0.275979 -0.00915247)
(0.118484 -0.292023 -0.00500906)
(0.13091 -0.299735 -0.0011949)
(0.12658 -0.29977 -0.000621026)
(0.110681 -0.305389 0.000969605)
(0.0827602 -0.31693 0.00337636)
(0.0514623 -0.344339 0.00838239)
(0.0155585 -0.38426 0.0127882)
(-0.0260942 -0.455299 0.0127254)
(-0.0901148 -0.540683 0.00916148)
(-0.166972 -0.655059 0.00538743)
(-0.239355 -0.770437 -3.93202e-05)
(-0.281298 -0.889451 -0.0106005)
(-0.258121 -0.939657 -0.0274871)
(-0.163829 -0.887441 -0.0411754)
(-0.0566486 -0.589666 -0.0470062)
(-0.0035502 -0.201815 0.0262845)
(-0.0071728 0.213983 0.0111532)
(0.0148083 0.435278 -0.0203265)
(0.0715889 0.561218 -0.0315041)
(0.142903 0.617797 -0.0283085)
(0.20702 0.623274 -0.017669)
(0.256128 0.601345 -0.00318561)
(0.277135 0.559172 0.00952674)
(0.246529 0.505608 0.01368)
(0.179227 0.455024 0.0136093)
(0.0950994 0.405031 0.0125804)
(0.0127743 0.356619 0.0104447)
(-0.0533919 0.306969 0.00930551)
(-0.10432 0.249958 0.00281529)
(-0.137225 0.186193 -0.00843188)
(-0.146284 0.121371 -0.0239201)
(-0.13936 0.0557443 -0.0356327)
(-0.120943 -0.00939369 -0.0452217)
(-0.0943734 -0.0639325 -0.0505949)
(-0.0623452 -0.113732 -0.050511)
(-0.0159399 -0.159663 -0.0454029)
(0.0266202 -0.195466 -0.0396343)
(0.0617386 -0.222706 -0.0333165)
(0.0905615 -0.240699 -0.0278857)
(0.117625 -0.252926 -0.0239111)
(0.149977 -0.258826 -0.018832)
(0.173094 -0.261539 -0.00997976)
(0.170702 -0.256251 -0.0039726)
(0.152573 -0.254057 -0.00268977)
(0.117946 -0.253404 -0.000671281)
(0.0740277 -0.267182 0.00654903)
(0.0169063 -0.290629 0.0153018)
(-0.0456537 -0.353304 0.0221083)
(-0.115568 -0.435519 0.0271804)
(-0.178993 -0.567417 0.028363)
(-0.225245 -0.727436 0.0224049)
(-0.257226 -0.902536 0.0134749)
(-0.243576 -1.02186 -0.00391045)
(-0.167147 -1.03715 -0.027984)
(-0.0295949 -0.815438 -0.0422303)
(0.030679 -0.357686 -0.00479254)
(-0.00456208 0.192297 0.00949721)
(0.019443 0.39138 -0.0131571)
(0.0733033 0.521603 -0.0239599)
(0.138586 0.584225 -0.0219715)
(0.199404 0.600332 -0.01077)
(0.246364 0.583688 0.00279007)
(0.262938 0.546128 0.0147039)
(0.229864 0.494792 0.0201773)
(0.163252 0.442816 0.0207596)
(0.0805408 0.39263 0.0200271)
(0.0018339 0.345847 0.0170907)
(-0.0643029 0.306315 0.0121805)
(-0.120561 0.258634 0.00497829)
(-0.157546 0.2062 -0.00587527)
(-0.168525 0.145076 -0.0204153)
(-0.161024 0.0807582 -0.0363403)
(-0.137512 0.0193612 -0.0480558)
(-0.105264 -0.0394939 -0.0596848)
(-0.0718111 -0.0857407 -0.062249)
(-0.022239 -0.131374 -0.0566727)
(0.0276184 -0.172646 -0.0486116)
(0.071861 -0.204221 -0.0414391)