/*--------------------------------*- C++ -*----------------------------------*\
| =========                 |                                                 |
| \\      /  F ield         | OpenFOAM: The Open Source CFD Toolbox           |
|  \\    /   O peration     | Version:  v1806                                 |
|   \\  /    A nd           | Web:      www.OpenFOAM.com                      |
|    \\/     M anipulation  |                                                 |
\*---------------------------------------------------------------------------*/
FoamFile
{
    version     2.0;
    format      ascii;
    class       vectorField;
    location    "0.053";
    object      currentcloudofpoints;
}
// * * * * * * * * * * * * * * * * * * * * * * * * * * * * * * * * * * * * * //


2409
(
(0.786293 1.35317 1.00245)
(0.735673 0.920264 1.00091)
(1.25518 1.35244 0.999531)
(0.978113 1.07381 0.766782)
(0.982591 1.07565 1.23305)
(1.09881 1.10064 1.00017)
(0.711383 1.48518 0.999073)
(0.654076 0.725406 1.0012)
(1.38481 1.51986 0.999815)
(1.00854 1.0862 0.586013)
(0.992267 1.09177 1.40371)
(1.24126 1.33715 1.08384)
(1.20229 1.29744 1.15316)
(1.13931 1.23903 1.20539)
(1.06358 1.15748 1.24783)
(1.24895 1.34653 1.04249)
(1.22327 1.3172 1.11931)
(1.17143 1.2687 1.1782)
(1.10076 1.20119 1.22709)
(1.02468 1.11212 1.24919)
(0.752768 0.925668 1.05408)
(0.800718 0.933056 1.09755)
(0.861234 0.953495 1.13297)
(0.921329 1.00858 1.1716)
(0.742093 0.924959 1.02731)
(0.777124 0.931008 1.0739)
(0.833258 0.939376 1.11428)
(0.895174 0.977854 1.14706)
(0.948974 1.04435 1.19743)
(1.23969 1.33696 0.914549)
(1.19928 1.2975 0.845754)
(1.13617 1.23875 0.795553)
(1.06124 1.15416 0.753312)
(1.24859 1.34586 0.956201)
(1.2206 1.31745 0.879449)
(1.16832 1.26901 0.821083)
(1.09872 1.199 0.774695)
(1.01914 1.10927 0.751803)
(0.921478 1.00674 0.828079)
(0.862051 0.953875 0.867294)
(0.800015 0.936337 0.90236)
(0.755548 0.925666 0.94737)
(0.948269 1.04323 0.802729)
(0.895382 0.97607 0.85219)
(0.833087 0.941861 0.88608)
(0.778249 0.932051 0.926654)
(0.744803 0.925092 0.974644)
(0.933506 1.1441 1.17325)
(0.870719 1.22684 1.15205)
(0.822763 1.29154 1.11332)
(0.795369 1.33367 1.08135)
(0.95908 1.1087 1.19057)
(0.903859 1.18232 1.16144)
(0.844443 1.2638 1.12771)
(0.807357 1.31203 1.0967)
(0.789038 1.34548 1.04396)
(0.794562 1.33435 0.921478)
(0.820286 1.29439 0.880473)
(0.868141 1.23026 0.844527)
(0.931241 1.14427 0.830271)
(0.788586 1.34468 0.961051)
(0.806082 1.31467 0.90022)
(0.841678 1.26697 0.867331)
(0.901151 1.18473 0.837673)
(0.956621 1.10736 0.81219)
(0.688937 1.03377 1.00068)
(0.671206 1.12041 1.00062)
(0.674959 1.19777 0.99983)
(0.709692 1.28344 0.999722)
(0.714326 0.981087 1.00214)
(0.682778 1.08053 0.999678)
(0.675432 1.15824 1.00068)
(0.689285 1.23961 0.999375)
(0.7453 1.31872 1.00108)
(0.88411 1.4002 1.00593)
(0.982158 1.41897 1.00622)
(1.08737 1.41459 1.00027)
(1.18085 1.39475 0.999578)
(0.834885 1.37686 1.00361)
(0.934381 1.4098 1.00729)
(1.03244 1.41549 1.00277)
(1.13826 1.40255 0.999535)
(1.21878 1.37931 0.999492)
(0.671278 0.744582 1.13298)
(0.712944 0.772514 1.24081)
(0.748364 0.804055 1.31267)
(0.788794 0.842211 1.35709)
(0.840842 0.887217 1.37143)
(0.892326 0.949508 1.3941)
(0.951855 1.01849 1.40492)
(0.657311 0.736886 1.0698)
(0.69347 0.755487 1.18877)
(0.731163 0.79157 1.27932)
(0.768487 0.822488 1.3365)
(0.815669 0.86483 1.36392)
(0.866083 0.915532 1.38051)
(0.925191 0.983741 1.39733)
(0.974622 1.05511 1.402)
(1.06663 1.15434 1.4122)
(1.14861 1.21433 1.38859)
(1.21203 1.27582 1.35434)
(1.26737 1.33909 1.31216)
(1.3227 1.39908 1.25059)
(1.35744 1.46182 1.17616)
(1.37861 1.50594 1.09177)
(1.02373 1.12365 1.40874)
(1.11003 1.18544 1.40023)
(1.18271 1.24299 1.3696)
(1.23836 1.30763 1.3326)
(1.29557 1.36664 1.28229)
(1.34107 1.42964 1.21311)
(1.36901 1.48449 1.13495)
(1.38243 1.51382 1.04619)
(0.673625 0.740984 0.865997)
(0.706975 0.770103 0.753627)
(0.746253 0.79955 0.683567)
(0.786235 0.839882 0.643441)
(0.837086 0.886814 0.622679)
(0.89111 0.948974 0.606918)
(0.951398 1.01724 0.592951)
(0.660255 0.729022 0.932339)
(0.689831 0.758505 0.807163)
(0.728042 0.784439 0.714807)
(0.767012 0.820402 0.663141)
(0.812449 0.862474 0.634083)
(0.863485 0.916145 0.615413)
(0.922899 0.982864 0.604183)
(0.981738 1.0514 0.589561)
(1.37813 1.50596 0.908324)
(1.35781 1.46265 0.823799)
(1.32313 1.39926 0.749543)
(1.26865 1.33833 0.687458)
(1.21269 1.27505 0.64441)
(1.14845 1.21531 0.612145)
(1.0743 1.15248 0.591995)
(1.38192 1.51369 0.953573)
(1.36896 1.48496 0.865238)
(1.34155 1.43039 0.786764)
(1.29645 1.36621 0.717895)
(1.23955 1.30662 0.666301)
(1.18265 1.2431 0.629827)
(1.1109 1.1856 0.603426)
(1.04111 1.11932 0.588548)
(0.713814 1.47519 1.12685)
(0.716253 1.45427 1.22422)
(0.741707 1.41226 1.30953)
(0.8 1.34467 1.37687)
(0.8544 1.28706 1.38829)
(0.901231 1.2292 1.39768)
(0.939084 1.16577 1.38778)
(0.712878 1.48246 1.06799)
(0.717133 1.46426 1.18177)
(0.727293 1.43518 1.2698)
(0.772646 1.37772 1.34915)
(0.829374 1.31337 1.38668)
(0.878916 1.26031 1.38528)
(0.918028 1.19784 1.39565)
(0.966424 1.13061 1.3935)
(0.713584 1.47446 0.872733)
(0.714934 1.45491 0.779849)
(0.746791 1.40989 0.688239)
(0.798701 1.34464 0.623775)
(0.855353 1.28679 0.615296)
(0.898853 1.23169 0.608002)
(0.955185 1.16309 0.597914)
(0.714895 1.47989 0.930181)
(0.714379 1.46545 0.821483)
(0.730146 1.43398 0.729879)
(0.773812 1.37725 0.651304)
(0.829921 1.3125 0.615134)
(0.879277 1.26075 0.617896)
(0.918841 1.19819 0.60503)
(0.986654 1.12621 0.586561)
(0.596568 0.80924 1.0008)
(0.564029 0.886865 1.00064)
(0.537993 0.975052 1.00093)
(0.527188 1.07303 0.99945)
(0.529671 1.17273 0.999678)
(0.554629 1.27207 0.999484)
(0.616768 1.3784 0.999788)
(0.620959 0.771387 1.00097)
(0.578736 0.849596 1.00069)
(0.551052 0.929008 1.00076)
(0.531285 1.02385 1.00012)
(0.527209 1.12239 0.999429)
(0.539518 1.2226 0.999392)
(0.58249 1.32349 0.999873)
(0.662573 1.43314 0.999299)
(0.806081 1.56307 0.998411)
(0.886217 1.61147 0.998996)
(0.973525 1.63793 1.00021)
(1.06565 1.63355 1.00091)
(1.14508 1.61756 1.00028)
(1.21807 1.59763 0.999646)
(1.2978 1.5653 0.999922)
(0.762448 1.52814 0.998931)
(0.849745 1.58896 0.998551)
(0.931415 1.62648 0.999458)
(1.02271 1.63623 1.00072)
(1.10747 1.62285 1.00072)
(1.1813 1.60419 0.999772)
(1.2558 1.58069 0.999771)
(1.34187 1.54177 0.999858)
(0.985319 1.08258 0.681521)
(1.00379 1.08413 0.623549)
(0.980838 1.07508 0.724826)
(0.996402 1.0783 1.32059)
(0.991399 1.07318 1.27792)
(0.996353 1.08537 1.3691)
(0.700028 0.814564 0.997297)
(0.720221 0.867585 0.998189)
(0.660575 0.767092 0.999955)
(1.32352 1.41893 0.999504)
(1.28669 1.38491 0.999642)
(1.3613 1.46289 0.999507)
(0.943829 1.54767 1.26699)
(0.961936 1.6091 1.17763)
(1.03429 1.32418 1.39133)
(1.1413 1.58867 1.16279)
(0.833772 1.57974 1.09349)
(1.06149 1.24486 1.40944)
(1.28942 1.54231 1.1389)
(1.21053 1.54298 1.22344)
(0.856571 1.5724 1.18874)
(1.04952 1.58329 1.21949)
(1.04403 1.62237 1.11906)
(0.839164 1.474 1.31143)
(1.1146 1.51847 1.27936)
(1.21022 1.58049 1.13369)
(1.03147 1.49613 1.31904)
(1.24789 1.58216 1.06605)
(1.12166 1.30965 1.39975)
(1.17995 1.60015 1.07549)
(0.777837 1.53173 1.15358)
(0.971575 1.24547 1.38954)
(0.945533 1.3355 1.39775)
(1.08965 1.41321 1.36048)
(1.27472 1.47324 1.24244)
(0.93967 1.62499 1.08778)
(0.778978 1.50204 1.23571)
(1.01165 1.40203 1.37602)
(1.245 1.41012 1.30569)
(1.18681 1.46554 1.31157)
(0.772025 1.53806 1.07722)
(1.00501 1.1857 1.40561)
(1.32072 1.54983 1.06002)
(0.943029 1.45276 1.35485)
(0.877121 1.37684 1.38363)
(1.18605 1.37458 1.35612)
(1.0075 1.63553 1.05198)
(1.11722 1.61364 1.07387)
(1.05702 1.2023 1.4135)
(1.09931 1.23087 1.40682)
(0.992349 1.14032 1.40479)
(1.02815 1.17129 1.41404)
(1.03351 1.21577 1.40677)
(1.13571 1.26236 1.39501)
(1.16865 1.29317 1.376)
(1.09489 1.27607 1.40498)
(1.19929 1.32499 1.3522)
(1.22651 1.35587 1.3296)
(1.15355 1.34172 1.37825)
(1.25562 1.37335 1.3064)
(1.28368 1.4009 1.27389)
(1.21492 1.39307 1.33178)
(1.30002 1.43314 1.24299)
(1.31364 1.46472 1.20605)
(1.2632 1.43829 1.27389)
(1.32425 1.50128 1.15897)
(1.3332 1.52223 1.11469)
(1.28226 1.5093 1.19457)
(1.35045 1.52862 1.07602)
(1.35415 1.5345 1.02992)
(1.30428 1.54587 1.09939)
(1.30938 1.55736 1.03017)
(0.865651 1.59628 1.04593)
(0.822485 1.57237 1.04986)
(0.804502 1.56025 1.087)
(0.79069 1.55194 1.03798)
(0.744286 1.51404 1.04339)
(0.960394 1.63039 1.04429)
(0.916622 1.61804 1.04618)
(0.89022 1.60403 1.09257)
(1.03879 1.63308 1.02719)
(0.991721 1.63682 1.02653)
(0.975429 1.63119 1.06991)
(1.1311 1.61373 1.03726)
(1.09326 1.62091 1.03761)
(1.06762 1.62059 1.06513)
(1.19835 1.59703 1.03798)
(1.16236 1.60575 1.03808)
(1.14884 1.60431 1.0756)
(1.27208 1.5728 1.03384)
(1.23249 1.58902 1.03265)
(1.21278 1.58958 1.07135)
(1.28262 1.5646 1.06439)
(0.900325 1.5614 1.23078)
(0.910482 1.59219 1.18514)
(0.951889 1.58028 1.22292)
(1.0071 1.59766 1.19981)
(0.996919 1.56852 1.24322)
(0.90276 1.60286 1.13956)
(0.95255 1.61891 1.1335)
(1.00593 1.61846 1.14836)
(1.0486 1.60478 1.17078)
(0.994085 1.62669 1.10374)
(1.05308 1.28494 1.39247)
(1.07953 1.31763 1.39337)
(1.02098 1.24536 1.39097)
(1.00496 1.28527 1.38677)
(1.0625 1.36598 1.3782)
(1.10492 1.36049 1.38088)
(0.989774 1.33061 1.39258)
(0.958702 1.29142 1.39314)
(1.0225 1.36062 1.38486)
(0.979654 1.36778 1.3883)
(1.05056 1.4062 1.36516)
(1.12926 1.59938 1.1197)
(1.16067 1.59181 1.12088)
(1.09581 1.60012 1.1449)
(1.08363 1.61383 1.09916)
(1.16199 1.5265 1.25548)
(1.13111 1.55561 1.22493)
(1.175 1.56497 1.19457)
(1.17558 1.5819 1.14995)
(1.21191 1.56286 1.17982)
(1.19438 1.58953 1.10445)
(1.09988 1.58115 1.1946)
(1.08385 1.5493 1.2505)
(0.818238 1.55347 1.17392)
(0.807078 1.55804 1.12414)
(0.846831 1.57772 1.14465)
(0.776327 1.53534 1.11847)
(0.74809 1.50445 1.14412)
(0.749033 1.49316 1.19255)
(0.74367 1.50849 1.10357)
(0.748508 1.4787 1.23194)
(0.759716 1.45826 1.27589)
(0.778853 1.51724 1.19758)
(0.792173 1.44323 1.31305)
(0.820196 1.40705 1.35102)
(0.808368 1.49017 1.27585)
(0.866532 1.32972 1.38922)
(0.839214 1.36101 1.38019)
(0.859631 1.42351 1.35457)
(0.89943 1.31413 1.39068)
(0.921216 1.28487 1.39194)
(0.913046 1.35608 1.39065)
(0.933327 1.2388 1.39544)
(0.953468 1.2068 1.38717)
(0.972454 1.1769 1.39186)
(0.990796 1.21582 1.3899)
(0.894722 1.51067 1.29281)
(0.945245 1.50101 1.31465)
(0.893581 1.46335 1.336)
(0.989655 1.47522 1.33852)
(0.991223 1.5226 1.29543)
(0.849909 1.52457 1.25526)
(1.03893 1.54138 1.27015)
(1.26813 1.56233 1.1037)
(0.910458 1.41437 1.37091)
(0.946174 1.38898 1.38217)
(0.980201 1.42745 1.36737)
(1.02201 1.44863 1.35184)
(1.02738 1.6281 1.08581)
(1.24869 1.56097 1.13968)
(1.25011 1.54065 1.18479)
(1.24214 1.50819 1.23953)
(1.22821 1.5794 1.10081)
(1.19865 1.50181 1.27136)
(1.14811 1.49095 1.29745)
(1.23362 1.46648 1.28028)
(0.820085 1.53756 1.21482)
(1.07296 1.50609 1.29737)
(1.06141 1.45155 1.34192)
(1.10301 1.46532 1.3251)
(1.13694 1.43963 1.33798)
(1.1379 1.39454 1.36176)
(1.18779 1.41911 1.33737)
(1.21751 1.4375 1.31244)
(0.660235 1.11221 1.36272)
(0.575426 1.19893 1.23348)
(0.595486 0.968471 1.22042)
(0.621893 0.904595 1.22666)
(0.604524 1.24193 1.28977)
(0.739443 1.15987 1.38038)
(0.644836 0.822067 1.19181)
(0.655352 1.39726 1.18881)
(0.861486 1.05143 1.39333)
(0.601728 1.16261 1.30239)
(0.649311 0.961942 1.309)
(0.591109 1.29359 1.19795)
(0.676716 1.21121 1.36421)
(0.794166 0.992261 1.37462)
(0.768357 1.25553 1.38455)
(0.687911 1.29828 1.34624)
(0.678138 0.871139 1.27528)
(0.874718 1.14575 1.39589)
(0.585004 0.883449 1.13025)
(0.542469 1.17296 1.1355)
(0.79743 1.1025 1.3764)
(0.647572 1.34764 1.26888)
(0.825233 1.20612 1.3773)
(0.540244 1.07787 1.12556)
(0.716483 0.979312 1.35636)
(0.721175 0.898623 1.3372)
(0.604129 1.06062 1.29253)
(0.663059 1.03177 1.35203)
(0.769866 0.921509 1.3658)
(0.722115 1.06333 1.37271)
(0.572137 1.04815 1.19841)
(0.576464 1.12303 1.2286)
(0.618359 0.798088 1.09838)
(0.923582 1.09514 1.39031)
(0.550585 0.982447 1.1026)
(0.618698 1.36771 1.09432)
(0.554534 1.2536 1.08809)
(0.610908 0.857424 1.16366)
(0.603122 0.89589 1.18314)
(0.632359 0.864559 1.20794)
(0.628528 0.81331 1.1483)
(0.599532 0.842481 1.11547)
(0.650277 0.888022 1.25036)
(0.664815 0.844941 1.23536)
(0.656301 0.784889 1.16441)
(0.679722 0.796987 1.21497)
(0.6423 0.774476 1.11671)
(0.695491 0.823763 1.25844)
(0.883415 0.999842 1.39374)
(0.915236 1.03425 1.3956)
(0.820345 0.941429 1.37476)
(0.844925 0.967757 1.38528)
(0.826863 1.01945 1.38142)
(0.94137 1.05691 1.3974)
(0.960778 1.09489 1.39513)
(0.895276 1.07236 1.39235)
(0.581912 1.24539 1.21918)
(0.60189 1.26834 1.25263)
(0.591888 1.2208 1.266)
(0.622297 1.321 1.24122)
(0.626665 1.29281 1.28515)
(0.640244 1.22749 1.33295)
(0.644822 1.27102 1.32216)
(0.684471 1.25268 1.35741)
(0.604436 1.20145 1.2988)
(0.636222 1.18778 1.33726)
(0.665084 1.32492 1.3114)
(0.592841 1.18151 1.27379)
(0.6087 0.936205 1.22456)
(0.590932 0.927173 1.17716)
(0.568961 0.932843 1.11603)
(0.575018 0.97737 1.16609)
(0.572052 0.882797 1.06639)
(0.587574 0.844141 1.06756)
(0.605761 0.801821 1.05001)
(0.555355 0.932451 1.0521)
(0.622348 1.34448 1.19925)
(0.652253 1.37273 1.23433)
(0.603969 1.33039 1.15249)
(0.63893 1.38339 1.14751)
(0.56434 1.22753 1.17225)
(0.573546 1.27457 1.1498)
(0.58409 1.30864 1.09373)
(0.725507 1.23324 1.37609)
(0.732365 1.27511 1.37163)
(0.754681 1.20843 1.37845)
(0.712395 1.1852 1.37623)
(0.670539 1.16191 1.36357)
(0.70205 1.13603 1.3743)
(0.629966 1.13767 1.33782)
(0.807609 0.904748 1.37052)
(0.783689 0.957332 1.36833)
(0.792055 1.04617 1.37218)
(0.828285 1.07662 1.38054)
(0.756598 1.02876 1.36781)
(0.758363 1.08261 1.37328)
(0.755482 0.986458 1.36306)
(0.742474 0.95176 1.35757)
(0.718416 1.0211 1.36255)
(0.785119 1.29809 1.38223)
(0.748398 1.32106 1.36397)
(0.812063 1.27171 1.38374)
(0.838942 1.24729 1.37942)
(0.797605 1.23175 1.37792)
(0.782254 1.18328 1.37437)
(0.717574 1.3523 1.33429)
(0.695923 1.38006 1.29478)
(0.90449 1.15548 1.39351)
(0.888093 1.18772 1.39644)
(0.853712 1.17588 1.38246)
(0.865208 1.2179 1.38391)
(0.927982 1.13085 1.386)
(0.893264 1.12059 1.3921)
(0.864261 1.09912 1.39104)
(0.838264 1.12292 1.3807)
(0.811922 1.15501 1.37299)
(0.623564 0.96595 1.26952)
(0.637687 0.935141 1.26904)
(0.60304 1.01559 1.2599)
(0.625642 1.01143 1.3039)
(0.560918 1.01543 1.15228)
(0.583816 1.0085 1.20945)
(0.592448 1.05608 1.25024)
(0.665235 0.918503 1.29093)
(0.687333 1.42595 1.21124)
(0.685153 1.43542 1.16103)
(0.666844 1.42257 1.1172)
(0.661709 1.42811 1.04978)
(0.682654 1.39955 1.25301)
(0.729397 1.11247 1.37542)
(0.694229 1.08859 1.36985)
(0.627287 1.08752 1.33284)
(0.605818 1.11178 1.30034)
(0.661648 1.07234 1.35754)
(0.629272 1.04783 1.32748)
(0.693705 1.04765 1.36333)
(0.632398 0.76273 1.05027)
(0.542128 0.977486 1.05189)
(0.53348 1.02595 1.05197)
(0.532315 1.17151 1.06658)
(0.529298 1.1214 1.06778)
(0.529084 1.0737 1.06155)
(0.544557 1.02992 1.11476)
(0.540972 1.12521 1.13292)
(0.554558 1.26195 1.04326)
(0.538819 1.21304 1.04322)
(0.545826 1.2137 1.11337)
(0.617508 1.37291 1.04833)
(0.584825 1.31836 1.04773)
(0.712921 0.84209 1.2951)
(0.756072 0.870787 1.34905)
(0.735301 0.852965 1.32596)
(0.699436 0.887874 1.30798)
(0.780619 0.882463 1.36284)
(0.745436 0.909771 1.35231)
(0.768225 1.13271 1.37495)
(0.684739 0.933451 1.32113)
(0.577306 1.16125 1.2338)
(0.594058 1.14433 1.27112)
(0.594936 1.09207 1.26407)
(0.71893 0.939952 1.34548)
(0.681829 0.971507 1.3371)
(0.655291 0.997193 1.33233)
(0.690522 1.00591 1.35383)
(0.560383 1.14821 1.18839)
(0.561981 1.18696 1.19083)
(0.557011 1.06318 1.16531)
(0.560474 1.10125 1.18299)
(0.575372 1.0857 1.21536)
(0.637966 1.02127 0.673585)
(0.63694 1.21137 0.662372)
(0.62898 0.97127 0.713469)
(0.616037 0.913241 0.779819)
(0.580225 1.25032 0.796362)
(0.778324 1.11787 0.625786)
(0.622364 1.34401 0.799323)
(0.862562 1.14378 0.611607)
(0.609312 1.05012 0.708422)
(0.587035 1.19182 0.727518)
(0.743837 0.970706 0.643817)
(0.693342 1.29824 0.651523)
(0.709709 1.15485 0.626159)
(0.617395 1.11413 0.673145)
(0.731613 1.07098 0.634228)
(0.610292 1.27738 0.723559)
(0.806004 1.20249 0.620654)
(0.662968 0.874541 0.7229)
(0.861283 1.04966 0.607477)
(0.638369 0.826054 0.818283)
(0.548786 0.948869 0.917205)
(0.548833 1.16356 0.848875)
(0.53938 1.04622 0.877251)
(0.583904 0.875235 0.88996)
(0.664854 1.35887 0.719566)
(0.581334 1.09861 0.756552)
(0.692273 0.93392 0.66804)
(0.583752 0.988646 0.798853)
(0.756987 1.24945 0.614282)
(0.566735 1.2855 0.902836)
(0.796802 1.00717 0.623469)
(0.618852 0.793095 0.911871)
(0.649232 1.40673 0.875575)
(0.676413 1.0456 0.641193)
(0.694931 1.22756 0.630631)
(0.931003 1.09217 0.598277)
(0.614021 1.08246 0.688885)
(0.628945 1.06808 0.671286)
(0.623854 1.03617 0.689132)
(0.63517 0.996736 0.692367)
(0.620887 1.01078 0.709662)
(0.654842 1.03318 0.655203)
(0.646165 1.0809 0.653399)
(0.659666 0.953585 0.687165)
(0.665944 0.978048 0.669595)
(0.684759 0.989907 0.655236)
(0.821584 1.08488 0.623641)
(0.823752 1.13041 0.625028)
(0.859062 1.09708 0.611665)
(0.791002 1.16088 0.625213)
(0.837059 1.17464 0.62359)
(0.828769 1.02634 0.615483)
(0.787738 1.06274 0.629896)
(0.754664 1.09409 0.631042)
(0.720895 1.1142 0.632574)
(0.745241 1.13711 0.62775)
(0.757865 1.17856 0.623955)
(0.764616 1.04025 0.635275)
(0.942662 1.12779 0.59749)
(0.975696 1.09095 0.588074)
(0.944808 1.05485 0.595802)
(0.618262 1.31009 0.755798)
(0.596589 1.26443 0.754338)
(0.600977 1.29575 0.793824)
(0.63817 1.31706 0.717546)
(0.644708 1.35259 0.754652)
(0.597475 1.31553 0.842276)
(0.576466 1.26816 0.844715)
(0.691272 1.40584 0.744405)
(0.670913 1.3992 0.779945)
(0.635486 1.37535 0.833156)
(0.686591 1.43186 0.81662)
(0.604554 1.34556 0.88364)
(0.889517 1.11735 0.605436)
(0.894773 1.07027 0.605859)
(0.854191 1.21754 0.621633)
(0.87908 1.18843 0.611633)
(0.902024 1.15306 0.60419)
(0.59662 1.0756 0.730876)
(0.602203 1.10923 0.709309)
(0.608727 0.981403 0.751602)
(0.600228 1.0219 0.748168)
(0.58446 1.0446 0.774901)
(0.88113 0.997989 0.6085)
(0.913244 1.03311 0.604808)
(0.843058 0.974113 0.612874)
(0.629711 1.16191 0.665894)
(0.605921 1.15366 0.695898)
(0.610137 1.20289 0.691834)
(0.587163 1.14526 0.737639)
(0.598225 1.23367 0.72201)
(0.583601 1.2215 0.756138)
(0.6233 1.24472 0.688005)
(0.573043 1.17936 0.776279)
(0.566278 1.20719 0.817218)
(0.565177 1.13111 0.794781)
(0.705481 1.0582 0.638658)
(0.737032 1.02089 0.642392)
(0.712063 1.00834 0.645316)
(0.770758 0.989435 0.636606)
(0.790493 0.931101 0.635262)
(0.767556 0.907641 0.647723)
(0.719814 0.951762 0.654774)
(0.74341 0.889399 0.662482)
(0.817125 0.948339 0.623635)
(0.666729 1.25362 0.654428)
(0.651752 1.28975 0.681954)
(0.6799 1.32872 0.680379)
(0.748878 1.32162 0.63545)
(0.723582 1.35071 0.664146)
(0.708011 1.38404 0.699721)
(0.726499 1.27297 0.627945)
(0.779152 1.29515 0.617273)
(0.694534 1.26187 0.63902)
(0.66735 1.21941 0.644744)
(0.726872 1.23844 0.621224)
(0.676984 1.18287 0.638693)
(0.663934 1.13491 0.644602)
(0.694585 1.10112 0.637609)
(0.783908 1.22608 0.618583)
(0.73323 1.20247 0.621878)
(0.70419 1.19079 0.627376)
(0.830138 1.24523 0.621169)
(0.807515 1.26855 0.61686)
(0.64554 0.924176 0.719494)
(0.637461 0.896447 0.749562)
(0.622895 0.943749 0.744054)
(0.625741 0.870813 0.800145)
(0.649535 0.851818 0.766563)
(0.683133 0.82348 0.737471)
(0.706188 0.838012 0.702099)
(0.669927 0.800947 0.783842)
(0.679562 0.904763 0.693309)
(0.721734 0.87041 0.67942)
(0.557289 1.22355 0.87243)
(0.600154 0.950834 0.790127)
(0.610788 0.85282 0.854483)
(0.600667 0.895063 0.834246)
(0.581852 0.932251 0.84547)
(0.68165 1.44112 0.871535)
(0.680084 1.44617 0.933841)
(0.570056 0.878022 0.943599)
(0.586442 0.840272 0.943194)
(0.604625 0.800135 0.955885)
(0.632485 0.758435 0.955442)
(0.60029 0.836 0.900416)
(0.541513 0.959175 0.958445)
(0.555466 0.914522 0.957839)
(0.566612 0.911328 0.903102)
(0.531289 1.05522 0.93826)
(0.534633 1.00625 0.93907)
(0.541982 0.997141 0.897094)
(0.533082 1.11592 0.924442)
(0.535991 1.16614 0.924719)
(0.543419 1.1057 0.860271)
(0.558445 1.27895 0.951217)
(0.54375 1.22928 0.95164)
(0.586584 1.33066 0.948819)
(0.632318 1.39368 0.933294)
(0.644801 0.768293 0.888332)
(0.6546 0.785402 0.840681)
(0.628766 0.810031 0.863823)
(0.564741 0.969444 0.855691)
(0.562553 1.01657 0.833954)
(0.563311 1.07438 0.810306)
(0.999077 1.60468 0.81309)
(0.921948 1.56717 0.759197)
(1.21904 1.57077 0.839859)
(0.993124 1.40977 0.619126)
(0.799041 1.54603 0.859237)
(1.29877 1.53748 0.863637)
(1.0649 1.25535 0.587019)
(1.07506 1.36314 0.617147)
(0.895237 1.5983 0.858369)
(1.00407 1.52644 0.708143)
(0.896285 1.47517 0.667833)
(1.00314 1.62954 0.916097)
(1.08662 1.48081 0.67794)
(1.01128 1.32026 0.602904)
(1.08951 1.56414 0.768187)
(0.976316 1.24989 0.605063)
(1.26894 1.50003 0.77741)
(0.946488 1.31353 0.604557)
(0.84343 1.58178 0.925958)
(1.25323 1.5802 0.932491)
(1.16507 1.60685 0.913425)
(1.17277 1.52495 0.740598)
(1.14817 1.31957 0.610093)
(0.815255 1.51846 0.752915)
(0.915583 1.61877 0.939217)
(1.14853 1.58504 0.824199)
(1.2022 1.36935 0.652)
(1.14787 1.42281 0.653232)
(0.779143 1.53547 0.922351)
(1.3235 1.54795 0.940087)
(1.01651 1.18522 0.587588)
(1.08148 1.61165 0.859397)
(1.09583 1.62472 0.937645)
(1.23858 1.42566 0.698127)
(0.810102 1.44351 0.675437)
(0.900068 1.36455 0.614003)
(1.31088 1.55623 0.969773)
(1.35525 1.53363 0.969925)
(1.35142 1.52763 0.924101)
(0.947587 1.6028 0.832501)
(0.90808 1.58633 0.807513)
(0.962807 1.58782 0.78469)
(0.965668 1.54741 0.730406)
(1.0043 1.56846 0.757125)
(1.00234 1.61546 0.863404)
(0.954273 1.61382 0.884219)
(1.04835 1.54324 0.737259)
(1.0484 1.58518 0.788282)
(1.04285 1.60739 0.834783)
(1.04404 1.61847 0.885828)
(1.08711 1.59184 0.812932)
(0.827925 1.57284 0.958927)
(0.867909 1.59752 0.962584)
(0.74804 1.51214 0.955891)
(0.79485 1.55018 0.960371)
(0.813878 1.55997 0.923121)
(0.902531 1.61559 0.967981)
(0.946544 1.62928 0.96945)
(0.881251 1.6014 0.932344)
(0.990564 1.63403 0.957492)
(1.03709 1.632 0.958034)
(0.961344 1.62558 0.926274)
(1.12184 1.62012 0.968548)
(1.08153 1.62872 0.96894)
(1.05245 1.62593 0.925672)
(1.1557 1.61065 0.956476)
(1.19164 1.59836 0.955198)
(1.13154 1.61322 0.92479)
(1.23554 1.58777 0.96639)
(1.2749 1.57131 0.965523)
(1.20775 1.59013 0.920915)
(1.28672 1.56249 0.935067)
(1.01012 1.13703 0.582608)
(0.989156 1.17439 0.594188)
(1.03888 1.16984 0.583145)
(0.756903 1.50299 0.815987)
(0.759531 1.51178 0.861431)
(0.791326 1.5403 0.887265)
(0.748031 1.50594 0.895812)
(0.767567 1.4875 0.762222)
(0.805447 1.53543 0.804496)
(0.871677 1.5898 0.889543)
(0.824435 1.56433 0.891443)
(0.849819 1.57446 0.856945)
(0.857726 1.56383 0.802909)
(1.25749 1.55278 0.84821)
(1.24332 1.53783 0.804503)
(1.28383 1.51914 0.819508)
(1.31167 1.47837 0.803306)
(1.32933 1.4997 0.843009)
(1.27537 1.55949 0.896386)
(1.31073 1.54287 0.901935)
(1.23562 1.57448 0.884962)
(1.33816 1.52026 0.886902)
(0.782108 1.46442 0.716101)
(0.805223 1.39224 0.645526)
(0.779712 1.42655 0.680688)
(0.812326 1.48196 0.711059)
(0.878244 1.32448 0.615298)
(0.850843 1.35414 0.619625)
(0.857264 1.40178 0.636297)
(0.922549 1.27374 0.609331)
(0.900981 1.30242 0.615049)
(0.925231 1.33895 0.610773)
(0.963239 1.2075 0.605375)
(0.93448 1.24171 0.605409)
(0.960105 1.28209 0.604657)
(1.00027 1.21804 0.603079)
(1.07787 1.41715 0.645596)
(1.03989 1.44436 0.649606)
(1.03365 1.38408 0.619753)
(1.00255 1.36166 0.607681)
(1.04402 1.34138 0.61088)
(0.979104 1.31755 0.603243)
(0.971414 1.35853 0.607621)
(0.948537 1.38901 0.616274)
(0.952474 1.50247 0.686299)
(0.949056 1.44209 0.641241)
(0.998788 1.46891 0.658966)
(1.04731 1.50156 0.692829)
(0.898556 1.41735 0.634013)
(0.869285 1.54386 0.7532)
(0.909507 1.52156 0.709949)
(0.855695 1.49833 0.705005)
(1.04171 1.28909 0.604003)
(1.07724 1.30939 0.605186)
(1.10984 1.28677 0.59602)
(1.11205 1.34238 0.61239)
(0.995387 1.28554 0.605273)
(1.02594 1.25354 0.603281)
(1.04025 1.22139 0.591057)
(1.10179 1.23719 0.591332)
(1.15172 1.26707 0.611452)
(1.0623 1.20659 0.586542)
(1.10978 1.39124 0.636206)
(1.11599 1.44977 0.665155)
(1.1464 1.36997 0.630088)
(0.909434 1.60701 0.89732)
(1.08771 1.52038 0.720763)
(0.853498 1.45988 0.670258)
(1.08905 1.61582 0.897724)
(1.12907 1.53994 0.754162)
(1.12963 1.50139 0.707863)
(1.16377 1.47404 0.691087)
(1.16015 1.55355 0.781322)
(1.11971 1.57307 0.794736)
(1.11601 1.59762 0.841219)
(1.20736 1.47646 0.710352)
(1.25715 1.4601 0.736451)
(1.22127 1.51125 0.753197)
(1.28062 1.40838 0.728725)
(1.2983 1.44634 0.766042)
(1.19672 1.54647 0.787646)
(1.19391 1.42531 0.67157)
(1.21976 1.39694 0.674702)
(1.175 1.39618 0.649301)
(1.25364 1.38011 0.695825)
(1.23576 1.35288 0.673867)
(1.19071 1.58867 0.876606)
(1.15688 1.59604 0.868117)
(1.1249 1.6051 0.884409)
(1.18331 1.57538 0.830063)
(1.17477 1.34468 0.63081)
(1.18244 1.29758 0.629717)
(1.2089 1.32237 0.6506)
(0.8459 1.05386 1.14054)
(0.727855 1.03494 1.07176)
(0.69566 1.15157 1.05825)
(0.850077 1.13961 1.15088)
(0.703176 1.24057 1.06521)
(0.79016 1.12829 1.12749)
(0.796164 1.01914 1.117)
(0.743424 1.11697 1.08609)
(0.742927 1.20844 1.09866)
(0.905912 1.08029 1.15734)
(0.686966 1.07327 1.03327)
(0.802691 1.20593 1.13222)
(0.755781 1.26897 1.09795)
(0.706889 1.00111 1.03481)
(0.741568 1.30406 1.05918)
(0.761498 1.32995 1.0309)
(0.766797 1.31853 1.06913)
(0.772968 1.30081 1.08883)
(0.787681 1.2803 1.10314)
(0.746948 1.28602 1.08049)
(0.765965 1.02305 1.0928)
(0.771905 1.06755 1.1014)
(0.741449 1.07285 1.07566)
(0.720641 1.09419 1.05614)
(0.722457 1.13509 1.06739)
(0.697174 1.1125 1.04145)
(0.708405 1.05554 1.05108)
(0.717666 1.01915 1.05305)
(0.697474 1.03912 1.03293)
(0.801451 0.973081 1.10644)
(0.766885 0.980329 1.08514)
(0.741041 0.981519 1.06326)
(0.730012 0.963791 1.04454)
(0.722732 1.1783 1.0715)
(0.722987 1.22459 1.08136)
(0.698811 1.19433 1.05801)
(0.687139 1.22059 1.03098)
(0.684521 1.17583 1.03213)
(0.747285 1.23834 1.09656)
(0.728832 1.25503 1.08148)
(0.704196 1.26307 1.03469)
(0.720168 1.27191 1.0619)
(0.724363 1.29523 1.03007)
(0.886884 1.02664 1.14619)
(0.913995 1.04345 1.16079)
(0.876311 1.06597 1.1466)
(0.944117 1.07743 1.18206)
(0.879882 1.10893 1.15036)
(0.848252 1.09767 1.14354)
(0.919924 1.11345 1.16181)
(0.893352 1.1405 1.15598)
(0.796584 1.07191 1.11975)
(0.768481 1.12134 1.10519)
(0.744529 1.16259 1.08669)
(0.767832 1.17066 1.10696)
(0.688373 1.05463 1.01651)
(0.681284 1.09875 1.01671)
(0.698303 1.01873 1.01755)
(0.685619 1.13724 1.02832)
(0.85616 1.00111 1.13369)
(0.822265 1.034 1.12819)
(0.818966 1.09093 1.1349)
(0.83012 0.982613 1.12316)
(0.819593 1.13379 1.14048)
(0.859434 1.18276 1.15201)
(0.809619 1.25021 1.11815)
(0.835546 1.21723 1.14224)
(0.826387 1.17403 1.14455)
(0.77737 1.2394 1.10466)
(0.721308 0.963651 1.01853)
(0.772815 1.20773 1.11059)
(0.795589 1.16765 1.12938)
(0.884147 1.35632 1.10438)
(1.15044 1.36336 1.10712)
(1.12069 1.39718 1.06012)
(1.08681 1.33282 1.1413)
(1.00382 1.32809 1.15563)
(1.03036 1.24417 1.19404)
(1.05801 1.37666 1.12093)
(1.02574 1.40648 1.0694)
(0.958381 1.2344 1.17881)
(1.19501 1.38191 1.05479)
(0.975028 1.37152 1.11919)
(0.928627 1.31346 1.13639)
(0.929523 1.40111 1.06992)
(0.852593 1.37935 1.05975)
(0.993262 1.16247 1.21363)
(1.07439 1.40212 1.06301)
(1.08918 1.38765 1.09057)
(1.04201 1.39189 1.09523)
(0.999145 1.3896 1.09605)
(1.01594 1.37535 1.12015)
(1.10527 1.3683 1.11066)
(1.12005 1.3471 1.12353)
(1.07421 1.35542 1.1314)
(1.13545 1.38032 1.08491)
(1.04375 1.33185 1.14804)
(1.03179 1.35399 1.13894)
(0.992093 1.35113 1.13697)
(0.823321 1.35679 1.06993)
(0.818776 1.36725 1.03084)
(0.853329 1.32491 1.105)
(0.839032 1.34568 1.0902)
(0.867347 1.36835 1.08416)
(1.17559 1.33274 1.12522)
(1.19635 1.35491 1.09571)
(1.17278 1.37297 1.08224)
(1.21841 1.36373 1.0686)
(1.22763 1.37219 1.02725)
(1.04189 1.19675 1.22141)
(1.07743 1.2407 1.19915)
(1.10495 1.28487 1.1618)
(1.1411 1.3147 1.14058)
(1.05498 1.29364 1.16151)
(1.02343 1.15581 1.2341)
(0.988429 1.11781 1.22071)
(1.01002 1.20113 1.20695)
(0.917526 1.22822 1.16208)
(0.945829 1.18573 1.17823)
(0.975396 1.19607 1.19174)
(0.964299 1.15204 1.19154)
(0.94301 1.27804 1.15406)
(0.898172 1.27236 1.14018)
(0.993358 1.23699 1.18602)
(0.97884 1.28524 1.16296)
(0.967316 1.32064 1.14553)
(1.01482 1.28849 1.16659)
(0.867995 1.39106 1.03328)
(0.876142 1.30412 1.11929)
(0.906986 1.335 1.11427)
(0.906531 1.37847 1.08872)
(0.891842 1.39038 1.06427)
(0.951402 1.38425 1.09354)
(0.931013 1.36251 1.10709)
(0.954056 1.34322 1.12645)
(1.18867 1.38862 1.02765)
(1.15813 1.38705 1.05713)
(1.15287 1.39508 1.03039)
(0.90746 1.4023 1.03897)
(0.956363 1.41192 1.0387)
(1.05734 1.41132 1.03458)
(1.00451 1.4136 1.03797)
(0.977337 1.40279 1.06877)
(1.10632 1.40644 1.02968)
(0.961638 1.25088 0.827106)
(1.16682 1.35322 0.882951)
(0.966185 1.39089 0.910643)
(1.04195 1.24277 0.804385)
(0.970442 1.34505 0.867873)
(1.08037 1.37255 0.879314)
(0.902469 1.28756 0.856123)
(1.03407 1.32001 0.844092)
(0.879535 1.35076 0.882288)
(1.1072 1.31716 0.845486)
(1.16455 1.38991 0.938179)
(0.992681 1.16293 0.791346)
(1.05623 1.40909 0.943854)
(0.8803 1.38913 0.946182)
(0.835631 1.34387 0.903453)
(0.849543 1.32432 0.883005)
(0.833175 1.37246 0.976136)
(0.837028 1.36331 0.933916)
(0.878507 1.37087 0.909478)
(0.891661 1.32187 0.874041)
(0.860712 1.29449 0.869582)
(0.88376 1.26026 0.850516)
(0.944376 1.1944 0.824909)
(0.976645 1.20538 0.813556)
(0.962648 1.1522 0.813829)
(1.01575 1.20026 0.794769)
(1.00115 1.2445 0.817566)
(1.00267 1.33249 0.8589)
(0.996298 1.28719 0.83863)
(0.967167 1.3024 0.857472)
(1.03697 1.28413 0.829059)
(0.916508 1.2383 0.837902)
(0.933039 1.26867 0.844738)
(0.938282 1.31656 0.866865)
(0.882533 1.39516 0.976742)
(0.926903 1.34775 0.878676)
(0.925276 1.37106 0.896001)
(0.969242 1.36868 0.887828)
(0.923773 1.39021 0.927865)
(0.984858 1.11677 0.781103)
(1.02142 1.15411 0.769209)
(1.04701 1.19404 0.779508)
(1.09749 1.34548 0.865317)
(1.07048 1.31948 0.846124)
(1.05941 1.34758 0.862)
(1.07306 1.28438 0.827439)
(1.02396 1.35975 0.874273)
(1.13867 1.33468 0.864172)
(1.12539 1.36181 0.884875)
(1.18226 1.32692 0.866278)
(1.15024 1.30844 0.846511)
(1.11542 1.2783 0.824543)
(1.08318 1.24037 0.799641)
(1.12342 1.3819 0.90919)
(1.16477 1.37262 0.910604)
(1.20051 1.3682 0.927643)
(1.20331 1.34845 0.897906)
(0.932889 1.40407 0.978587)
(1.07336 1.41308 0.972187)
(1.01902 1.4124 0.97492)
(1.00967 1.39915 0.92979)