/*--------------------------------*- C++ -*----------------------------------*\
| =========                 |                                                 |
| \\      /  F ield         | OpenFOAM: The Open Source CFD Toolbox           |
|  \\    /   O peration     | Version:  v1806                                 |
|   \\  /    A nd           | Web:      www.OpenFOAM.com                      |
|    \\/     M anipulation  |                                                 |
\*---------------------------------------------------------------------------*/
FoamFile
{
    version     2.0;
    format      ascii;
    class       volScalarField;
    location    "0.0675";
    object      p;
}
// * * * * * * * * * * * * * * * * * * * * * * * * * * * * * * * * * * * * * //

dimensions      [0 2 -2 0 0 0 0];


internalField   nonuniform List<scalar> 
64000
(
5.90567e-06
-0.0998914
-0.227004
-0.301357
-0.361762
-0.406039
-0.450972
-0.490481
-0.523134
-0.567373
-0.580811
-0.640682
-0.656747
-0.704486
-0.709019
-0.755931
-0.711094
-0.791421
-0.655366
-0.887576
-0.569815
-0.844752
-0.706035
-0.805537
-0.658805
-0.63336
-0.510264
-0.452863
-0.40929
-0.391523
-0.410831
-0.428799
-0.500569
-0.531365
-0.585851
-0.590511
-0.622777
-0.617273
-0.634099
-0.628317
-0.1084
-0.2075
-0.276932
-0.322033
-0.37171
-0.408608
-0.445216
-0.483041
-0.513814
-0.552707
-0.57262
-0.607838
-0.617353
-0.638759
-0.635588
-0.657716
-0.672784
-0.740612
-0.613532
-0.794093
-0.513596
-0.756773
-0.659522
-0.737673
-0.587206
-0.563868
-0.455217
-0.412648
-0.375318
-0.367364
-0.397098
-0.392685
-0.469696
-0.496097
-0.551325
-0.560145
-0.593117
-0.598046
-0.622308
-0.622415
-0.251214
-0.287085
-0.324243
-0.340307
-0.391242
-0.413173
-0.453724
-0.48006
-0.510004
-0.54477
-0.57265
-0.615802
-0.63302
-0.695516
-0.721139
-0.779329
-0.750408
-0.828667
-0.718057
-0.930073
-0.71426
-0.991336
-0.969424
-1.09037
-0.988403
-0.992415
-0.910483
-0.864347
-0.806351
-0.738063
-0.714312
-0.662405
-0.669899
-0.623908
-0.630427
-0.613509
-0.627255
-0.623765
-0.6392
-0.639054
-0.330482
-0.339873
-0.356433
-0.381778
-0.390377
-0.420885
-0.449428
-0.485049
-0.534179
-0.575868
-0.605892
-0.672907
-0.732987
-0.802118
-0.831697
-0.884796
-0.895307
-0.997957
-0.926065
-1.16157
-0.986104
-1.27306
-1.31164
-1.45332
-1.38029
-1.39296
-1.31054
-1.25405
-1.16848
-1.07036
-0.988256
-0.873696
-0.815331
-0.743932
-0.701076
-0.665506
-0.677843
-0.655354
-0.665259
-0.66478
-0.386111
-0.37881
-0.40632
-0.394991
-0.430815
-0.444616
-0.501749
-0.524563
-0.588404
-0.649067
-0.750726
-0.871829
-0.936306
-1.01971
-1.06872
-1.1473
-1.16619
-1.26444
-1.19704
-1.4389
-1.29707
-1.57767
-1.64076
-1.78761
-1.73691
-1.74461
-1.66608
-1.59197
-1.50218
-1.38226
-1.27295
-1.14079
-1.00986
-0.889499
-0.789112
-0.736351
-0.713217
-0.698787
-0.701454
-0.700516
-0.425754
-0.434999
-0.425976
-0.466716
-0.446329
-0.486754
-0.513211
-0.636188
-0.77791
-0.927353
-1.03401
-1.11152
-1.18005
-1.2463
-1.2873
-1.37335
-1.35259
-1.49145
-1.43043
-1.63976
-1.53368
-1.78276
-1.87155
-1.98817
-1.9436
-1.94278
-1.85852
-1.78994
-1.68163
-1.57397
-1.44312
-1.30612
-1.16982
-1.06389
-0.914576
-0.80775
-0.773183
-0.745615
-0.746257
-0.74764
-0.476883
-0.470644
-0.505613
-0.561256
-0.653743
-0.685
-0.857678
-0.963471
-1.08533
-1.16626
-1.26642
-1.35679
-1.43342
-1.51182
-1.55514
-1.61691
-1.62831
-1.70669
-1.66767
-1.85377
-1.80788
-1.93494
-2.0286
-2.11716
-2.08067
-2.07142
-1.99854
-1.93071
-1.83934
-1.72992
-1.59922
-1.45234
-1.2795
-1.14455
-0.999933
-0.857276
-0.806898
-0.782441
-0.785406
-0.790086
-0.550035
-0.523874
-0.566324
-0.641083
-0.732292
-0.822051
-1.03988
-1.09141
-1.25408
-1.36445
-1.48314
-1.57469
-1.66013
-1.7229
-1.77739
-1.83413
-1.83476
-1.90473
-1.84718
-1.99463
-1.99304
-2.01075
-2.11653
-2.18796
-2.16679
-2.15222
-2.08759
-2.03205
-1.94856
-1.85641
-1.73272
-1.5852
-1.42664
-1.25881
-1.13455
-0.942286
-0.873429
-0.837756
-0.839364
-0.848807
-0.578856
-0.561948
-0.628562
-0.727325
-0.857417
-1.02226
-1.18334
-1.29723
-1.42731
-1.5556
-1.6753
-1.77143
-1.86236
-1.93111
-1.99035
-2.04046
-2.05414
-2.08746
-2.0559
-2.08278
-2.13361
-2.08615
-2.1701
-2.23352
-2.22615
-2.21375
-2.15961
-2.11137
-2.05098
-1.96767
-1.84891
-1.70062
-1.54017
-1.34752
-1.20977
-1.02985
-0.917624
-0.887615
-0.88607
-0.901579
-0.655038
-0.637121
-0.717084
-0.833498
-0.993305
-1.17155
-1.33125
-1.44423
-1.59227
-1.69919
-1.84324
-1.93106
-2.02079
-2.086
-2.13901
-2.18591
-2.20102
-2.22068
-2.18463
-2.18341
-2.21356
-2.18305
-2.14028
-2.25704
-2.24966
-2.25803
-2.20975
-2.18653
-2.13481
-2.05702
-1.96321
-1.81874
-1.65861
-1.4761
-1.32258
-1.14567
-1.00937
-0.964207
-0.954701
-0.974392
-0.705481
-0.694791
-0.791577
-0.926418
-1.14284
-1.29547
-1.46417
-1.59846
-1.74357
-1.86404
-1.97548
-2.06053
-2.16659
-2.21124
-2.2638
-2.2897
-2.30937
-2.3152
-2.24072
-2.27941
-2.24953
-2.19772
-2.10201
-2.26372
-2.24751
-2.29423
-2.24619
-2.25047
-2.20637
-2.15231
-2.05213
-1.9287
-1.75976
-1.56195
-1.38115
-1.23538
-1.07673
-1.02097
-1.01096
-1.03445
-0.825113
-0.814672
-0.91458
-1.09101
-1.27836
-1.44607
-1.6085
-1.7444
-1.88612
-1.99165
-2.10404
-2.18244
-2.24368
-2.31178
-2.34744
-2.3707
-2.39518
-2.38992
-2.3369
-2.34022
-2.28639
-2.20518
-2.00504
-2.19412
-2.23181
-2.28884
-2.29064
-2.29109
-2.27618
-2.22676
-2.15057
-2.01204
-1.87017
-1.69166
-1.49517
-1.33616
-1.17341
-1.11495
-1.09003
-1.11853
-0.864797
-0.861194
-0.988263
-1.15547
-1.3587
-1.5276
-1.70223
-1.83674
-1.9829
-2.0901
-2.2052
-2.27224
-2.35786
-2.37459
-2.43896
-2.43357
-2.47081
-2.45068
-2.42146
-2.38411
-2.34262
-2.14102
-1.86689
-2.04439
-2.17528
-2.28347
-2.31158
-2.34256
-2.32918
-2.30058
-2.22112
-2.13651
-1.98338
-1.81862
-1.6066
-1.43984
-1.2544
-1.18331
-1.15555
-1.18197
-1.05192
-1.04926
-1.16129
-1.32708
-1.51163
-1.69439
-1.84583
-1.97544
-2.09715
-2.18921
-2.2812
-2.33986
-2.39167
-2.43267
-2.45703
-2.48622
-2.53152
-2.50629
-2.48411
-2.45552
-2.35822
-1.96326
-1.89878
-2.00951
-2.14043
-2.29746
-2.34605
-2.38508
-2.38055
-2.35374
-2.31879
-2.22115
-2.09263
-1.92309
-1.74164
-1.55319
-1.3837
-1.28788
-1.25829
-1.29312
-1.02536
-1.03014
-1.15382
-1.31656
-1.51653
-1.6979
-1.85841
-1.98089
-2.11493
-2.20797
-2.31931
-2.38722
-2.46598
-2.50097
-2.52937
-2.53669
-2.56339
-2.49327
-2.55274
-2.47072
-2.13878
-2.00497
-1.95737
-2.00906
-2.0914
-2.28481
-2.35263
-2.40304
-2.42985
-2.43802
-2.39553
-2.32127
-2.20118
-2.05282
-1.85559
-1.6718
-1.49381
-1.36029
-1.31825
-1.34392
-1.29244
-1.28435
-1.38832
-1.53424
-1.70924
-1.87604
-2.01674
-2.12987
-2.23936
-2.31837
-2.39471
-2.42253
-2.4647
-2.48018
-2.50034
-2.5089
-2.53143
-2.56411
-2.4719
-2.22694
-2.10869
-2.04969
-2.01969
-2.01602
-2.05936
-2.19434
-2.33063
-2.40234
-2.45325
-2.45443
-2.43624
-2.38286
-2.29989
-2.17482
-2.01106
-1.82992
-1.65372
-1.56488
-1.47904
-1.51937
-1.09503
-1.11804
-1.2379
-1.39842
-1.5937
-1.78107
-1.93157
-2.03282
-2.12982
-2.21069
-2.31474
-2.40118
-2.49388
-2.55595
-2.58206
-2.55509
-2.45395
-2.30346
-2.14202
-2.09416
-2.04757
-2.03844
-2.02794
-2.02185
-2.03432
-2.09863
-2.30271
-2.39557
-2.47665
-2.51144
-2.49112
-2.44286
-2.35922
-2.23906
-2.07604
-1.89946
-1.70674
-1.58136
-1.48621
-1.52234
-1.39033
-1.38218
-1.46217
-1.58154
-1.73402
-1.88052
-2.0347
-2.14998
-2.271
-2.36431
-2.42705
-2.38963
-2.34242
-2.26349
-2.17682
-2.05839
-2.00974
-1.966
-1.98788
-1.98035
-1.99757
-2.00968
-2.01884
-2.02252
-2.02439
-2.07324
-2.14058
-2.2875
-2.37443
-2.44089
-2.47371
-2.48911
-2.49952
-2.44363
-2.33979
-2.16734
-1.99587
-1.86907
-1.77183
-1.78799
-0.968494
-0.978291
-1.07712
-1.20527
-1.41099
-1.57775
-1.76061
-1.82067
-1.79558
-1.76292
-1.75373
-1.77852
-1.84467
-1.91588
-1.9521
-1.98992
-1.9835
-1.96027
-1.95498
-1.94873
-1.9557
-1.97212
-1.98518
-2.01194
-2.01449
-2.06061
-2.14236
-2.25512
-2.3948
-2.46658
-2.44185
-2.38344
-2.30252
-2.20233
-2.11665
-1.98852
-1.88838
-1.71605
-1.73511
-1.75488
-1.21566
-1.14178
-1.1718
-1.21376
-1.31893
-1.41305
-1.52159
-1.64807
-1.76911
-1.85748
-1.92359
-1.9395
-1.955
-1.96181
-1.96431
-1.94869
-1.94696
-1.93821
-1.90761
-1.91443
-1.93573
-1.94349
-1.97285
-1.97512
-2.01618
-2.04086
-2.12109
-2.16558
-2.1437
-2.15716
-2.34211
-2.5464
-2.7876
-2.81398
-2.77015
-2.61057
-2.41299
-2.26642
-1.94029
-1.93584
-1.03515
-1.03329
-1.07382
-1.15152
-1.29156
-1.41751
-1.55412
-1.64322
-1.72622
-1.78678
-1.84071
-1.87967
-1.91377
-1.94099
-1.95349
-1.96262
-1.95061
-1.92594
-1.92264
-1.89651
-1.91337
-1.93331
-1.94759
-1.97779
-2.0044
-2.05299
-2.10564
-2.15704
-2.19025
-2.16839
-2.13757
-2.02464
-1.97474
-1.99949
-2.12424
-2.13969
-2.1893
-2.17546
-2.2669
-2.23245
-1.16716
-1.15076
-1.17429
-1.22191
-1.32688
-1.43319
-1.55657
-1.66673
-1.76563
-1.84185
-1.90077
-1.92779
-1.95473
-1.97351
-1.97948
-1.96832
-1.95894
-1.93672
-1.94292
-1.91398
-1.94414
-1.92718
-1.97982
-1.98029
-2.03369
-2.06155
-2.12079
-2.1511
-2.20201
-2.19937
-2.23734
-2.228
-2.25631
-2.13287
-2.0028
-1.80414
-1.64153
-1.46659
-1.36084
-1.36246
-1.1203
-1.12363
-1.15359
-1.21242
-1.32533
-1.43805
-1.56583
-1.68511
-1.77923
-1.86111
-1.91334
-1.95737
-1.99215
-2.01037
-2.01606
-2.00091
-1.99408
-1.94721
-1.96503
-1.93796
-1.95319
-1.96652
-1.9796
-2.01764
-2.0499
-2.07965
-2.12437
-2.14514
-2.18808
-2.1825
-2.20965
-2.14913
-2.12635
-2.02433
-2.00946
-1.87974
-1.79901
-1.64232
-1.61007
-1.74159
-1.18043
-1.15932
-1.21505
-1.25701
-1.37178
-1.47268
-1.59765
-1.71024
-1.80909
-1.88362
-1.94627
-1.99776
-2.03611
-2.05385
-2.06327
-2.04023
-2.03856
-1.98594
-2.02228
-2.00488
-2.04182
-1.98904
-2.06122
-2.04553
-2.11057
-2.11649
-2.16631
-2.17129
-2.22006
-2.20166
-2.25503
-2.21854
-2.26253
-2.17343
-2.16679
-2.02709
-1.95628
-1.7822
-1.63892
-1.65892
-1.18581
-1.16712
-1.23081
-1.27194
-1.38554
-1.48977
-1.61687
-1.73792
-1.82381
-1.9147
-1.98501
-2.04061
-2.0822
-2.10115
-2.11484
-2.09053
-2.11038
-2.06444
-2.1457
-2.05013
-2.09333
-2.08484
-2.08829
-2.09754
-2.14234
-2.15456
-2.20055
-2.18994
-2.2334
-2.20355
-2.23459
-2.15848
-2.17207
-2.05799
-2.06782
-1.94112
-1.92685
-1.79428
-1.75792
-1.85637
-1.20836
-1.17386
-1.2414
-1.27994
-1.38585
-1.49383
-1.61803
-1.70768
-1.82429
-1.89932
-1.97707
-2.04145
-2.10248
-2.13028
-2.16326
-2.15407
-2.20271
-2.16652
-2.22074
-2.08291
-2.13393
-2.09854
-2.15073
-2.1292
-2.20545
-2.19234
-2.25921
-2.23274
-2.28735
-2.23155
-2.30337
-2.24905
-2.32618
-2.21054
-2.23625
-2.06026
-2.02658
-1.84505
-1.74231
-1.69274
-1.23313
-1.20729
-1.26264
-1.31341
-1.40961
-1.5107
-1.62582
-1.74443
-1.84514
-1.93353
-2.00922
-2.07001
-2.13009
-2.15838
-2.21313
-2.19294
-2.25999
-2.19074
-2.2797
-2.10952
-2.21136
-2.17037
-2.18982
-2.19804
-2.25895
-2.2481
-2.32957
-2.34132
-2.42369
-2.45328
-2.60162
-2.56567
-2.67337
-2.59484
-2.70636
-2.60652
-2.6541
-2.48589
-2.4457
-2.40616
-1.2177
-1.19791
-1.22377
-1.29103
-1.3804
-1.47446
-1.59643
-1.6962
-1.80378
-1.89035
-1.97971
-2.04739
-2.12244
-2.16053
-2.22826
-2.24646
-2.30882
-2.26512
-2.31913
-2.18078
-2.24723
-2.19714
-2.25539
-2.19682
-2.32904
-2.28053
-2.40537
-2.39497
-2.48407
-2.45193
-2.55301
-2.43218
-2.52674
-2.37981
-2.50948
-2.35466
-2.463
-2.27457
-2.33176
-2.24064
-1.25516
-1.24251
-1.26351
-1.31172
-1.41067
-1.49465
-1.61185
-1.72684
-1.82256
-1.9122
-2.00387
-2.07081
-2.15276
-2.18904
-2.28393
-2.26852
-2.39523
-2.29405
-2.41736
-2.22011
-2.29164
-2.20719
-2.29003
-2.2318
-2.32695
-2.24744
-2.42596
-2.3668
-2.53803
-2.45472
-2.5867
-2.43889
-2.54963
-2.37055
-2.49172
-2.30508
-2.38491
-2.13804
-2.10808
-1.97823
-1.2042
-1.19176
-1.21075
-1.23188
-1.34079
-1.39054
-1.52602
-1.62354
-1.74439
-1.83653
-1.94501
-2.02022
-2.11569
-2.16412
-2.26129
-2.28238
-2.37475
-2.33951
-2.42131
-2.25922
-2.2884
-2.25469
-2.31429
-2.22112
-2.37138
-2.18859
-2.36029
-2.44246
-2.58211
-2.45045
-2.60719
-2.38106
-2.54126
-2.29432
-2.48331
-2.17954
-2.30837
-1.96449
-1.94268
-1.79196
-1.25785
-1.25315
-1.26294
-1.27251
-1.36174
-1.43335
-1.53712
-1.63029
-1.7469
-1.84003
-1.95671
-2.03322
-2.14683
-2.18232
-2.31168
-2.28098
-2.4223
-2.36595
-2.45286
-2.30209
-2.29196
-2.26406
-2.31793
-2.20395
-2.38212
-2.09438
-2.51481
-2.39358
-2.66555
-2.42794
-2.68489
-2.40408
-2.57188
-2.2789
-2.45096
-2.13449
-2.2341
-1.83238
-1.72984
-1.47469
-1.17047
-1.1561
-1.18129
-1.15569
-1.22843
-1.29881
-1.40668
-1.484
-1.61756
-1.71254
-1.85003
-1.93453
-2.06628
-2.12152
-2.23472
-2.25827
-2.38691
-2.35388
-2.44515
-2.29711
-2.22599
-2.21683
-2.27024
-2.13109
-2.36597
-1.99526
-2.55353
-2.40812
-2.68528
-2.41417
-2.71676
-2.38322
-2.64245
-2.22367
-2.47403
-1.97539
-2.18159
-1.61958
-1.5185
-1.07842
-1.25295
-1.25484
-1.25404
-1.253
-1.2667
-1.33271
-1.4285
-1.4872
-1.61385
-1.70303
-1.84668
-1.93816
-2.07444
-2.12423
-2.28003
-2.28583
-2.43151
-2.40712
-2.46766
-2.3537
-2.2015
-2.20188
-2.24234
-2.07774
-2.34236
-1.91077
-2.55769
-2.44128
-2.75084
-2.40987
-2.77984
-2.38685
-2.69197
-2.26094
-2.49725
-1.96453
-2.09438
-1.46877
-1.25061
-0.604945
-1.11919
-1.0992
-1.12965
-1.07838
-1.11983
-1.11326
-1.26299
-1.28346
-1.43592
-1.52291
-1.68707
-1.77202
-1.95756
-2.03223
-2.19893
-2.23305
-2.38695
-2.38094
-2.42768
-2.32733
-2.0832
-2.09307
-2.1315
-1.95044
-2.23798
-1.80013
-2.4724
-2.47044
-2.77753
-2.47954
-2.81851
-2.35835
-2.72737
-2.16753
-2.53255
-1.81438
-2.02706
-1.05177
-0.917667
0.161498
-1.24306
-1.25733
-1.24497
-1.21543
-1.22844
-1.16075
-1.30134
-1.29678
-1.43519
-1.49565
-1.66578
-1.77604
-1.95958
-2.04463
-2.2296
-2.27007
-2.4339
-2.44938
-2.45991
-2.38751
-2.02429
-2.06376
-2.06087
-1.8502
-2.13576
-1.69307
-2.40285
-2.49786
-2.90122
-2.50128
-2.90222
-2.40537
-2.82255
-2.19333
-2.59628
-1.87263
-2.07274
-0.869249
-0.576166
1.03381
-1.10004
-1.02564
-1.08733
-0.967427
-1.03801
-0.909533
-1.07735
-1.04834
-1.20218
-1.29235
-1.4931
-1.6044
-1.83207
-1.93028
-2.15068
-2.21348
-2.38869
-2.426
-2.43188
-2.35266
-1.88389
-1.90808
-1.87858
-1.65546
-1.94019
-1.55425
-2.29304
-2.49176
-2.93625
-2.55036
-2.99572
-2.32169
-2.85951
-2.10224
-2.5002
-1.63449
-1.90642
-0.267555
0.126837
2.77747
-1.25038
-1.32586
-1.2302
-1.20945
-1.13953
-1.04699
-1.10169
-1.07355
-1.20303
-1.27328
-1.45457
-1.57535
-1.79703
-1.91493
-2.15218
-2.24504
-2.43873
-2.49945
-2.48317
-2.35067
-1.83591
-1.79792
-1.77401
-1.45547
-1.77634
-1.42067
-2.24687
-2.4497
-3.04177
-2.62381
-3.12587
-2.4526
-2.95333
-2.14411
-2.70935
-1.62232
-2.13243
-0.0189403
0.607398
4.5178
-1.48984
-1.0487
-1.1706
-0.828941
-0.917118
-0.714412
-0.818666
-0.816216
-0.95705
-1.03674
-1.24918
-1.37317
-1.62693
-1.76281
-2.02732
-2.1503
-2.36366
-2.46948
-2.44553
-2.25635
-1.73861
-1.54931
-1.50137
-1.19507
-1.52054
-1.27476
-2.19905
-2.38839
-3.05747
-2.65104
-3.15162
-2.44979
-2.88001
-1.97077
-2.47777
-1.05941
-1.53607
1.12617
2.44633
9.10976
-1.32361
-1.58897
-1.39638
-1.35262
-0.952688
-0.891016
-0.823794
-0.799045
-0.919653
-0.989766
-1.17082
-1.29464
-1.54044
-1.6795
-1.95563
-2.09923
-2.36165
-2.51543
-2.5927
-2.20504
-1.7661
-1.41799
-1.33721
-0.983021
-1.34167
-1.15203
-2.19036
-2.3072
-3.16454
-2.72388
-3.25886
-2.52169
-3.00122
-2.09382
-2.64425
-1.34924
-1.75728
1.75662
3.6304
12.8065
-3.81819
-1.06784
-1.38177
-0.918682
-0.838822
-0.603857
-0.665485
-0.646305
-0.789133
-0.872029
-1.08967
-1.21127
-1.46609
-1.60845
-1.89107
-2.06677
-2.39652
-2.57876
-2.55031
-2.1033
-1.69384
-1.16086
-1.0518
-0.742934
-1.22157
-1.19205
-2.29664
-2.36483
-3.28858
-2.75112
-3.22361
-2.42305
-2.8438
-1.92546
-2.27624
-0.61284
-0.109997
5.72894
10.8114
25.3699
-0.107402
-0.205167
-0.272095
-0.321294
-0.368842
-0.410444
-0.455043
-0.495195
-0.535628
-0.573174
-0.599949
-0.64943
-0.668369
-0.709918
-0.723435
-0.763848
-0.731717
-0.804206
-0.728151
-0.929005
-0.657373
-0.868601
-0.812624
-0.884788
-0.744965
-0.72193
-0.611512
-0.566851
-0.520323
-0.495101
-0.506965
-0.493923
-0.554869
-0.565513
-0.606404
-0.601837
-0.624234
-0.620281
-0.638197
-0.626957
-0.222495
-0.269224
-0.306867
-0.343212
-0.378042
-0.414642
-0.447479
-0.488689
-0.505731
-0.554645
-0.562889
-0.632473
-0.62799
-0.653726
-0.646023
-0.686159
-0.674196
-0.752751
-0.637979
-0.833787
-0.663587
-0.857569
-0.803573
-0.889854
-0.757695
-0.757276
-0.661641
-0.627303
-0.586313
-0.547172
-0.554102
-0.544373
-0.542712
-0.548356
-0.58818
-0.5855
-0.611108
-0.606981
-0.625717
-0.614132
-0.301502
-0.32042
-0.339174
-0.345314
-0.388717
-0.413002
-0.451748
-0.474546
-0.536089
-0.560693
-0.591404
-0.622791
-0.640421
-0.683571
-0.720893
-0.808252
-0.78742
-0.863614
-0.776844
-0.995011
-0.891942
-1.13186
-1.16334
-1.29297
-1.19994
-1.21271
-1.13397
-1.09137
-1.02781
-0.941763
-0.867124
-0.775491
-0.739142
-0.694962
-0.663815
-0.633399
-0.64389
-0.634023
-0.644858
-0.637792
-0.360518
-0.374169
-0.36938
-0.390612
-0.395109
-0.425213
-0.457316
-0.499929
-0.539015
-0.580276
-0.607394
-0.662797
-0.73027
-0.816961
-0.85412
-0.943521
-0.943858
-1.05228
-0.994857
-1.23787
-1.19773
-1.46657
-1.53707
-1.67557
-1.59294
-1.60105
-1.5098
-1.43919
-1.34387
-1.22036
-1.11292
-0.965796
-0.868028
-0.770843
-0.731667
-0.684759
-0.694801
-0.66733
-0.673034
-0.666011
-0.406342
-0.408828
-0.407032
-0.405675
-0.443127
-0.4409
-0.49933
-0.533816
-0.60125
-0.661648
-0.766169
-0.887055
-0.96451
-1.03891
-1.09439
-1.19568
-1.20968
-1.3216
-1.29916
-1.50687
-1.46217
-1.72782
-1.8182
-1.93939
-1.86373
-1.86504
-1.78083
-1.71152
-1.59322
-1.44923
-1.31212
-1.1702
-1.03227
-0.897532
-0.794811
-0.746384
-0.726425
-0.707347
-0.705134
-0.703499
-0.432814
-0.433613
-0.450374
-0.479417
-0.444837
-0.492477
-0.522835
-0.633461
-0.793905
-0.93892
-1.04442
-1.12491
-1.19742
-1.27009
-1.31853
-1.41906
-1.42449
-1.53605
-1.49105
-1.68533
-1.66697
-1.90038
-2.00701
-2.11491
-2.05663
-2.03165
-1.94212
-1.84314
-1.75567
-1.6077
-1.47103
-1.31511
-1.17787
-1.06103
-0.9138
-0.828044
-0.793496
-0.763609
-0.755609
-0.756519
-0.513561
-0.499432
-0.535816
-0.568739
-0.623818
-0.643045
-0.806106
-0.979626
-1.087
-1.17452
-1.27804
-1.37143
-1.45333
-1.52871
-1.58979
-1.64855
-1.66876
-1.74379
-1.71533
-1.85429
-1.86084
-2.01486
-2.09901
-2.19337
-2.13783
-2.11644
-2.03911
-1.95972
-1.84591
-1.72439
-1.58321
-1.42263
-1.26398
-1.12624
-0.999872
-0.870269
-0.819863
-0.795198
-0.788727
-0.794991
-0.543984
-0.551377
-0.60263
-0.664623
-0.742805
-0.806958
-1.03678
-1.11166
-1.26235
-1.37597
-1.4867
-1.59058
-1.6723
-1.75229
-1.80061
-1.85293
-1.85419
-1.90709
-1.87785
-1.95838
-1.98327
-2.04329
-2.13361
-2.22886
-2.20267
-2.18215
-2.12717
-2.04803
-1.96745
-1.83274
-1.70453
-1.5609
-1.40457
-1.24785
-1.11585
-0.971177
-0.898333
-0.865664
-0.853536
-0.860964
-0.600172
-0.613658
-0.668193
-0.760067
-0.870682
-0.99925
-1.18197
-1.30652
-1.446
-1.56385
-1.68373
-1.77749
-1.87219
-1.95161
-2.00832
-2.04869
-2.05426
-2.07022
-2.04014
-2.05237
-2.07961
-2.07628
-2.18292
-2.24509
-2.2522
-2.23634
-2.19409
-2.13043
-2.03418
-1.92924
-1.80793
-1.67074
-1.52278
-1.30967
-1.18407
-1.01391
-0.938099
-0.897006
-0.895705
-0.906183
-0.677364
-0.68569
-0.773791
-0.883541
-1.00063
-1.14866
-1.33304
-1.43743
-1.59364
-1.72491
-1.83313
-1.943
-2.02683
-2.10543
-2.16817
-2.208
-2.21397
-2.21176
-2.16998
-2.15077
-2.14983
-2.13577
-2.14302
-2.26509
-2.27461
-2.2876
-2.26191
-2.18884
-2.13418
-2.0227
-1.93939
-1.83785
-1.69105
-1.53714
-1.32595
-1.14437
-1.023
-0.990729
-0.968923
-0.98465
-0.732212
-0.745675
-0.840444
-0.95766
-1.18041
-1.27962
-1.46099
-1.58624
-1.73299
-1.87969
-1.9891
-2.08418
-2.17209
-2.22464
-2.30309
-2.33389
-2.34792
-2.33188
-2.28058
-2.23963
-2.19606
-2.14057
-2.09779
-2.26383
-2.27771
-2.32073
-2.29375
-2.26827
-2.18371
-2.14292
-2.07066
-1.91286
-1.76048
-1.55375
-1.40415
-1.21227
-1.06626
-1.03787
-1.02072
-1.03797
-0.85236
-0.866375
-0.969637
-1.14226
-1.3135
-1.45053
-1.59494
-1.73854
-1.8777
-1.98068
-2.11283
-2.1959
-2.26445
-2.31987
-2.38624
-2.42814
-2.44454
-2.42679
-2.38354
-2.33002
-2.24445
-2.1274
-1.97136
-2.15556
-2.25126
-2.32094
-2.34583
-2.28915
-2.2988
-2.25786
-2.13137
-2.0562
-1.91165
-1.77395
-1.58191
-1.39697
-1.15442
-1.11279
-1.10055
-1.12349
-0.904876
-0.923215
-1.05401
-1.22198
-1.40994
-1.54927
-1.71463
-1.81571
-1.98436
-2.08745
-2.21136
-2.26877
-2.38998
-2.39442
-2.47094
-2.4961
-2.52333
-2.50206
-2.47558
-2.40258
-2.29602
-2.03069
-1.824
-1.98443
-2.18383
-2.31336
-2.33999
-2.40012
-2.39592
-2.31239
-2.30535
-2.16976
-2.01877
-1.8081
-1.62451
-1.47182
-1.30455
-1.14803
-1.17139
-1.18387
-1.09107
-1.10862
-1.23343
-1.3948
-1.5717
-1.72149
-1.86975
-1.98515
-2.0992
-2.18054
-2.29541
-2.36483
-2.40599
-2.49237
-2.52725
-2.55602
-2.58555
-2.56709
-2.5445
-2.47634
-2.26591
-1.88978
-1.79183
-1.92577
-2.11623
-2.31898
-2.38001
-2.45583
-2.42141
-2.45894
-2.35489
-2.25924
-2.10795
-1.94706
-1.71713
-1.55983
-1.41173
-1.28486
-1.2385
-1.30289
-1.082
-1.10072
-1.2296
-1.39183
-1.58185
-1.743
-1.91308
-2.02106
-2.15077
-2.24154
-2.35608
-2.41568
-2.52736
-2.58642
-2.59766
-2.60404
-2.61766
-2.58959
-2.58722
-2.42933
-2.09334
-1.90492
-1.82133
-1.89224
-2.03457
-2.27386
-2.39587
-2.43954
-2.51124
-2.46972
-2.43451
-2.34633
-2.22536
-2.05549
-1.8492
-1.64145
-1.48781
-1.4182
-1.27285
-1.35454
-1.31134
-1.3233
-1.44621
-1.59357
-1.77304
-1.9296
-2.06373
-2.17814
-2.29716
-2.3809
-2.46469
-2.49325
-2.52871
-2.54047
-2.57777
-2.5844
-2.60915
-2.5921
-2.44208
-2.20416
-2.04221
-1.93746
-1.8731
-1.88127
-1.97462
-2.11831
-2.36126
-2.4705
-2.50547
-2.51299
-2.47832
-2.42342
-2.32594
-2.19037
-1.9993
-1.81277
-1.6327
-1.56655
-1.45206
-1.5096
-1.17851
-1.21031
-1.33225
-1.50594
-1.69642
-1.83507
-2.00426
-2.10707
-2.20989
-2.29179
-2.38812
-2.4566
-2.5311
-2.58567
-2.57395
-2.58662
-2.4668
-2.30311
-2.13491
-2.04561
-1.98814
-1.93709
-1.9017
-1.88713
-1.9693
-2.10906
-2.35882
-2.47097
-2.53712
-2.55349
-2.53919
-2.49124
-2.41441
-2.28636
-2.10987
-1.91318
-1.72397
-1.57759
-1.50976
-1.4865
-1.39161
-1.3977
-1.49623
-1.63161
-1.80106
-1.94093
-2.08764
-2.18718
-2.30162
-2.3761
-2.42671
-2.39367
-2.34403
-2.26967
-2.17722
-2.10737
-2.0092
-1.98725
-1.97215
-1.95719
-1.95357
-1.92802
-1.92162
-1.91086
-1.9431
-2.04994
-2.11822
-2.32566
-2.45562
-2.52721
-2.55356
-2.54738
-2.53393
-2.46562
-2.34092
-2.17179
-1.9649
-1.84293
-1.79444
-1.77756
-1.05291
-1.09862
-1.18261
-1.34631
-1.4765
-1.67099
-1.81238
-1.87973
-1.86323
-1.83712
-1.83022
-1.84058
-1.88071
-1.9273
-1.94387
-1.97847
-1.95374
-1.91305
-1.92065
-1.91226
-1.91832
-1.90652
-1.91095
-1.9242
-1.92735
-2.01583
-2.08376
-2.1596
-2.28453
-2.41226
-2.47617
-2.48084
-2.47578
-2.38347
-2.28002
-2.15799
-1.93973
-1.78045
-1.73741
-1.75363
-1.15669
-1.14148
-1.18371
-1.25696
-1.34865
-1.4633
-1.58826
-1.67181
-1.76351
-1.82748
-1.8818
-1.89123
-1.89982
-1.91048
-1.91366
-1.91422
-1.91596
-1.89004
-1.87987
-1.87426
-1.9019
-1.88578
-1.92862
-1.91355
-1.96105
-2.01194
-2.0735
-2.11748
-2.13604
-2.13648
-2.24413
-2.39471
-2.61028
-2.69804
-2.68333
-2.53675
-2.32266
-2.13646
-1.95846
-1.78718
-1.08957
-1.04271
-1.07445
-1.15051
-1.24504
-1.38042
-1.49186
-1.60993
-1.67743
-1.74044
-1.79269
-1.83631
-1.87326
-1.90118
-1.91676
-1.9325
-1.91567
-1.90282
-1.88494
-1.86462
-1.87769
-1.88442
-1.92637
-1.93493
-1.96309
-2.01703
-2.07292
-2.10967
-2.12567
-2.11047
-2.1107
-2.0448
-2.01524
-1.99687
-2.09479
-2.08306
-2.06176
-2.05852
-2.12711
-2.45503
-1.17168
-1.12751
-1.15528
-1.20572
-1.31442
-1.40848
-1.52582
-1.64578
-1.7386
-1.81297
-1.86879
-1.89694
-1.92245
-1.9432
-1.95332
-1.94327
-1.92522
-1.89465
-1.89252
-1.86875
-1.90098
-1.87559
-1.93035
-1.94105
-2.00356
-2.03391
-2.0951
-2.12438
-2.16644
-2.14634
-2.1763
-2.15402
-2.1787
-2.08571
-1.98571
-1.81943
-1.67419
-1.50896
-1.37609
-1.3545
-1.12834
-1.1094
-1.14675
-1.20581
-1.3232
-1.42568
-1.55205
-1.67623
-1.76415
-1.83794
-1.88674
-1.9294
-1.96526
-1.98706
-1.99153
-1.96996
-1.9508
-1.90877
-1.92113
-1.89641
-1.92106
-1.93215
-1.95819
-1.97612
-2.02065
-2.05605
-2.09514
-2.11904
-2.15771
-2.14795
-2.16717
-2.09263
-2.07853
-1.96114
-1.93695
-1.81014
-1.71876
-1.56893
-1.45752
-1.63851
-1.1773
-1.16257
-1.2027
-1.25347
-1.36507
-1.46926
-1.59511
-1.71391
-1.808
-1.87797
-1.93377
-1.98194
-2.01951
-2.03765
-2.03927
-2.01118
-1.99835
-1.94646
-1.97725
-1.96009
-1.99755
-1.96209
-2.03461
-2.01306
-2.09005
-2.08271
-2.14768
-2.14254
-2.19438
-2.17059
-2.22248
-2.17317
-2.21183
-2.11992
-2.12232
-1.99175
-1.92156
-1.72778
-1.58179
-1.6273
-1.18885
-1.17631
-1.2236
-1.27674
-1.38781
-1.50523
-1.62087
-1.74288
-1.8361
-1.91599
-1.98089
-2.03658
-2.07842
-2.09391
-2.10099
-2.07059
-2.08434
-2.03984
-2.1152
-2.03593
-2.05658
-2.03781
-2.0643
-2.08383
-2.11266
-2.14768
-2.15382
-2.17111
-2.20127
-2.16257
-2.18728
-2.10245
-2.11855
-1.99465
-2.00845
-1.88084
-1.86558
-1.71456
-1.65549
-1.7729
-1.20088
-1.17995
-1.2327
-1.28548
-1.39439
-1.50006
-1.62116
-1.73746
-1.84315
-1.92657
-2.00268
-2.06342
-2.11403
-2.13377
-2.15751
-2.15109
-2.20552
-2.19193
-2.24419
-2.10461
-2.11408
-2.07085
-2.14479
-2.11801
-2.19881
-2.15616
-2.24579
-2.19598
-2.26193
-2.19694
-2.27604
-2.20407
-2.2868
-2.16905
-2.21656
-2.05126
-2.02615
-1.83665
-1.73518
-1.67618
-1.23746
-1.2162
-1.25258
-1.31239
-1.4093
-1.51616
-1.63971
-1.76323
-1.86976
-1.96141
-2.04445
-2.11004
-2.16647
-2.18769
-2.23217
-2.24329
-2.33945
-2.28856
-2.34093
-2.13824
-2.17222
-2.11603
-2.1748
-2.18448
-2.2504
-2.24045
-2.29607
-2.30535
-2.40996
-2.41323
-2.54593
-2.5045
-2.62411
-2.52951
-2.64523
-2.5268
-2.58651
-2.43688
-2.34654
-2.34634
-1.21653
-1.20333
-1.22788
-1.28465
-1.38034
-1.47038
-1.59097
-1.70898
-1.8214
-1.91911
-2.01735
-2.09492
-2.17043
-2.20243
-2.26172
-2.26576
-2.34457
-2.28342
-2.33869
-2.18006
-2.20642
-2.17967
-2.2484
-2.19397
-2.31809
-2.26269
-2.41511
-2.33617
-2.49241
-2.40095
-2.56917
-2.44172
-2.569
-2.41425
-2.55964
-2.39609
-2.51005
-2.32263
-2.25
-2.21794
-1.25723
-1.24777
-1.26869
-1.30573
-1.41135
-1.49132
-1.61511
-1.7041
-1.81844
-1.90968
-2.01457
-2.09966
-2.19623
-2.23488
-2.31669
-2.30965
-2.41406
-2.33779
-2.42478
-2.20864
-2.28021
-2.16797
-2.28119
-2.19862
-2.31667
-2.22701
-2.38308
-2.33767
-2.59957
-2.42317
-2.5874
-2.44762
-2.5946
-2.40892
-2.55487
-2.35657
-2.46105
-2.18241
-2.15857
-2.00264
-1.20604
-1.19357
-1.21789
-1.22628
-1.33739
-1.40143
-1.52656
-1.6307
-1.73452
-1.82877
-1.93698
-2.02361
-2.1377
-2.19417
-2.28917
-2.29433
-2.40014
-2.35801
-2.43897
-2.2825
-2.27774
-2.23326
-2.29441
-2.18235
-2.32953
-2.15447
-2.37991
-2.42814
-2.628
-2.44072
-2.64206
-2.3874
-2.56203
-2.33831
-2.5504
-2.23996
-2.42482
-2.03366
-2.00616
-1.75015
-1.26096
-1.25511
-1.27094
-1.27792
-1.35698
-1.43556
-1.54018
-1.63258
-1.75627
-1.83742
-1.95243
-2.03122
-2.14872
-2.20125
-2.32277
-2.31987
-2.43558
-2.3959
-2.45938
-2.31874
-2.28455
-2.2238
-2.29646
-2.15222
-2.3274
-2.07239
-2.48713
-2.4344
-2.68053
-2.44672
-2.65569
-2.43393
-2.6178
-2.30448
-2.52902
-2.22835
-2.39724
-1.9707
-1.88786
-1.52967
-1.17226
-1.15429
-1.1829
-1.16313
-1.22768
-1.29821
-1.40703
-1.48438
-1.62047
-1.72064
-1.84876
-1.93871
-2.07228
-2.12993
-2.26023
-2.27762
-2.40329
-2.36723
-2.45783
-2.31416
-2.2106
-2.17142
-2.24322
-2.07793
-2.29771
-1.98703
-2.52002
-2.45717
-2.71597
-2.44117
-2.69513
-2.39062
-2.65178
-2.31497
-2.55235
-2.08054
-2.41731
-1.8294
-1.822
-1.26429
-1.25506
-1.25194
-1.25511
-1.25855
-1.27095
-1.33058
-1.42777
-1.4893
-1.61925
-1.71079
-1.85738
-1.94541
-2.09713
-2.16183
-2.30919
-2.31921
-2.4572
-2.44141
-2.48504
-2.36379
-2.21216
-2.14487
-2.21187
-2.02606
-2.26508
-1.91569
-2.51202
-2.47206
-2.82746
-2.45805
-2.77408
-2.36615
-2.74046
-2.27164
-2.64147
-2.10921
-2.36554
-1.80609
-1.78687
-0.981362
-1.11997
-1.09401
-1.13972
-1.06397
-1.13272
-1.1049
-1.2624
-1.28362
-1.43969
-1.52709
-1.70249
-1.79939
-1.97769
-2.02586
-2.21333
-2.24998
-2.40363
-2.4199
-2.46616
-2.33948
-2.10313
-2.0332
-2.09511
-1.90029
-2.15268
-1.80342
-2.43564
-2.48404
-2.87711
-2.50828
-2.82124
-2.36345
-2.73312
-2.21122
-2.61538
-2.02322
-2.40798
-1.47307
-1.70243
-0.442538
-1.24503
-1.26061
-1.25229
-1.23289
-1.20593
-1.17806
-1.29745
-1.30789
-1.44514
-1.5221
-1.6952
-1.80208
-1.97279
-2.06804
-2.26046
-2.29448
-2.48207
-2.50444
-2.5119
-2.42262
-2.05845
-1.97037
-2.02311
-1.80052
-2.05352
-1.71854
-2.36873
-2.47617
-2.96503
-2.5592
-2.96784
-2.40486
-2.85095
-2.22799
-2.69286
-2.00997
-2.49854
-1.55874
-1.49113
0.156399
-1.08698
-1.0345
-1.09985
-0.971284
-1.06498
-0.898848
-1.08814
-1.06933
-1.24111
-1.32057
-1.52358
-1.61799
-1.85818
-1.95653
-2.19177
-2.25781
-2.46106
-2.4898
-2.52087
-2.36735
-2.00801
-1.81491
-1.84814
-1.59541
-1.8618
-1.55012
-2.27813
-2.43957
-3.01348
-2.59818
-3.06104
-2.38947
-2.87684
-2.1231
-2.65751
-1.74788
-2.3342
-1.0134
-1.27322
1.75437
-1.23654
-1.33675
-1.25329
-1.24079
-1.16902
-1.07303
-1.12558
-1.1242
-1.24757
-1.32453
-1.49494
-1.62672
-1.8462
-1.96366
-2.20762
-2.29837
-2.52287
-2.59213
-2.60469
-2.43779
-1.96952
-1.74109
-1.74461
-1.44096
-1.68787
-1.41945
-2.22594
-2.39006
-3.09762
-2.6671
-3.18761
-2.52002
-3.00944
-2.22208
-2.81942
-1.80501
-2.4639
-0.720875
-0.994595
3.52003
-1.40797
-1.01484
-1.16949
-0.859922
-0.938389
-0.760619
-0.854397
-0.85104
-1.01002
-1.08987
-1.31753
-1.43864
-1.70011
-1.84467
-2.12184
-2.27167
-2.47957
-2.62222
-2.63687
-2.34082
-1.86945
-1.54259
-1.52311
-1.15611
-1.49459
-1.24924
-2.17877
-2.31114
-3.12742
-2.71541
-3.27459
-2.51788
-2.98795
-2.10609
-2.64418
-1.38854
-1.87248
0.396332
1.26408
8.68194
-1.07842
-1.52976
-1.41909
-1.41192
-1.13744
-0.921002
-0.916281
-0.877287
-0.982268
-1.05271
-1.24514
-1.39012
-1.64839
-1.78848
-2.09396
-2.25208
-2.55411
-2.74873
-2.80538
-2.42346
-1.98258
-1.50053
-1.36834
-0.966804
-1.32236
-1.10912
-2.1527
-2.24397
-3.2039
-2.76325
-3.28796
-2.54702
-3.03316
-2.10485
-2.68569
-1.42945
-1.85659
1.4205
3.82107
15.148
-3.64573
-0.927057
-1.23712
-0.831981
-0.797864
-0.621412
-0.676006
-0.662406
-0.817333
-0.90845
-1.12361
-1.2432
-1.51184
-1.693
-2.01309
-2.24563
-2.58792
-2.78951
-2.82188
-2.25104
-1.8218
-1.21859
-1.06613
-0.700355
-1.16739
-1.11519
-2.21614
-2.33959
-3.35063
-2.84282
-3.32073
-2.47173
-2.85951
-1.90271
-2.26068
-0.528387
0.11341
6.01682
13.7696
31.868
-0.238274
-0.270074
-0.301431
-0.332056
-0.375828
-0.412158
-0.456137
-0.494611
-0.527752
-0.574343
-0.606919
-0.655196
-0.675845
-0.730441
-0.731492
-0.786672
-0.774546
-0.841083