/*--------------------------------*- C++ -*----------------------------------*\
| =========                 |                                                 |
| \\      /  F ield         | OpenFOAM: The Open Source CFD Toolbox           |
|  \\    /   O peration     | Version:  v1806                                 |
|   \\  /    A nd           | Web:      www.OpenFOAM.com                      |
|    \\/     M anipulation  |                                                 |
\*---------------------------------------------------------------------------*/
FoamFile
{
    version     2.0;
    format      ascii;
    class       surfaceScalarField;
    location    "0.0675";
    object      phi;
}
// * * * * * * * * * * * * * * * * * * * * * * * * * * * * * * * * * * * * * //

dimensions      [0 3 -1 0 0 0 0];
oriented        oriented;


internalField   nonuniform List<scalar> 
187200
(
6.94293e-06
2.30751e-06
-9.25199e-06
4.71623e-05
-1.98284e-05
-2.03908e-05
6.86515e-05
-9.31351e-06
-1.21755e-05
8.84287e-05
-9.76709e-06
-1.001e-05
0.000104792
-6.14446e-06
-1.02189e-05
0.000122113
-5.09071e-06
-1.22306e-05
0.000137387
-7.7167e-07
-1.45018e-05
0.000153817
4.60668e-07
-1.68908e-05
0.000167139
4.79028e-06
-1.8112e-05
0.000179186
5.90535e-06
-1.79519e-05
0.000190512
7.67809e-06
-1.90038e-05
0.000196756
1.31373e-05
-1.93823e-05
0.000187087
2.16669e-05
-1.1998e-05
0.000157819
3.66936e-05
-7.42581e-06
0.000112454
4.39612e-05
1.40394e-06
7.20627e-05
2.95167e-05
1.08739e-05
1.69268e-05
3.15217e-05
2.3614e-05
-3.71503e-05
4.68597e-05
7.21697e-06
-0.000136168
9.97518e-05
-7.34043e-07
-0.000263789
0.000134371
-6.75039e-06
-0.000504644
0.000220615
2.02399e-05
-0.000684003
0.000232642
-5.3283e-05
-0.000804598
0.000279027
-0.000158432
-0.000844584
0.000306744
-0.000266757
-0.000825305
0.000338168
-0.000357448
-0.000755486
0.000367534
-0.000437354
-0.000644462
0.000391442
-0.000502466
-0.000508434
0.000408145
-0.000544172
-0.000341232
0.000398001
-0.000565203
-0.000179545
0.000384178
-0.000545864
-4.79903e-05
0.000340731
-0.000472285
3.53301e-05
0.000298688
-0.000382008
6.70755e-05
0.000234575
-0.000266321
5.93701e-05
0.000174534
-0.000166828
3.4237e-05
0.000120697
-9.55645e-05
1.25454e-05
8.08093e-05
-5.9118e-05
-5.36533e-07
5.52124e-05
-4.21307e-05
-6.23793e-06
4.27767e-05
-3.70751e-05
-7.43106e-06
3.28271e-05
-3.1634e-05
2.26435e-05
-3.00744e-05
5.27181e-06
1.35942e-05
-1.65584e-05
4.43898e-05
-3.04237e-05
-2.85224e-05
8.53625e-05
-2.43851e-05
-2.59009e-05
0.000115885
-1.47258e-05
-2.55634e-05
0.000137578
-2.92436e-06
-2.49137e-05
0.000154482
7.26571e-06
-2.92597e-05
0.000161925
2.7249e-05
-3.54639e-05
0.000165278
3.85944e-05
-4.14859e-05
0.000158574
6.3217e-05
-5.17221e-05
0.000140814
8.24989e-05
-5.88342e-05
9.85566e-05
0.000125091
-7.51559e-05
3.59577e-05
0.000166612
-9.08765e-05
-4.86095e-05
0.000203721
-9.7487e-05
-0.00014965
0.000245581
-0.000107847
-0.000274155
0.000299897
-0.000131432
-0.00045772
0.000376118
-0.000163037
-0.000638251
0.000451858
-0.000239805
-0.00082942
0.000536092
-0.000298064
-0.00099787
0.00063618
-0.000367978
-0.00115216
0.00073261
-0.000443949
-0.00129755
0.000858299
-0.000492293
-0.00139193
0.00093392
-0.000606894
-0.00144167
0.00103969
-0.000710929
-0.00142767
0.00108794
-0.000795189
-0.00134302
0.00113316
-0.00087965
-0.00119889
0.00115896
-0.000935553
-0.00100565
0.00116419
-0.000965987
-0.000778236
0.00114303
-0.000962301
-0.00054221
0.00108273
-0.000920753
-0.000316148
0.00100522
-0.000847107
-0.000123495
0.000875966
-0.000727888
3.57373e-05
0.000735311
-0.000595857
0.000119424
0.000582669
-0.00043178
0.000144964
0.000455331
-0.000306337
0.000131342
0.000335664
-0.000201345
0.00010145
0.000248833
-0.000138132
6.86617e-05
0.000186433
-9.84329e-05
4.27088e-05
0.000146241
-7.75111e-05
1.66226e-05
0.000116572
-5.76587e-05
8.03169e-05
-4.1051e-05
1.90847e-05
6.74717e-06
-1.22375e-05
5.68626e-05
-3.45287e-05
-3.36725e-05
9.78333e-05
-2.54283e-05
-3.99274e-05
0.000126639
-2.53559e-06
-4.09961e-05
0.000142777
2.84619e-05
-4.75236e-05
0.000148015
5.86628e-05
-5.66352e-05
0.00013982
0.000100884
-6.54403e-05
0.000123358
0.000138085
-8.30282e-05
9.45284e-05
0.000200384
-0.000108338
3.77734e-05
0.000268123
-0.00012887
-4.6233e-05
0.000351237
-0.00014214
-0.000148775
0.000433121
-0.000163967
-0.000303541
0.000537508
-0.000179021
-0.000482638
0.000645961
-0.000221283
-0.000684105
0.000755074
-0.000253711
-0.000869861
0.000866649
-0.000304775
-0.00103341
0.000973739
-0.000358332
-0.00118079
0.00109626
-0.000412791
-0.00131569
0.00123576
-0.000464682
-0.00144211
0.00137755
-0.000518519
-0.00155773
0.00151468
-0.000540764
-0.00162235
0.00159676
-0.000598212
-0.00163568
0.00170357
-0.000650557
-0.00159915
0.00172973
-0.000678324
-0.00150383
0.0017521
-0.000714257
-0.00136397
0.00174303
-0.000723939
-0.00118777
0.00170188
-0.000713892
-0.000987113
0.00162431
-0.000681932
-0.000776084
0.00150631
-0.000634612
-0.000556384
0.00135918
-0.000573653
-0.000371752
0.00118489
-0.000493556
-0.000211796
0.00100305
-0.000427697
-9.5212e-05
0.000803723
-0.000337638
-1.28412e-05
0.000642133
-0.000269172
2.71181e-05
0.000493699
-0.000197994
4.19669e-05
0.000385869
-0.000151883
4.28094e-05
0.000306364
-0.000120774
3.37695e-05
0.000254787
-9.95068e-05
1.53227e-05
0.000205519
-7.05001e-05
0.00013653
-4.08905e-05
2.05095e-05
3.63866e-06
-1.74008e-05
5.83824e-05
-2.60271e-05
-4.63744e-05
9.85363e-05
-7.11371e-06
-5.84681e-05
0.000121116
4.04248e-05
-6.55404e-05
0.000125158
9.64086e-05
-7.19882e-05
0.000114004
0.000155139
-8.53224e-05
9.3372e-05
0.000232044
-0.000110528
5.52651e-05
0.000312184
-0.000135992
-2.78946e-07
0.000424005
-0.000168078
-8.14843e-05
0.000536752
-0.000187424
-0.000196973
0.000669437
-0.000202711
-0.000345304
0.000800656
-0.000219203
-0.000507947
0.000931734
-0.000231584
-0.000664542
0.00105005
-0.000247499
-0.000817001
0.00117679
-0.00026926
-0.000959742
0.00130466
-0.00029527
-0.00109247
0.00142786
-0.000321396
-0.00121042
0.00155075
-0.000336541
-0.00131653
0.00168488
-0.000343014
-0.00141478
0.00181046
-0.00033465
-0.00151922
0.0019096
-0.000290491
-0.0015788
0.00194787
-0.000291532
-0.00159086
0.00201037
-0.000294744
-0.00156517
0.00198366
-0.000279612
-0.00149126
0.00195937
-0.000281186
-0.00138858
0.00190687
-0.000266511
-0.00126234
0.00182425
-0.000248608
-0.00112071
0.00171153
-0.000228849
-0.000967318
0.00156184
-0.00020892
-0.000801579
0.00139773
-0.000204291
-0.000624197
0.00121086
-0.000203355
-0.000450245
0.00102987
-0.000200766
-0.000297629
0.000847736
-0.000196628
-0.000173952
0.000706972
-0.000188516
-8.86069e-05
0.000576914
-0.00016856
-2.99757e-05
0.000475809
-0.000148571
6.48447e-06
0.000403365
-0.00013346
2.00785e-05
0.000349996
-0.000108802
1.66151e-05
0.000286244
-7.72614e-05
0.000191385
-3.82392e-05
2.0609e-05
1.89537e-05
-3.59241e-05
6.0036e-05
1.05966e-05
-7.60507e-05
0.000102259
4.15779e-05
-9.09146e-05
0.00012055
0.000120835
-9.87011e-05
0.000116774
0.000205173
-0.000104988
8.81505e-05
0.000304025
-0.000120263
4.87499e-05
0.000422409
-0.000150965
9.3391e-06
0.000534667
-0.000183073
-3.79521e-05
0.000680017
-0.00020872
-0.000115437
0.000831304
-0.000217067
-0.000213423
0.000985337
-0.000217916
-0.000322978
0.00112431
-0.000214096
-0.000453157
0.00126676
-0.000204846
-0.000593415
0.00139482
-0.000204507
-0.000732226
0.00151391
-0.000198303
-0.000853675
0.00161888
-0.000192771
-0.000956444
0.00170747
-0.00017684
-0.00103627
0.00177599
-0.000145415
-0.00112621
0.00185928
-8.44587e-05
-0.00121604
0.00192625
-2.59586e-05
-0.00133846
0.00196873
6.32905e-05
-0.00140458
0.0019209
9.3095e-05
-0.00143424
0.00193655
0.00010348
-0.0014401
0.0018781
0.000111423
-0.00141074
0.00183404
9.59738e-05
-0.00136508
0.0017731
8.81034e-05
-0.00130107
0.00168506
7.51831e-05
-0.00123092
0.00158067
6.06999e-05
-0.00113629
0.00144575
2.14633e-05
-0.00101747
0.00130243
-2.35183e-05
-0.000872238
0.00113982
-7.41938e-05
-0.000708091
0.000990129
-0.00012441
-0.000544203
0.00083738
-0.000153532
-0.000384926
0.000720623
-0.000172928
-0.000248979
0.000621397
-0.000180429
-0.000136536
0.000528562
-0.000165197
-5.54589e-05
0.000469214
-0.000146926
-5.4667e-06
0.000421516
-0.000121513
9.28579e-06
0.000352779
-8.12878e-05
0.000235125
-3.44552e-05
1.49614e-05
6.5882e-05
-6.18897e-05
6.13843e-05
7.87154e-05
-0.000114542
0.000108421
0.000133655
-0.000139114
0.000127684
0.000238982
-0.00013741
0.000120402
0.000352556
-0.000140101
8.3838e-05
0.000489855
-0.000149265
5.92356e-05
0.000633984
-0.000186973
2.24111e-05
0.000785817
-0.000214326
-2.6691e-05
0.000952878
-0.000223759
-9.18844e-05
0.0011064
-0.000209907
-0.000165348
0.00125034
-0.000191536
-0.000250203
0.00137781
-0.000168644
-0.000338054
0.00149601
-0.000141399
-0.000421969
0.00159047
-0.000111739
-0.000503389
0.00167398
-7.86573e-05
-0.000575047
0.00173026
-3.9726e-05
-0.000670686
0.00177224
3.08709e-05
-0.000773226
0.00178724
9.1292e-05
-0.000869146
0.00179112
0.000164081
-0.000957139
0.00177457
0.000239666
-0.00108377
0.00179672
0.000298647
-0.0011794
0.00170106
0.000315464
-0.00124424
0.00168705
0.000314336
-0.00129512
0.00161513
0.000313852
-0.00131789
0.0015624
0.0002944
-0.0013289
0.00150618
0.000277943
-0.00132611
0.00143544
0.000246831
-0.00131356
0.00135819
0.000209936
-0.00127728
0.0012584
0.000151064
-0.00119465
0.00115691
6.28908e-05
-0.00108201
0.00103902
-1.18382e-05
-0.000922796
0.000926199
-9.52811e-05
-0.000747798
0.000815075
-0.000152693
-0.000558655
0.000719074
-0.000187593
-0.000382145
0.000649557
-0.00020467
-0.000232173
0.000568681
-0.000190092
-0.000111052
0.000519807
-0.000171715
-3.16984e-05
0.000477581
-0.000135419
5.61749e-06
0.000403887
-8.84233e-05
0.000273876
-3.3134e-05
1.74815e-05
0.00014387
-9.54696e-05
8.4521e-05
0.000181483
-0.000169807
0.00013331
0.000268707
-0.00018384
0.000154244
0.000391484
-0.000173437
0.000145889
0.000527066
-0.000166155
0.000106663
0.000700295
-0.000171215
9.43665e-05
0.000850569
-0.000204288
7.25516e-05
0.00102126
-0.000213632
5.21684e-05
0.00117199
-0.000198734
9.32255e-06
0.00131452
-0.000165273
-4.74569e-05
0.00143843
-0.000131319
-0.000115752
0.00154037
-9.42675e-05
-0.000186231
0.00162275
-5.62604e-05
-0.000258977
0.00167398
-1.07628e-05
-0.000329038
0.00170177
4.22719e-05
-0.000392378
0.00170041
9.31984e-05
-0.000456237
0.00168343
0.00015267
-0.000526116
0.00163872
0.000218396
-0.000628543
0.00160009
0.000293451
-0.000733226
0.00152425
0.000355002
-0.000858311
0.00151593
0.000405869
-0.000992091
0.0014077
0.000427148
-0.00106937
0.00135626
0.000408064
-0.00116556
0.00131639
0.000394923
-0.00123556
0.00127476
0.000357652
-0.00129972
0.00124432
0.000326017
-0.00134921
0.00120394
0.00028098
-0.00138309
0.00116091
0.000231162
-0.00139361
0.00110406
0.000164855
-0.00134623
0.00104304
6.64933e-05
-0.00126199
0.000963128
-8.34593e-06
-0.00112612
0.000878008
-8.76759e-05
-0.000944203
0.000793928
-0.000160771
-0.000728556
0.000704312
-0.000200885
-0.00050004
0.000660836
-0.000239795
-0.000319255
0.000612025
-0.000224129
-0.000160045
0.000563777
-0.000203178
-5.4727e-05
0.000529881
-0.000157619
5.9807e-07
0.000451456
-0.000102894
0.000310792
-3.63177e-05
2.82679e-05
0.000242326
-0.000126724
0.000113933
0.000312052
-0.000216233
0.000179758
0.000429486
-0.000226604
0.000206785
0.000564044
-0.000199588
0.000194061
0.00071807
-0.00017828
0.000183485
0.000891009
-0.000180137
0.000188279
0.00104262
-0.000196849
0.000183569
0.00121217
-0.000186198
0.000163247
0.0013454
-0.00015308
0.000122612
0.0014639
-0.000108747
7.39664e-05
0.00155757
-7.04945e-05
1.73233e-05
0.00161975
-2.2739e-05
-4.50392e-05
0.00165402
3.1086e-05
-0.000109164
0.00165231
8.5798e-05
-0.000171904
0.00162654
0.000137968
-0.000237057
0.00157257
0.000192991
-0.000302916
0.00150445
0.000244837
-0.000374962
0.0014229
0.000287868
-0.000465855
0.0013516
0.000339387
-0.000572065
0.0012562
0.000374264
-0.000682286
0.00121835
0.000407802
-0.000842727
0.00115454
0.0004136
-0.000947169
0.00106922
0.000391483
-0.00107768
0.00107688
0.000370021
-0.00118625
0.00104777
0.000335552
-0.00128368
0.00104146
0.000300291
-0.00136696
0.00102649
0.000260732
-0.00143423
0.00100646
0.000221729
-0.0014726
0.000981076
0.000161352
-0.0014597
0.000938786
9.13553e-05
-0.00140027
0.000883704
1.9987e-05
-0.00128466
0.000815174
-5.27675e-05
-0.00110089
0.000750925
-0.000140769
-0.00088932
0.000688193
-0.000195453
-0.000639759
0.000646554
-0.000235279
-0.000412185
0.00063955
-0.0002551
-0.000215785
0.00059407
-0.000226694
-7.95751e-05
0.000574412
-0.000180741
-6.19148e-06
0.000493513
-0.000115441
0.000345303
-4.07024e-05
4.71276e-05
0.000350831
-0.000155633
0.000154644
0.000464279
-0.000259744
0.000248469
0.000602863
-0.000267201
0.000290763
0.000743559
-0.000221808
0.000286593
0.000907562
-0.000185323
0.000283918
0.0010662
-0.000172517
0.000278028
0.00121279
-0.00016428
0.000282781
0.00135241
-0.000144995
0.000274776
0.00146128
-0.000107881
0.000242184
0.00155357
-5.70748e-05
0.00019809
0.00160517
-3.50697e-06
0.000144001
0.00162391
4.99271e-05
7.72887e-05
0.00161604
0.000104696
9.46161e-06
0.0015689
0.000151238
-5.81293e-05
0.00149827
0.00019587
-0.000129405
0.00140662
0.000237226
-0.000203795
0.00130896
0.000269876
-0.000279478
0.00120697
0.000291616
-0.000364333
0.00112359
0.000312863
-0.00047542
0.00103552
0.000331764
-0.000582262
0.000980482
0.000344713
-0.000738854
0.000963744
0.000347385
-0.000882608
0.000879709
0.000333268
-0.00102273
0.000906731
0.000310269
-0.00115511
0.000890443
0.000289705
-0.00126967
0.000898075
0.000257947
-0.00137635
0.000893566
0.000239609
-0.00146559
0.000891648
0.000204046
-0.00153309
0.000873182
0.000175394
-0.00155625
0.00083953
0.000122418
-0.00151873
0.000790448
5.57316e-05
-0.00141591
0.000737325
-2.49716e-05
-0.0012385
0.000679616
-0.000106097
-0.00101149
0.000635271
-0.000174095
-0.000745731
0.000604301
-0.000223503
-0.00049062
0.000632625
-0.000248187
-0.000268677
0.000617388
-0.00024526
-0.000101845
0.000606082
-0.000198504
-1.45659e-05
0.000535987
-0.000129753
0.000378314
-4.7576e-05
6.50376e-05
0.000455743
-0.000169949
0.000198678
0.000620867
-0.000290228
0.000318391
0.00077622
-0.00029307
0.000375011
0.000918859
-0.00023192
0.000389033
0.00106953
-0.000175994
0.000384992
0.0012092
-0.000138956
0.000376974
0.00134225
-0.000121443
0.000372402
0.00145193
-9.49467e-05
0.000363349
0.00152895
-5.86141e-05
0.000345859
0.00157701
-5.9512e-06
0.000307363
0.00160122
4.2452e-05
0.000237059
0.00158824
0.000105975
0.000168159
0.00153334
0.000151601
9.41545e-05
0.00145006
0.000192848
1.80269e-05
0.00134967
0.000224728
-6.14958e-05
0.00123754
0.000248599
-0.000142298
0.00112842
0.00026135
-0.000224169
0.00102568
0.000263157
-0.000315188
0.000949665
0.000264947
-0.000428232
0.000883312
0.000265253
-0.000550461
0.000832805
0.000269907
-0.000684377
0.000824723
0.000272936
-0.000847911
0.000769102
0.000274141
-0.000979879
0.000777844
0.000260855
-0.00111931
0.00077305
0.000256823
-0.00123696
0.000783379
0.000232352
-0.00135598
0.000782523
0.000230059
-0.00146601
0.000781946
0.000219725
-0.00155311
0.000758337
0.000201952
-0.00160176
0.000728254
0.000159925
-0.00159099
0.000690836
8.88389e-05
-0.00150875
0.000650621
4.46839e-06
-0.00135275
0.000609733
-8.61217e-05
-0.00112654
0.000574858
-0.000165793
-0.000859503
0.000542221
-0.000204961
-0.000568366
0.000574105
-0.000232617
-0.000319345
0.000612714
-0.000244347
-0.000127014
0.000619708
-0.000205957
-2.27135e-05
0.00056817
-0.000136483
0.000407424
-5.18224e-05
7.99441e-05
0.000552686
-0.000176887
0.000242388
0.000769233
-0.00031081
0.000388068
0.000939495
-0.000308955
0.000463642
0.00107636
-0.00023308
0.000493269
0.00120472
-0.000164813
0.000488913
0.00132126
-0.000107704
0.0004796
0.00142841
-7.68391e-05
0.000463251
0.00150836
-4.00748e-05
0.000435815
0.00156119
-4.80375e-06
0.0004012
0.0015819
2.97309e-05
0.000366767
0.00155876
7.68891e-05
0.00031066
0.00150906
0.000135293
0.000234417
0.00143366
0.000175924
0.000147176
0.00132599
0.000211311
6.17567e-05
0.00120589
0.000229199
-2.58095e-05
0.00108773
0.00023738
-0.000113953
0.000981203
0.000235356
-0.000206558
0.000889553
0.000228735
-0.000307315
0.000827629
0.000222793
-0.000411738
0.00077222
0.000215515
-0.000527419
0.00073418
0.000214306
-0.000635693
0.000713708
0.000219289
-0.000797599
0.000698162
0.000232845
-0.000924659
0.00067388
0.000231024
-0.00105752
0.000668268
0.000237642
-0.00118142
0.000670744
0.000236532
-0.001308
0.00067234
0.000236762
-0.00143535
0.000660869
0.000248434
-0.00154549
0.000641681
0.000226793
-0.00161753
0.000617698
0.000182597
-0.00164255
0.000585456
0.000130403
-0.00159195
0.000560468
3.9546e-05
-0.00145304
0.000523542
-5.27105e-05
-0.00121659
0.000499075
-0.000160674
-0.000932558
0.000473967
-0.000215777
-0.000630976
0.000503634
-0.000231111
-0.000366458
0.000569548
-0.000221351
-0.000149707
0.000621833
-0.000218876
-2.9315e-05
0.000589665
-0.000141886
0.000436846
-5.87374e-05
9.24505e-05
0.000631366
-0.000171131
0.000281391
0.00089909
-0.000318797
0.000452172
0.00108339
-0.000314675
0.000546275
0.00120709
-0.000224827
0.000587051
0.00131141
-0.000147461
0.000588295
0.00139938
-7.93689e-05
0.000575896
0.00147801
-3.72087e-05
0.000547118
0.00153078
6.35341e-06
0.000507181
0.00155805
4.30727e-05
0.000454678
0.0015461
8.83006e-05
0.000397979
0.00150611
0.000109349
0.000331786
0.0014278
0.000147455
0.000263
0.00131881
0.000183632
0.000178916
0.00120178
0.000208288
8.91015e-05
0.00107884
0.000216863
-3.13936e-06
0.000965796
0.000214171
-9.33847e-05
0.000866955
0.000204493
-0.00019049
0.000789863
0.000196796
-0.000293382
0.000740341
0.000190181
-0.000398823
0.000693181
0.000184481
-0.000501932
0.000655
0.000182289
-0.000601191
0.000625168
0.000187799
-0.000731059
0.000621091
0.000206939
-0.000845997
0.000578112
0.000210706
-0.000967111
0.000560937
0.000228446
-0.00108795
0.000557754
0.000233826
-0.0012254
0.000547613
0.00026218
-0.00136448
0.000538648
0.000261301
-0.00149017
0.000524932
0.000242436
-0.00159384
0.000511166
0.000210201
-0.0016386
0.000497881
0.00013234
-0.00161981
0.000480317
6.13536e-05
-0.00151934
0.000446364
-2.32881e-05
-0.00132677
0.000422167
-0.000115662
-0.0010351
0.000407481
-0.000225185
-0.000701645
0.000423503
-0.000253322
-0.000400845
0.000494541
-0.000225793
-0.000172899
0.000591346
-0.000197459
-3.67119e-05
0.0005984
-0.000144923
0.00046172
-6.15848e-05
0.000101074
0.000689526
-0.000159235
0.00031237
0.00100525
-0.000317454
0.000508314
0.00119774
-0.000310292
0.000622035
0.00130749
-0.000214121
0.000669545
0.00139045
-0.000126553
0.00067624
0.00145142
-5.8732e-05
0.000660858
0.00149837
-4.97661e-06
0.000624921
0.00152181
4.49103e-05
0.000572579
0.0015227
8.76931e-05
0.000505104
0.00149177
0.000121801
0.000429632
0.00142872
0.000152865
0.000348885
0.00133579
0.000172751
0.000268644
0.00121896
0.000180094
0.000187339
0.00109099
0.000192101
9.94076e-05
0.000971855
0.000194913
1.1337e-05
0.000865179
0.000188688
-7.8018e-05
0.000778173
0.000178138
-0.000176051
0.000713422
0.000174474
-0.00027084
0.000664236
0.000170895
-0.000369336
0.000619683
0.000171995
-0.000458999
0.000575465
0.000169199
-0.00055361
0.000546288
0.00017349
-0.000644845
0.00052742
0.000184906
-0.000744544
0.000480616
0.000197194
-0.000853926
0.000456834
0.000213485
-0.000974347
0.000437592
0.000240582
-0.00111208
0.000427972
0.000257373
-0.00125617
0.000420952
0.000261789
-0.00139961
0.000415859
0.000252505
-0.00151871
0.000417283
0.000212991
-0.0016089
0.000413572
0.000174496
-0.00162447
0.000391625
0.000104265
-0.00157033
0.000348981
4.3239e-05
-0.00140922
0.000312259
-5.12003e-05
-0.00114247
0.000301872
-0.000161146
-0.000793333
0.000328024
-0.000253655
-0.00045157
0.000412537
-0.000259759
-0.000195011
0.00052637
-0.000191582
-4.41095e-05
0.000593507
-0.000146009
0.000485401
-6.77908e-05
0.000105228
0.0007253
-0.000141002
0.000335891
0.00108096
-0.000306376
0.000556076
0.00128284
-0.000305287
0.000686547
0.00137949
-0.00020247
0.000740668
0.00144154
-0.000105209
0.000746037
0.00147796
-3.19146e-05
0.000725542
0.00150053
1.83343e-05
0.000679047
0.00149362
7.46821e-05
0.000619033
0.00146949
0.000113226
0.000547043
0.00141534
0.000148424
0.000461408
0.00133914
0.000175212
0.000367016
0.00123582
0.00019436
0.000272142
0.0011181
0.000195733
0.000190567
0.000991867
0.000180694
0.000105647
0.000879224
0.00017755
2.48758e-05
0.000781658
0.000164294
-6.11516e-05
0.000704398
0.000159802
-0.000152692
0.000644256
0.000160706
-0.000236897
0.000588326
0.000160116
-0.000325225
0.000544584
0.000163427
-0.000405899
0.000495018
0.000161121
-0.000483661
0.000460394
0.000163655
-0.00054781
0.000428003
0.000163565
-0.000631475
0.000384938
0.000179343
-0.00072938
0.000358675
0.000196063
-0.000839585
0.000323889
0.000223909
-0.000970693
0.000314353
0.000244726
-0.00111225
0.000309677
0.00025283
-0.00126018
0.00031981
0.00024398
-0.00140967
0.000327903
0.00023887
-0.00152499
0.000316934
0.000211962
-0.00159533
0.000277681
0.000184277
-0.00158808
0.000224631
0.000117106
-0.0014741
0.00017436
2.39113e-05
-0.001234
0.00014827
-8.64957e-05
-0.000891717
0.000181274
-0.00019553
-0.000509617
0.000295756
-0.000265317
-0.000218904
0.000455529
-0.000219871
-4.8985e-05
0.00056956
-0.000145972
0.00050939
-7.2975e-05
0.000109077
0.000735092
-0.000118869
0.000355032
0.0011239
-0.000288892
0.000593769
0.00133764
-0.000293544
0.00074063
0.00142772
-0.00019509
0.000800214
0.00146878
-8.6829e-05
0.000803807
0.00147862
-4.25277e-06
0.000777477
0.00147255
5.43174e-05
0.000730376
0.00144433
9.63871e-05
0.000663888
0.00139996
0.00013602
0.00058203
0.00133206
0.000165139
0.000487544
0.0012443
0.000189324
0.000384713
0.00113566
0.000202989
0.000280107
0.00101976
0.000202945
0.0001896
0.000900022
0.000182353
0.000108452
0.000795585
0.000164788
3.76553e-05
0.000700604
0.00015185
-3.82182e-05
0.000632752
0.000147521
-0.000119217
0.000573304
0.000151951
-0.000197936
0.000515045
0.000152
-0.000268189
0.000461182
0.000153655
-0.000338776
0.000412414
0.000153192
-0.000400832
0.000376523
0.000145927
-0.000457039
0.000339027
0.000145183
-0.000521939
0.000295377
0.00015446
-0.000602799
0.000267957
0.000171578
-0.000703178
0.000230965
0.000193303
-0.000815688
0.000211734
0.000215128
-0.000948774
0.000218116
0.000224646
-0.00110014
0.000232389
0.000238788
-0.00124939
0.000234062
0.000243094
-0.00139382
0.000212543
0.000248817
-0.00150674
0.000170219
0.000220382
-0.00155516
0.000105782
0.000167272
-0.00149978
3.41546e-05
8.48227e-05
-0.00130993
-1.67056e-05
-2.48737e-05
-0.000997743
-8.02393e-07
-0.000130112
-0.000592738
0.000119861
-0.00022911
-0.000245567
0.000359391
-0.000251034
-5.999e-05
0.000526321
-0.000142336
0.000522183
-7.27823e-05
0.00011129
0.000713402
-8.96003e-05
0.000366906
0.00112847
-0.000260192
0.000619382
0.00135618
-0.000271015
0.000779697
0.00144348
-0.000176081
0.00084667
0.00147177
-6.99622e-05
0.000843735
0.00145869
2.28649e-05
0.000809998
0.00143154
7.47424e-05
0.000751788
0.00138126
0.000121289
0.000680203
0.00132086
0.000150683
0.000599597
0.00123948
0.000173179
0.000505797
0.00114189
0.00019621
0.000404191
0.00103354
0.000203724
0.000301956
0.000920806
0.000201188
0.000206586
0.000810532
0.000184859
0.000125251
0.000715953
0.000160967
5.10317e-05
0.000630204
0.000144619
-1.84292e-05
0.000560916
0.000141297
-8.29802e-05
0.000497878
0.000139977
-0.000144904
0.000436444
0.000140525
-0.000206479
0.000385051
0.000137707
-0.000270924
0.000342639
0.00013422
-0.000322726
0.000299611
0.000128714
-0.000371194
0.000261144
0.00012635
-0.000424166
0.000218674
0.000129675
-0.000485138
0.000186206
0.000142723
-0.000574665
0.000156024
0.000164467
-0.000669628
0.000128999
0.000177698
-0.000796001
0.0001415
0.000202989
-0.000930169
0.000140734
0.000225823
-0.00108302
0.000130193
0.000256716
-0.00124148
0.00010624
0.000264771
-0.00138324
5.77131e-05
0.000254261
-0.00147613
-1.37663e-05
0.000212438
-0.00147574
-0.000106823
0.000140587
-0.00134768
-0.000185669
4.08999e-05
-0.00106959
-0.000207888
-7.10039e-05
-0.00068023
-9.85432e-05
-0.000170953
-0.000278281
0.000181831
-0.000224389
-6.17046e-05
0.000469279
-0.000159533
0.00053318
-7.27007e-05
0.000118271
0.000632535
-3.74035e-05
0.000381739
0.00108988
-0.000224875
0.00064612
0.00133872
-0.000246922
0.000824399
0.0014232
-0.000157995
0.00089598
0.0014383
-3.8111e-05
0.000891564
0.0014082
5.49052e-05
0.00085269
0.00136087
0.000109539
0.000794301
0.00129436
0.000145289
0.000721096
0.001227
0.000167069
0.000633683
0.00114451
0.000182383
0.000533465
0.0010525
0.000189607
0.000423846
0.000946041
0.000197123
0.000315407
0.000839527
0.000189717
0.000218041
0.000732189
0.00017571
0.000141527
0.000637026
0.000155441
7.2197e-05
0.00055659
0.000142945
1.02867e-05
0.000488708
0.000134119
-4.49976e-05
0.000423204
0.000129958
-0.000102288
0.000370654
0.00012308
-0.000157254
0.000321526
0.00011849
-0.000206497
0.000277615
0.000114268
-0.000251639
0.000234648
0.000110105
-0.000294729
0.000195486
0.000108748
-0.000341922
0.000156438
0.000109428
-0.000392817
0.000120149
0.000116951
-0.000462645
8.58032e-05
0.000140048
-0.000547913
5.2708e-05
0.000161559
-0.000644211
5.15554e-05
0.000186242
-0.000764032
3.97089e-05
0.000220846
-0.000906242
2.42146e-05
0.000248189
-0.00106611
-1.67069e-06
0.000267776
-0.00122442
-5.16364e-05
0.000267668
-0.00135346
-0.00012683
0.0002421
-0.00140809
-0.000236096
0.000183905
-0.00134389
-0.000344406
9.45314e-05
-0.00113188
-0.000406716
-1.3173e-05
-0.000776681
-0.000336855
-0.000116892
-0.000354384
-6.42291e-05
-0.000176237
-6.78697e-05
0.000359387
-0.000176624
0.000524634
-5.93239e-05
0.000117665
0.000519625
-4.75502e-06
0.000367551
0.00103613
-0.000196135
0.00064282
0.00129751
-0.000234056
0.000834625
0.00138499
-0.000153594
0.000915115
0.00139155
-3.3737e-05
0.000908263
0.00134806
6.69959e-05
0.000863325
0.00128259
0.000123226
0.000788868
0.00120986
0.000158957
0.000701356
0.00113157
0.000182933
0.000614018
0.00103551
0.00019634
0.000526817
0.000937818
0.000201888
0.000437465
0.000836868
0.000198525
0.000348648
0.000739544
0.0001888
0.000266996
0.000650273
0.000163568
0.000193758
0.000567629
0.000142635
0.000125139
0.000495505
0.000129704
5.35575e-05
0.000430078
0.000130213
-1.3249e-05
0.000373259
0.000116752
-6.878e-05
0.000320635
0.00010555
-0.000112173
0.000266341
9.85793e-05
-0.000152378
0.000221347
9.64733e-05
-0.000189685
0.000179689
9.22644e-05
-0.000229052
0.000141753
9.30992e-05
-0.000267068
0.000103663
9.0791e-05
-0.000315288
6.65168e-05
0.000101852
-0.000371477
2.56897e-05
0.000116302
-0.000450851
-8.86112e-06
0.000140943
-0.000534868
-3.78418e-05
0.000173414
-0.000643095
-5.94248e-05
0.000207361
-0.000766943
-9.56236e-05
0.000243685
-0.00091105
-0.000132907
0.000275343
-0.00106719
-0.000187719
0.000292227
-0.00121513
-0.000261588
0.00028269
-0.00130739
-0.000382437
0.000238609
-0.00129804
-0.000516939
0.000163175
-0.00113069
-0.000644943
7.08802e-05
-0.000799946
-0.000632831
-3.47686e-05
-0.000385198
-0.000346511
-0.000132464
-5.77051e-05
0.000177413
-0.000145519
0.000506995
-4.00672e-05
0.000140155
0.00033656
4.29101e-05
0.000370258
0.000935959
-0.000129933
0.000649578
0.00121017
-0.000191981
0.000845031
0.00130346
-0.000113928
0.000937186
0.00129777
1.62535e-06
0.000935107
0.00124901
0.000101123
0.000895201
0.0011715
0.00015099
0.000834162
0.00108779
0.000183109
0.000768072
0.00100471
0.000192953
0.000690184
0.000918658
0.000194741
0.00060011
0.000837467
0.000190425
0.000499242
0.000755736
0.000182
0.000395518
0.00067398
0.000169288
0.000297963
0.00059878
0.000149048
0.000217382
0.000525048
0.000123162
0.000147537
0.000458341
0.00010701
8.27377e-05
0.000391032
0.000103846
2.43013e-05
0.000327262
0.000104434
-2.07928e-05
0.000271614
9.41153e-05
-6.327e-05
0.000222676
8.61414e-05
-0.00010092
0.000176152
8.28446e-05
-0.00013632
0.000135197
7.9892e-05
-0.000170593
9.64454e-05
7.95802e-05
-0.000208417
6.20277e-05
7.94583e-05
-0.000252614
2.12648e-05
8.9448e-05
-0.000304728
-2.05582e-05
9.83614e-05
-0.000362247
-6.19721e-05
0.000110629
-0.000427906
-0.000111977
0.000139795
-0.0005097
-0.000155119
0.000177487
-0.000615495
-0.000206959
0.00021713
-0.000752034
-0.000252776
0.000256409
-0.000912455
-0.000318612
0.000291314
-0.00108418
-0.000402458
0.000312593
-0.00121392
-0.000559321
0.00030662
-0.00126757
-0.000727426
0.00026414
-0.00118221
-0.000908324
0.000178018
-0.000920543
-0.000960045
6.55503e-05
-0.000487125
-0.000739578
-4.03504e-05
-9.6198e-05
-0.000124463
-8.90522e-05
0.000415609
-4.81099e-06
0.000110113
0.000215945
1.05016e-05
0.000327583
0.000857052
-0.000138564
0.000612155
0.00113143
-0.000205831
0.000824119
0.00123052
-0.000139018
0.000931084
0.00121679
-2.59917e-05
0.00095145
0.00115768
7.09632e-05
0.000913263
0.00106569
0.000143998
0.000849104
0.000985635
0.00016631
0.000770141
0.000908524
0.000175151
0.000680841
0.000831799
0.000176158
0.00059013
0.000755381
0.000172797
0.000498287
0.000681976
0.000165603
0.000410576
0.00060928
0.000152411
0.000327348
0.00054597
0.000136039
0.000250905
0.000481635
0.000119857
0.000188848
0.000423808
9.65907e-05
0.000136731
0.000360391
8.2757e-05
8.28043e-05
0.00030212
7.90686e-05
3.0177e-05
0.000242539
8.17016e-05
-1.04973e-05
0.000186156
7.7195e-05
-5.25408e-05
0.000144719
7.34764e-05
-8.61914e-05
9.78059e-05
7.10416e-05
-0.000120746
6.0508e-05
7.04918e-05
-0.000155001
2.34463e-05
7.28355e-05
-0.00019523
-1.95764e-05
8.10696e-05
-0.000245762
-5.64107e-05
8.63851e-05
-0.000301925
-9.80602e-05
9.22513e-05
-0.000370097
-0.000151858
0.000108053
-0.000446726
-0.000215562
0.000137072
-0.000532205
-0.000294563
0.000173084
-0.000624684
-0.000377658
0.000217361
-0.000732404
-0.000479808
0.000268916
-0.000862632
-0.000591324
0.000319093
-0.00101093
-0.000753632
0.000342612
-0.00112527
-0.000946108
0.000333016
-0.00111781
-0.00118338
0.0002676
-0.000943552
-0.00129589
0.000161588
-0.000565417
-0.00115955
4.18407e-05
-0.000136477
-0.000528605
-2.47985e-05
0.00022528
5.38514e-05
8.04973e-05
0.000120862
1.45848e-05
0.000317411
0.000744568
-0.000124431
0.00058905
0.0010444
-0.000184607
0.000813996
0.00115266
-0.000147088
0.00093236
0.00114192
-4.34903e-05
0.000961939
0.00107862
4.94846e-05
0.000920018
0.000984412
0.0001232
0.000856135
0.000897526
0.000151991
0.00078892
0.000815787