/*--------------------------------*- C++ -*----------------------------------*\
| =========                 |                                                 |
| \\      /  F ield         | OpenFOAM: The Open Source CFD Toolbox           |
|  \\    /   O peration     | Version:  v1806                                 |
|   \\  /    A nd           | Web:      www.OpenFOAM.com                      |
|    \\/     M anipulation  |                                                 |
\*---------------------------------------------------------------------------*/
FoamFile
{
    version     2.0;
    format      ascii;
    class       volVectorField;
    location    "0.0675";
    object      U_0;
}
// * * * * * * * * * * * * * * * * * * * * * * * * * * * * * * * * * * * * * //

dimensions      [0 1 -1 0 0 0 0];


internalField   nonuniform List<vector> 
64000
(
(-0.00875825 -0.00981164 -0.00622151)
(0.0137394 -0.0102131 -0.00366463)
(0.0201579 -0.00356751 0.00104731)
(0.0234845 -0.00363613 0.00144596)
(0.0239575 -0.00266139 0.00201192)
(0.0239001 -0.00286495 0.0028281)
(0.023226 -0.00345834 0.00309806)
(0.0198612 -0.00396784 0.00321413)
(0.0183429 -0.00499329 0.00461468)
(0.0113794 -0.00438659 0.00397585)
(0.00576256 -0.00558404 0.00633944)
(-0.00782941 -0.00906494 0.00634681)
(-0.0280707 -0.0128845 0.00656248)
(-0.0517304 -0.0179581 0.00407819)
(-0.0828347 -0.0181656 0.00514647)
(-0.117875 -0.0155796 0.002781)
(-0.150063 0.000993516 0.00213953)
(-0.192935 -0.00424017 -0.00222634)
(-0.196988 -0.0100266 0.00606051)
(-0.254424 -0.0289574 -0.015974)
(-0.219719 -0.024224 -0.0253242)
(-0.105719 -0.0251576 -0.0396067)
(-0.101628 -0.0107504 -0.0271979)
(-0.0972665 -0.00444327 -0.0372661)
(-0.110669 0.00232035 -0.0479915)
(-0.106249 0.0108039 -0.0569645)
(-0.0933181 0.0206119 -0.0618479)
(-0.0595507 0.0322167 -0.0569935)
(-0.0274201 0.0379992 -0.0529282)
(0.0157426 0.0534044 -0.0343854)
(0.0646527 0.0448731 -0.0320129)
(0.0973093 0.0373251 -0.0229517)
(0.113178 0.0262146 -0.0114926)
(0.108569 0.0126614 -0.00412457)
(0.0943882 0.00451039 0.00191628)
(0.0746135 -0.00372086 0.00446385)
(0.0535945 -0.00710426 0.00624986)
(0.0321454 -0.00614986 0.00709098)
(0.0171412 -0.00450109 0.00741399)
(0.00249041 -0.00291941 0.00530608)
(-0.00656076 -0.000533952 -0.00276946)
(0.00959166 -0.0170253 -0.00242707)
(0.0253029 -0.0120766 -0.000834493)
(0.0339308 -0.0087008 -0.000618004)
(0.0388949 -0.00383524 -0.000463602)
(0.0386939 -0.00110367 -0.00126362)
(0.0368745 0.00292821 -0.00281758)
(0.0293209 0.00474677 -0.00263119)
(0.0224142 0.010419 -0.0070176)
(0.00472994 0.0161998 -0.00441129)
(-0.01979 0.0246954 -0.00807735)
(-0.0567504 0.0313723 0.000233823)
(-0.10504 0.0426306 -0.00403798)
(-0.156742 0.0639835 -0.00686428)
(-0.216418 0.0766609 -0.0109211)
(-0.274224 0.0855799 -0.0182178)
(-0.358194 0.0929537 -0.0432512)
(-0.46217 0.0954168 -0.0582028)
(-0.515133 0.101025 -0.0756755)
(-0.595992 0.0981364 -0.0995266)
(-0.549695 0.124706 -0.101392)
(-0.410399 0.139725 -0.127285)
(-0.387362 0.184595 -0.13862)
(-0.370216 0.210806 -0.147141)
(-0.35597 0.236303 -0.1583)
(-0.319015 0.258373 -0.164207)
(-0.267279 0.278897 -0.165528)
(-0.198178 0.295211 -0.153871)
(-0.120651 0.300706 -0.133749)
(-0.0515732 0.308533 -0.109748)
(0.0152784 0.289563 -0.0750801)
(0.0800116 0.259551 -0.0473388)
(0.115398 0.208683 -0.0387201)
(0.127529 0.159208 -0.0267889)
(0.121626 0.108116 -0.0128164)
(0.101917 0.0683522 -0.00523287)
(0.081505 0.0398565 -0.000784366)
(0.0558079 0.0253364 0.000292481)
(0.0333277 0.0155543 0.00191005)
(0.00836534 0.00707927 0.00261718)
(-0.000523514 -0.0084125 0.00159068)
(0.0153639 -0.0235969 -0.00116552)
(0.0329662 -0.0189313 -0.00199542)
(0.0427523 -0.00653848 -0.00258418)
(0.0447121 0.004688 -0.00461123)
(0.0418681 0.0159288 -0.00625782)
(0.0339682 0.0316998 -0.00755917)
(0.019987 0.0456976 -0.00942187)
(0.00390373 0.0695294 -0.00202676)
(-0.0263431 0.0898684 -0.00467077)
(-0.0648095 0.117486 -0.0081817)
(-0.117974 0.150438 -0.0132648)
(-0.172679 0.183987 -0.0171383)
(-0.251434 0.210681 -0.03201)
(-0.352148 0.229389 -0.0346689)
(-0.447915 0.242955 -0.0423451)
(-0.536595 0.247804 -0.0586202)
(-0.622632 0.269055 -0.0763211)
(-0.669849 0.29799 -0.0940351)
(-0.734978 0.331038 -0.116121)
(-0.67506 0.369451 -0.110204)
(-0.509775 0.397713 -0.123893)
(-0.462881 0.454198 -0.127086)
(-0.435214 0.487384 -0.123561)
(-0.411805 0.519312 -0.125557)
(-0.370986 0.542 -0.123611)
(-0.318808 0.55581 -0.11914)
(-0.25494 0.559973 -0.104548)
(-0.186778 0.549915 -0.0830367)
(-0.123108 0.530702 -0.0593423)
(-0.0664583 0.501511 -0.0398867)
(-0.0248329 0.452958 -0.0277273)
(0.00996865 0.379998 -0.0152985)
(0.0329247 0.30745 -0.0080483)
(0.0435758 0.227896 -0.0109657)
(0.0492733 0.162668 -0.0108102)
(0.0485853 0.114251 -0.00698463)
(0.0391863 0.0766639 -0.00470537)
(0.0276571 0.0506077 -0.00088661)
(0.00826732 0.0236325 0.00206873)
(0.000243553 -0.0132071 0.00239071)
(0.0174768 -0.026188 -0.00123995)
(0.0393234 -0.013383 -0.00228919)
(0.0475094 0.00522901 -0.00598574)
(0.0446967 0.0290702 -0.00640729)
(0.0395585 0.0545168 -0.00852513)
(0.0261647 0.0897954 -0.00857925)
(0.00641194 0.122488 -0.00526968)
(-0.0205494 0.167765 -0.0103917)
(-0.0655766 0.208296 -0.0126889)
(-0.111517 0.251863 -0.0169058)
(-0.177348 0.285221 -0.0240108)
(-0.265026 0.312396 -0.0265285)
(-0.356483 0.328196 -0.0286186)
(-0.443079 0.349749 -0.0306737)
(-0.521617 0.375204 -0.0369197)
(-0.594602 0.405028 -0.0508138)
(-0.667243 0.434691 -0.0596995)
(-0.699901 0.473987 -0.0687731)
(-0.74998 0.516613 -0.0768973)
(-0.678345 0.550701 -0.0523826)
(-0.492765 0.569788 -0.0468275)
(-0.431749 0.612368 -0.0423827)
(-0.404746 0.622373 -0.0296309)
(-0.383106 0.635112 -0.0262332)
(-0.351687 0.636776 -0.0207335)
(-0.311393 0.628897 -0.0172885)
(-0.264517 0.611122 -0.0101537)
(-0.213986 0.585871 0.00155457)
(-0.169721 0.554207 0.0087552)
(-0.137395 0.515078 0.0142377)
(-0.113694 0.471303 0.0126676)
(-0.0912418 0.416393 0.00745379)
(-0.0689013 0.351328 -0.00086489)
(-0.0470465 0.272004 -0.00473078)
(-0.0190045 0.202486 -0.00999967)
(0.00071984 0.14667 -0.0101489)
(0.00961172 0.110027 -0.00755825)
(0.0175644 0.0763401 -0.00310328)
(0.00661914 0.035351 0.00172248)
(0.000829339 -0.01403 0.000763292)
(0.0236675 -0.0165602 -0.00475721)
(0.0481508 0.00153129 -0.00643831)
(0.0560359 0.0365075 -0.0078023)
(0.0526923 0.0764261 -0.00669286)
(0.046437 0.122734 -0.0146173)
(0.0266624 0.179665 -0.0116649)
(-0.00031316 0.237648 -0.00551805)
(-0.0331484 0.291267 -0.00749525)
(-0.0880886 0.333366 -0.00955774)
(-0.153209 0.36571 -0.0123583)
(-0.233211 0.384707 -0.0149603)
(-0.305427 0.407856 -0.0160176)
(-0.379255 0.435306 -0.0211917)
(-0.453677 0.466911 -0.0192022)
(-0.520254 0.499525 -0.0210428)
(-0.579523 0.528368 -0.0237141)
(-0.632186 0.564963 -0.0202671)
(-0.645749 0.60702 -0.0171063)
(-0.682688 0.65122 -0.0258088)
(-0.611762 0.67962 -0.000366175)
(-0.419723 0.686014 0.0139043)
(-0.354861 0.699242 0.0243859)
(-0.33683 0.677957 0.0364252)
(-0.32686 0.659649 0.0378094)
(-0.314837 0.63504 0.0440684)
(-0.295151 0.602483 0.0452478)
(-0.266436 0.566929 0.0492522)
(-0.236619 0.526335 0.0426943)
(-0.212555 0.487676 0.0351636)
(-0.191816 0.443846 0.0253624)
(-0.182231 0.410737 0.0179857)
(-0.175252 0.375269 0.0100282)
(-0.171509 0.344409 -0.00177819)
(-0.150873 0.279391 -0.0124104)
(-0.103376 0.208285 -0.0135406)
(-0.0518267 0.160328 -0.0131368)
(-0.0164411 0.129436 -0.0112741)
(0.0031379 0.0946672 -0.00559569)
(0.00372733 0.0443148 0.0016761)
(0.0053107 -0.0103786 -5.91413e-05)
(0.0295471 -0.00167832 -0.00490196)
(0.0625029 0.0238505 -0.00520077)
(0.0766734 0.0751691 -0.00904495)
(0.0702731 0.132513 -0.0138713)
(0.0653018 0.197731 -0.01837)
(0.0458874 0.271966 -0.0137178)
(0.00553975 0.31941 -0.00280039)
(-0.0508204 0.361489 -0.0051523)
(-0.122721 0.394287 -0.00686944)
(-0.187951 0.42438 -0.00890229)
(-0.249741 0.455511 -0.00911629)
(-0.309282 0.490934 -0.00720604)
(-0.366685 0.519055 -0.00427669)
(-0.418967 0.54978 0.00218573)
(-0.469157 0.578589 0.00704706)
(-0.505228 0.609579 0.00810229)
(-0.539292 0.641836 0.00905106)
(-0.547104 0.686599 0.0105582)
(-0.572729 0.719767 0.00866555)
(-0.5033 0.744496 0.0331471)
(-0.327307 0.697102 0.0487867)
(-0.278901 0.679453 0.0585971)
(-0.281836 0.627876 0.0729406)
(-0.287729 0.585414 0.0764451)
(-0.293718 0.544334 0.0771103)
(-0.290569 0.500855 0.0744416)
(-0.28208 0.460463 0.0687165)
(-0.266601 0.41342 0.0662824)
(-0.256551 0.375999 0.0462377)
(-0.246936 0.333314 0.0356131)
(-0.236732 0.302765 0.0217096)
(-0.223798 0.278202 0.0097875)
(-0.232141 0.264873 -0.00155059)
(-0.238782 0.240952 -0.0145717)
(-0.174265 0.19235 -0.0135056)
(-0.0921177 0.161189 -0.0147882)
(-0.040106 0.134447 -0.0116446)
(-0.0042418 0.102741 -0.00652726)
(0.00270517 0.0474108 0.00216584)
(0.00835705 -0.0057048 0.000691841)
(0.038807 0.00987998 -0.0100507)
(0.0812487 0.0491966 -0.00943311)
(0.105561 0.103638 -0.0107687)
(0.102005 0.164466 -0.0134546)
(0.0982165 0.240354 -0.0166098)
(0.0498715 0.294903 -0.00742218)
(-0.0151646 0.329492 0.00298287)
(-0.0609687 0.373172 -0.00180843)
(-0.117215 0.416367 -0.00263654)
(-0.166378 0.463464 -0.00284984)
(-0.217093 0.505907 -0.00114923)
(-0.263754 0.544228 0.0018978)
(-0.31013 0.578071 0.00741705)
(-0.350884 0.610373 0.0143523)
(-0.384892 0.636221 0.0200505)
(-0.410858 0.662301 0.025803)
(-0.426838 0.677087 0.0293739)
(-0.423398 0.701782 0.025568)
(-0.444715 0.717335 0.0169546)
(-0.433341 0.735644 0.0303505)
(-0.291442 0.632982 0.0517896)
(-0.229199 0.582266 0.0557007)
(-0.248919 0.52383 0.0693543)
(-0.264565 0.479823 0.0706448)
(-0.286663 0.442487 0.0708193)
(-0.299351 0.4065 0.0670355)
(-0.307127 0.372749 0.0605684)
(-0.305153 0.336224 0.0481696)
(-0.306577 0.30219 0.0333238)
(-0.304155 0.269795 0.0205799)
(-0.295883 0.24202 0.00893919)
(-0.284106 0.223255 -0.000959917)
(-0.282237 0.207449 -0.00741058)
(-0.286275 0.21721 -0.0170316)
(-0.226003 0.193163 -0.0202721)
(-0.127159 0.166179 -0.0215659)
(-0.0558329 0.145538 -0.0166071)
(-0.00962524 0.111232 -0.0104191)
(0.00257849 0.0518026 0.000456283)
(0.00765905 0.00238747 -0.00230454)
(0.0458118 0.0291787 -0.0130659)
(0.0997613 0.078443 -0.0135664)
(0.124738 0.133455 -0.0106412)
(0.129658 0.191905 -0.0116283)
(0.110444 0.261699 -0.0113432)
(0.049011 0.289829 2.12922e-05)
(0.00327529 0.344547 0.00554719)
(-0.0324667 0.391349 0.00185252)
(-0.0818808 0.444702 0.00320027)
(-0.124056 0.488118 0.00445023)
(-0.166335 0.525042 0.0103274)
(-0.202068 0.557648 0.0165662)
(-0.232303 0.584613 0.0236748)
(-0.261169 0.609096 0.0281957)
(-0.288722 0.624755 0.0323814)
(-0.309496 0.635643 0.0348346)
(-0.327053 0.637982 0.0343933)
(-0.328224 0.632325 0.0307039)
(-0.345311 0.61589 0.014821)
(-0.385042 0.617139 0.0147805)
(-0.295604 0.542627 0.0333164)
(-0.218889 0.456271 0.0360418)
(-0.238117 0.418761 0.0473419)
(-0.261172 0.380789 0.0517499)
(-0.292379 0.35697 0.0533911)
(-0.315496 0.330054 0.0543519)
(-0.333926 0.304679 0.047849)
(-0.3431 0.276162 0.0393012)
(-0.351572 0.246176 0.0178237)
(-0.353438 0.214551 0.0102803)
(-0.344386 0.190121 0.0011809)
(-0.330878 0.176585 -0.00698065)
(-0.315946 0.169161 -0.0106393)
(-0.324462 0.190455 -0.0200679)
(-0.275912 0.196095 -0.0205072)
(-0.161009 0.171609 -0.0223136)
(-0.074166 0.154626 -0.017617)
(-0.0147455 0.118462 -0.0101584)
(0.00381837 0.0552781 0.00117229)
(0.00642961 0.0126326 -0.00551047)
(0.0533118 0.05956 -0.0181754)
(0.118964 0.1158 -0.0193955)
(0.150193 0.170591 -0.0130864)
(0.15719 0.231983 -0.0142232)
(0.123772 0.278118 -0.0101108)
(0.0675161 0.318816 -0.0016419)
(0.0314234 0.374727 0.00564781)
(0.00300951 0.412916 0.0116679)
(-0.0320073 0.453495 0.0115827)
(-0.0715948 0.4917 0.0158421)
(-0.102697 0.518296 0.021336)
(-0.128497 0.540631 0.0282492)
(-0.153359 0.552874 0.0341477)
(-0.177397 0.556777 0.0361463)
(-0.202161 0.55375 0.0368101)
(-0.225035 0.546373 0.035615)
(-0.251237 0.533168 0.0312788)
(-0.272951 0.519294 0.0251001)
(-0.294239 0.492436 0.0101569)
(-0.346002 0.480127 -2.22829e-05)
(-0.318253 0.453873 0.00962382)
(-0.240289 0.354426 0.0177394)
(-0.236663 0.337947 0.0237888)
(-0.265807 0.311607 0.0316311)
(-0.300264 0.297299 0.0363608)
(-0.333141 0.279085 0.0413951)
(-0.358729 0.256544 0.0382872)
(-0.378112 0.232558 0.0240175)
(-0.39579 0.199219 0.00964893)
(-0.399246 0.174703 -9.38753e-05)
(-0.386951 0.151701 -0.00531339)
(-0.372145 0.137974 -0.0114059)
(-0.345983 0.139812 -0.0187654)
(-0.336555 0.152353 -0.0227142)
(-0.304741 0.190338 -0.0279212)
(-0.196764 0.173542 -0.0264072)
(-0.089653 0.163579 -0.0244412)
(-0.0198219 0.128096 -0.0135361)
(0.00465326 0.0609462 -0.000970644)
(0.007915 0.0292882 -0.00846045)
(0.0624221 0.0989197 -0.02586)
(0.136989 0.159474 -0.025197)
(0.175209 0.212972 -0.0157684)
(0.174855 0.263965 -0.0142808)
(0.142021 0.296675 -0.0129112)
(0.101846 0.345699 -0.00224659)
(0.069305 0.391962 0.010126)
(0.0384111 0.428737 0.0164961)
(0.0145068 0.455491 0.0267063)
(-0.0125423 0.477038 0.023658)
(-0.0433053 0.490259 0.0337906)
(-0.0661565 0.498064 0.0386547)
(-0.0888459 0.488701 0.0439718)
(-0.112784 0.473333 0.0431074)
(-0.139197 0.450986 0.0399518)
(-0.166831 0.427257 0.0347904)
(-0.196771 0.40254 0.027793)
(-0.226952 0.387428 0.0195869)
(-0.26231 0.370257 0.00464095)
(-0.318023 0.357158 -0.00730811)
(-0.340135 0.357766 -0.00715204)
(-0.271008 0.295013 0.00670804)
(-0.234397 0.283234 0.00933616)
(-0.267357 0.26634 0.0196665)
(-0.301714 0.257725 0.0273407)
(-0.341138 0.238471 0.0361101)
(-0.37387 0.220823 0.0317236)
(-0.401725 0.190486 0.0244975)
(-0.417928 0.163813 0.00964796)
(-0.423394 0.135625 0.0112124)
(-0.419863 0.114466 0.0176399)
(-0.400467 0.0949337 0.014897)
(-0.377256 0.0967911 0.00902935)
(-0.357561 0.110611 -0.0125727)
(-0.327267 0.15884 -0.0239384)
(-0.227038 0.171324 -0.0245688)
(-0.106746 0.163325 -0.0215241)
(-0.025587 0.135943 -0.0125326)
(0.00582329 0.0650517 0.000206171)
(0.00877695 0.0500288 -0.0111532)
(0.0700393 0.140429 -0.0321482)
(0.154239 0.205088 -0.0312125)
(0.195378 0.252397 -0.0176134)
(0.192499 0.288597 -0.0120372)
(0.168606 0.323794 -0.0127163)
(0.140006 0.364637 -0.00230653)
(0.10935 0.401166 0.00552031)
(0.084058 0.429388 0.0137236)
(0.0562307 0.449853 0.0290007)
(0.0280523 0.454557 0.0374952)
(0.0114381 0.455339 0.0471587)
(-0.0122196 0.442202 0.0469879)
(-0.0417945 0.421187 0.0501281)
(-0.068272 0.392829 0.0471114)
(-0.0993041 0.36187 0.03986)
(-0.1323 0.331728 0.0314735)
(-0.165349 0.305544 0.0233198)
(-0.200134 0.291465 0.0141419)
(-0.241187 0.275937 0.00264094)
(-0.29288 0.270096 -0.00674671)
(-0.329836 0.276306 -0.010948)
(-0.274087 0.26531 0.000275332)
(-0.228714 0.248761 7.95958e-05)
(-0.25592 0.236508 0.0122508)
(-0.294529 0.223779 0.0212238)
(-0.338748 0.207652 0.0301191)
(-0.376635 0.184541 0.0291492)
(-0.408219 0.15789 0.0187786)
(-0.431683 0.127999 0.0304658)
(-0.445996 0.0934704 0.0315653)
(-0.448166 0.0650686 0.0190066)
(-0.435472 0.0513417 0.0135985)
(-0.402269 0.0477195 0.00655583)
(-0.365184 0.0633139 9.97783e-05)
(-0.3345 0.108466 -0.0214811)
(-0.250664 0.150631 -0.02832)
(-0.124551 0.159247 -0.0234222)
(-0.0283966 0.139568 -0.0150115)
(0.00494252 0.0689983 -0.00137588)
(0.00937499 0.0700895 -0.0117016)
(0.0762388 0.182593 -0.0359191)
(0.166129 0.249317 -0.034243)
(0.208135 0.284979 -0.0175689)
(0.212567 0.314105 -0.00984381)
(0.197988 0.345852 -0.00647123)
(0.175113 0.377052 -0.00494829)
(0.148223 0.401151 0.00866364)
(0.121737 0.420461 0.0131353)
(0.0977936 0.428709 0.0256211)
(0.0750526 0.430953 0.0362958)
(0.047139 0.419445 0.052134)
(0.0219002 0.392523 0.0553202)
(-0.00239253 0.358723 0.0549472)
(-0.0342715 0.327039 0.0473855)
(-0.069115 0.294919 0.0363665)
(-0.106582 0.267808 0.0253557)
(-0.139264 0.246973 0.0168237)
(-0.178228 0.237863 0.00682572)
(-0.222782 0.22755 -0.000607292)
(-0.268253 0.226531 -0.00776137)
(-0.299718 0.231812 -0.0106086)
(-0.254256 0.251772 -0.00267379)
(-0.213511 0.231318 -0.00342398)
(-0.237965 0.211063 0.00740711)
(-0.273542 0.193021 0.0169025)
(-0.320812 0.173336 0.0236585)
(-0.362254 0.149817 0.0201303)
(-0.398455 0.121849 0.037327)
(-0.431423 0.086812 0.0449182)
(-0.45321 0.0535664 0.0407319)
(-0.454928 0.0278543 0.0517073)
(-0.447841 0.00424422 0.0403726)
(-0.432356 0.000508621 0.0339238)
(-0.396126 0.0104026 0.0250496)
(-0.351568 0.0568056 0.00376835)
(-0.263157 0.111043 -0.0247688)
(-0.138389 0.14787 -0.0248369)
(-0.0343859 0.138006 -0.0141857)
(0.00608316 0.0724474 -0.00133386)
(0.00990767 0.0890581 -0.0113915)
(0.0791465 0.220856 -0.0388802)
(0.169776 0.288393 -0.0375255)
(0.21837 0.317092 -0.0189379)
(0.233851 0.339441 -0.00605397)
(0.22664 0.362418 0.000381813)
(0.205836 0.383968 0.00480721)
(0.181175 0.397459 0.0059468)
(0.15998 0.406684 0.0163379)
(0.136639 0.407975 0.0264297)
(0.109947 0.398284 0.035572)
(0.0834297 0.379155 0.0425201)
(0.0508206 0.350732 0.0548968)
(0.0207133 0.314347 0.0549839)
(-0.0075739 0.274792 0.0462829)
(-0.0446681 0.248767 0.0308656)
(-0.0836077 0.223638 0.0190982)
(-0.115836 0.20879 0.0108469)
(-0.15445 0.201434 0.00153778)
(-0.196792 0.19742 -0.00277224)
(-0.235346 0.197037 -0.00785703)
(-0.247772 0.212023 -0.00657569)
(-0.212519 0.242833 -0.00271288)
(-0.19795 0.217869 -0.00281245)
(-0.215435 0.18588 0.00392396)
(-0.247962 0.160598 0.0118333)
(-0.291818 0.133818 0.0165153)
(-0.334592 0.110863 0.0288358)
(-0.378496 0.0779427 0.0418445)
(-0.415959 0.0467114 0.0461128)
(-0.438442 0.0136923 0.0658933)
(-0.464427 -0.0241841 0.0470448)
(-0.472177 -0.065817 0.0356442)
(-0.454369 -0.0868688 0.0151582)
(-0.414591 -0.0742962 0.00440487)
(-0.370096 -0.025204 0.00982986)
(-0.284467 0.0598805 -0.00252326)
(-0.15236 0.11602 -0.0310816)
(-0.039336 0.130173 -0.0144034)
(0.00655178 0.0731556 -0.00294411)
(0.00872562 0.0968316 -0.0103663)
(0.0777394 0.246126 -0.0410175)
(0.170658 0.317735 -0.0418343)
(0.225102 0.343549 -0.0221145)
(0.251064 0.35729 -0.00370788)
(0.250953 0.367065 0.00650687)
(0.232283 0.378506 0.0124049)
(0.209435 0.386566 0.0161049)
(0.189517 0.391689 0.0188138)
(0.166832 0.385811 0.0229512)
(0.143315 0.370806 0.0285324)
(0.112058 0.345838 0.0392529)
(0.0783492 0.313155 0.0412944)
(0.0421388 0.279186 0.048474)
(0.0120735 0.242035 0.0431552)
(-0.0206692 0.211727 0.0235493)
(-0.0621101 0.193617 0.0132642)
(-0.0902017 0.182927 0.00605617)
(-0.125692 0.174756 -0.00213861)
(-0.164443 0.171351 -0.00445874)
(-0.186876 0.176951 -0.00462673)
(-0.180312 0.206864 0.000299645)
(-0.167141 0.217517 -0.000737579)
(-0.17926 0.19188 -0.000281115)
(-0.195835 0.159184 0.00218348)
(-0.218001 0.122131 0.00824281)
(-0.255427 0.097013 0.0120287)
(-0.296801 0.0668145 0.0300668)
(-0.340271 0.0393696 0.0382916)
(-0.378297 0.00902217 0.0596805)
(-0.426251 -0.0332643 0.0447904)
(-0.468044 -0.0870881 0.0381044)
(-0.48601 -0.130868 0.0247634)
(-0.47436 -0.163261 0.0142183)
(-0.433848 -0.166722 -0.0047523)
(-0.37246 -0.124739 -0.00679748)
(-0.290665 -0.0220198 -0.000177794)
(-0.171531 0.0761048 -0.0167923)
(-0.0434416 0.116955 -0.0196664)
(0.0071943 0.0741815 -0.00192622)
(0.00731726 0.105542 -0.00936341)
(0.0753864 0.269648 -0.0411686)
(0.169049 0.345856 -0.0435755)
(0.22995 0.369346 -0.0234219)
(0.262188 0.375361 -0.00301614)
(0.267972 0.372883 0.0115201)
(0.257676 0.375474 0.0203002)
(0.240451 0.377509 0.0229345)
(0.221463 0.375193 0.0254315)
(0.196895 0.362996 0.026875)
(0.169064 0.343191 0.0284934)
(0.137657 0.313366 0.0260441)
(0.100744 0.282067 0.0279686)
(0.06301 0.246012 0.0280227)
(0.0276499 0.219885 0.0306238)
(-0.00301518 0.187144 0.0169114)
(-0.0332871 0.171665 0.00736207)
(-0.0636262 0.16374 0.000754645)
(-0.0963321 0.150342 -0.00420159)
(-0.120842 0.156058 -0.00289292)
(-0.119501 0.173813 0.00179835)
(-0.120333 0.189154 0.00325051)
(-0.133011 0.179248 0.00404344)
(-0.154065 0.156946 0.00296976)
(-0.174368 0.130764 0.00339619)
(-0.190235 0.0922503 0.00512413)
(-0.217643 0.0628831 0.0163981)
(-0.253943 0.032151 0.0256195)
(-0.290956 0.00346295 0.0449537)
(-0.34387 -0.0367858 0.0390641)
(-0.399355 -0.0903356 0.0374775)
(-0.447321 -0.142816 0.0281089)
(-0.477543 -0.196052 0.017973)
(-0.482036 -0.236995 0.00332219)
(-0.448567 -0.256281 -0.0106587)
(-0.38318 -0.224612 -0.0198095)
(-0.292611 -0.135095 -0.0187007)
(-0.177692 0.0123211 0.000640755)
(-0.053552 0.0921601 -0.0270459)
(0.00658718 0.0741315 -0.00331489)
(0.00523505 0.0878866 -0.00747004)
(0.0701279 0.266179 -0.0396913)
(0.164075 0.348273 -0.0418499)
(0.229793 0.370994 -0.0222562)
(0.268951 0.370747 0.000713902)
(0.283484 0.363571 0.0146591)
(0.279844 0.362111 0.020026)
(0.262396 0.356852 0.0229112)
(0.241841 0.350369 0.0245875)
(0.217989 0.337608 0.0248596)
(0.191989 0.317549 0.0239628)
(0.159749 0.290665 0.0202158)
(0.12275 0.256889 0.0164173)
(0.0868811 0.223861 0.010093)
(0.0505046 0.196517 0.0146514)
(0.01733 0.173201 0.0067671)
(-0.00756493 0.158995 0.00138244)
(-0.0365664 0.148695 -0.00450164)
(-0.0563819 0.147437 -0.00244608)
(-0.0589248 0.158569 0.000253457)
(-0.0660154 0.166451 0.00382887)
(-0.082035 0.155778 0.00716975)
(-0.100942 0.141918 0.00762612)
(-0.124127 0.121998 0.00671478)
(-0.14962 0.102839 0.00584822)
(-0.16606 0.0702206 0.00754998)
(-0.185208 0.0341112 0.0155819)
(-0.214262 0.00415294 0.0292448)
(-0.255569 -0.0327713 0.0279732)
(-0.309415 -0.0779684 0.0316708)
(-0.364515 -0.126013 0.0287857)
(-0.416898 -0.182723 0.0251096)
(-0.454634 -0.241666 0.0160116)
(-0.470658 -0.296638 0.00303115)
(-0.449067 -0.329207 -0.0134294)
(-0.390713 -0.318955 -0.0272062)
(-0.287766 -0.238555 -0.031527)
(-0.176319 -0.0857432 -0.0202172)
(-0.0566431 0.0493564 -0.0192763)
(0.00860934 0.0632434 -0.00889929)
(0.00391298 0.102365 -0.00660432)
(0.0657568 0.286059 -0.0373402)
(0.158503 0.372135 -0.042172)
(0.230268 0.393292 -0.0212412)
(0.278803 0.388368 0.00323871)
(0.304133 0.373658 0.0139019)
(0.305886 0.36179 0.0197129)
(0.291448 0.349244 0.0209026)
(0.273908 0.336842 0.018724)
(0.248112 0.316126 0.0152545)
(0.2189 0.289865 0.012099)
(0.18273 0.259554 0.00738947)
(0.14155 0.230681 0.00400802)
(0.104896 0.203233 0.000843637)
(0.0700988 0.185952 0.00121974)
(0.0439894 0.175407 -0.00173157)
(0.0213912 0.169785 -0.0048136)
(0.00349701 0.164963 -0.00351429)
(-0.00521433 0.168553 -0.00090101)
(-0.0166764 0.162421 0.00219119)
(-0.0332303 0.145747 0.00552016)
(-0.0528328 0.127983 0.0091821)
(-0.0721913 0.110072 0.009653)
(-0.0948866 0.0919204 0.00901783)
(-0.122919 0.0746026 0.00930481)
(-0.147884 0.0549106 0.00420718)
(-0.162138 0.0176681 0.00676498)
(-0.186115 -0.0166196 0.00984336)
(-0.223607 -0.0613246 0.0160528)
(-0.269512 -0.106069 0.0182217)
(-0.322981 -0.158031 0.0196443)
(-0.375907 -0.2183 0.0174086)
(-0.418316 -0.283914 0.0116477)
(-0.443972 -0.351016 0.000454918)
(-0.435644 -0.400896 -0.0153808)
(-0.387317 -0.411484 -0.0321872)
(-0.29608 -0.345973 -0.0483157)
(-0.182103 -0.190633 -0.0354812)
(-0.0577881 0.00509686 -0.00910116)
(0.00613121 0.0656199 -0.0105841)
(-0.00594487 0.0770072 -0.0151045)
(0.0459144 0.270814 -0.0400598)
(0.140458 0.366753 -0.046371)
(0.219515 0.388956 -0.027356)
(0.277371 0.384404 -0.00776256)
(0.310733 0.362145 0.00453132)
(0.32025 0.343027 0.0106276)
(0.306832 0.325313 0.0115046)
(0.284525 0.318265 0.0108988)
(0.256509 0.312583 0.00795545)
(0.230463 0.305749 0.00613985)
(0.201894 0.291511 0.0032195)
(0.1684 0.27427 0.00145303)
(0.13922 0.253502 5.38833e-05)
(0.11245 0.234051 0.00306299)
(0.0847445 0.221349 -0.00320555)
(0.0622616 0.206835 -0.00902816)
(0.0426792 0.19013 -0.0066906)
(0.0236851 0.174447 -0.00502324)
(0.00310513 0.152288 -0.000731235)
(-0.0142981 0.128585 0.00473407)
(-0.0306694 0.105898 0.00819166)
(-0.0492466 0.0858727 0.00916178)
(-0.0699369 0.0670482 0.00971308)
(-0.0935082 0.0493086 0.00516328)
(-0.123417 0.032768 0.00168102)
(-0.147324 0.00855705 0.00209167)
(-0.170726 -0.0276648 -0.000990531)
(-0.205447 -0.065786 0.00202912)
(-0.246271 -0.109028 0.00681771)
(-0.293848 -0.158714 0.0109815)
(-0.342508 -0.222639 0.0124392)
(-0.383927 -0.296108 0.00929986)
(-0.411838 -0.376136 0.000201825)
(-0.410191 -0.444255 -0.0136222)
(-0.369238 -0.475904 -0.0322026)
(-0.276739 -0.440426 -0.0551468)
(-0.163393 -0.30712 -0.0577152)
(-0.0434941 -0.0906159 -0.0219876)
(0.0101695 0.0319546 -0.00831397)
(-0.00730704 0.176265 -0.00927632)
(0.0411071 0.389092 -0.0245431)
(0.128586 0.489128 -0.0350055)
(0.209062 0.512925 -0.015207)
(0.273903 0.501618 -0.00622997)
(0.315659 0.471954 0.0104154)
(0.336247 0.436914 0.0141652)
(0.340524 0.422298 0.0155765)
(0.339631 0.425301 0.0101812)
(0.319274 0.423456 0.00421151)
(0.287712 0.412515 -0.00195807)
(0.246636 0.388215 -0.00615734)
(0.200886 0.354995 -0.00895246)
(0.158861 0.319291 -0.00812459)
(0.126062 0.281587 -0.00643897)
(0.100358 0.247109 -0.00246793)
(0.0715712 0.217178 -0.00803269)
(0.0518232 0.188994 -0.008316)
(0.0386029 0.159004 -0.0061501)
(0.0192753 0.133435 -0.00333788)
(0.00163555 0.112671 0.00146167)
(-0.0148717 0.088062 0.00647782)
(-0.030543 0.0672876 0.00782181)
(-0.0501758 0.0462893 0.0108884)
(-0.0733039 0.0272214 0.00309228)
(-0.0993102 0.00932276 0.00620032)
(-0.124687 -0.0036424 0.0055413)
(-0.149997 -0.0268938 0.00209944)
(-0.177156 -0.0607585 -0.00361709)
(-0.212759 -0.110394 -0.00852536)
(-0.259691 -0.167096 -0.00981437)
(-0.309828 -0.233146 -0.00913841)
(-0.354036 -0.304785 -0.00823339)
(-0.38687 -0.39003 -0.0124999)
(-0.390894 -0.470934 -0.024642)
(-0.366991 -0.534269 -0.0542877)
(-0.301225 -0.524779 -0.0779655)
(-0.19494 -0.399405 -0.0748078)
(-0.0587719 -0.151951 -0.0442877)
(0.010083 0.0372583 -0.0066114)
(-0.0186454 0.258409 -0.0218132)
(0.0171384 0.49983 -0.0443176)
(0.106021 0.61037 -0.0531565)
(0.190035 0.652552 -0.0406852)
(0.260117 0.645821 -0.0297961)
(0.305944 0.619655 -0.0153013)
(0.343583 0.577923 -0.00486832)
(0.370579 0.549954 -0.00364323)
(0.364463 0.527521 -0.00775929)
(0.327425 0.49633 -0.00997283)
(0.283798 0.457613 -0.0103165)
(0.23678 0.412233 -0.010615)
(0.193371 0.362963 -0.00958481)
(0.158044 0.316769 -0.00834208)
(0.128404 0.272761 -0.0063297)
(0.103899 0.234035 -0.00383438)
(0.085532 0.198911 0.000305404)
(0.064815 0.172196 -0.00480355)
(0.0470998 0.144561 -0.00550737)
(0.0346781 0.118509 -0.00359555)
(0.0166668 0.0943516 -0.00143093)
(-0.00107829 0.0747892 0.00368527)
(-0.0166528 0.0493732 0.00672687)
(-0.0352706 0.0307373 0.00775729)
(-0.0534525 0.0120143 0.00644962)
(-0.0728026 -0.00356071 0.0100422)
(-0.0946518 -0.0171303 0.00980465)
(-0.127571 -0.0321163 0.00565027)
(-0.172114 -0.0547902 0.0040704)
(-0.212896 -0.0944311 0.00515787)
(-0.248374 -0.14491 0.00367748)
(-0.276519 -0.217037 -0.00155247)
(-0.304663 -0.310251 -0.0122057)
(-0.332443 -0.437104 -0.0228506)
(-0.349157 -0.557122 -0.0333379)
(-0.33815 -0.665762 -0.0548957)
(-0.270684 -0.699759 -0.0802726)
(-0.17167 -0.59432 -0.0889584)
(-0.0539211 -0.312273 -0.0679327)
(0.0109013 -0.0199045 -0.00989278)
(-0.000248686 0.223923 0.00178816)
(0.0366927 0.465212 -0.0342707)
(0.108445 0.589452 -0.0458392)
(0.189997 0.644061 -0.0413534)
(0.258056 0.646787 -0.0313801)
(0.306687 0.6255 -0.0214631)
(0.344038 0.58926 -0.0136906)
(0.36964 0.549487 -0.00636786)
(0.36615 0.50843 -0.00716894)
(0.330924 0.47093 -0.00639483)
(0.28745 0.432518 -0.00590138)
(0.239066 0.391813 -0.00480327)
(0.194487 0.347552 -0.00434833)
(0.157584 0.305283 -0.00302185)
(0.130326 0.261956 -0.00347013)
(0.110712 0.223591 -0.00151208)
(0.0910394 0.185745 -0.00157039)
(0.0767257 0.154227 0.000775721)
(0.0621194 0.130054 0.000769016)
(0.0438088 0.104539 -0.00316151)
(0.0305081 0.0836257 -0.000843418)
(0.0111039 0.0610065 0.00115811)
(-0.00448246 0.042576 0.00882547)
(-0.0171232 0.0214688 0.00764842)
(-0.0351763 0.00418228 0.00677339)
(-0.052457 -0.0116875 0.00988893)
(-0.0707852 -0.0282192 0.0112923)
(-0.0953782 -0.0451579 0.010346)
(-0.132599 -0.0570234 0.00666688)
(-0.174603 -0.0706397 0.00521833)
(-0.224786 -0.0961138 0.00464335)
(-0.283104 -0.14549 0.00593921)
(-0.343228 -0.221717 0.00835617)
(-0.36978 -0.336757 0.00659771)
(-0.361683 -0.464184 -0.00192153)
(-0.342238 -0.60443 -0.0152704)
(-0.276706 -0.693494 -0.0319194)
(-0.166455 -0.677691 -0.0560708)
(-0.0317018 -0.424279 -0.0551447)
(0.0251709 -0.0598334 -0.0018696)
(-0.000129099 0.241144 0.000696745)
(0.0362343 0.457638 -0.0282897)
(0.103447 0.580314 -0.0386711)
(0.179032 0.63654 -0.0363449)
(0.245845 0.64194 -0.0220538)
(0.295614 0.619807 -0.0157326)
(0.336972 0.581351 -0.00647248)
(0.364227 0.541129 -0.00110997)
(0.361598 0.494905 -0.000868449)
(0.328949 0.455672 -0.000257453)
(0.284401 0.414685 -1.97625e-05)
(0.235036 0.372454 0.000157978)
(0.192888 0.330287 -3.42352e-05)
(0.159489 0.29049 -0.000549114)
(0.132955 0.250946 -0.000798852)
(0.112175 0.212158 0.000165488)
(0.0981641 0.173571 0.00148712)
(0.0882227 0.140423 0.00294893)
(0.0734072 0.113104 0.00300991)
(0.0612983 0.0903841 0.00555985)
(0.0436234 0.0710291 0.00186652)
(0.026508 0.0523062 0.00156971)
(0.0115987 0.0337835 0.00538704)
(-0.00561095 0.0173464 0.00638324)
(-0.0170026 -0.00409291 0.0074473)
(-0.0324736 -0.019553 0.00863992)
(-0.0500922 -0.0387452 0.0102269)
(-0.0699744 -0.05837 0.0111854)
(-0.0981873 -0.0767702 0.0115974)
(-0.132923 -0.0947997 0.0102217)
(-0.175299 -0.11457 0.0105151)
(-0.215747 -0.146368 0.0103963)
(-0.268229 -0.18423 0.0105474)
(-0.310865 -0.248536 0.00992292)
(-0.341111 -0.343973 0.00601657)
(-0.356757 -0.484709 0.000561293)
(-0.326698 -0.593408 -0.0123246)
(-0.228016 -0.626683 -0.0350928)
(-0.0570147 -0.418591 -0.0490661)
(0.0281144 -0.0211282 -0.0225952)
(0.00644137 0.213394 0.000536778)
(0.0436073 0.410372 -0.0234844)
(0.10358 0.54006 -0.0323698)
(0.176457 0.600948 -0.0314575)
(0.241179 0.61608 -0.0189256)
(0.290792 0.597265 -0.0116914)
(0.334217 0.561421 -0.00232678)
(0.359167 0.518253 0.00216668)
(0.35718 0.468548 0.0029204)
(0.327811 0.426331 0.00319465)
(0.282538 0.38462 0.00377841)
(0.235578 0.345859 0.00417454)
(0.19631 0.308954 0.00349708)
(0.163757 0.272668 0.00300034)
(0.137781 0.235645 0.00219529)
(0.118139 0.199422 0.0026989)
(0.102086 0.164765 0.00383126)
(0.0961199 0.130272 0.0062624)
(0.0884552 0.102312 0.00629456)
(0.0745445 0.0772618 0.00554053)
(0.062306 0.061477 0.00607421)
(0.0418468 0.0426933 0.00531842)
(0.0275949 0.0274815 0.00389074)
(0.0122112 0.0107429 0.00350265)
(-0.00361647 -0.00526597 0.00720284)