/*--------------------------------*- C++ -*----------------------------------*\
| =========                 |                                                 |
| \\      /  F ield         | OpenFOAM: The Open Source CFD Toolbox           |
|  \\    /   O peration     | Version:  v1806                                 |
|   \\  /    A nd           | Web:      www.OpenFOAM.com                      |
|    \\/     M anipulation  |                                                 |
\*---------------------------------------------------------------------------*/
FoamFile
{
    version     2.0;
    format      ascii;
    class       volVectorField;
    location    "0.031";
    object      U;
}
// * * * * * * * * * * * * * * * * * * * * * * * * * * * * * * * * * * * * * //

dimensions      [0 1 -1 0 0 0 0];


internalField   nonuniform List<vector> 
64000
(
(-0.00515981 -0.00681241 -0.00217036)
(0.0132463 -0.00788532 -0.000863565)
(0.0268855 -0.00491315 0.00210728)
(0.0335249 -0.00455451 0.00244689)
(0.0275645 -0.00335984 0.00309228)
(0.0216238 -0.00233799 0.00453808)
(0.0206273 -0.00305935 0.00431699)
(0.0163264 -0.0032882 0.0042409)
(0.0137927 -0.00431648 0.0053501)
(0.00798072 -0.004055 0.0048139)
(-0.000472806 -0.00738865 0.00583306)
(-0.0178453 -0.0102147 0.00701027)
(-0.0403729 -0.0142767 0.006486)
(-0.0682335 -0.0165151 0.0045777)
(-0.103362 -0.0146502 0.00524023)
(-0.139071 -0.00626333 0.00398659)
(-0.180173 0.00496776 0.00355598)
(-0.215918 -0.000245227 0.00437188)
(-0.249756 -0.00995639 0.00478317)
(-0.271711 -0.0222917 -0.00922426)
(-0.280342 -0.0352365 -0.0386799)
(-0.156874 -0.0240961 -0.0364731)
(-0.0829269 -0.0210237 -0.0352139)
(-0.0976373 -0.0063382 -0.0366611)
(-0.0822873 -0.00135035 -0.0499714)
(-0.0880687 0.00930151 -0.057383)
(-0.0676563 0.0182977 -0.0636603)
(-0.0435507 0.0305877 -0.0581189)
(-0.00995161 0.0396298 -0.0487822)
(0.0338047 0.0541046 -0.0299852)
(0.0801708 0.0418781 -0.0307786)
(0.113039 0.0348007 -0.0211064)
(0.126923 0.0238486 -0.0090568)
(0.122658 0.0100186 -0.00230873)
(0.105625 0.00199323 0.00337385)
(0.082516 -0.00553708 0.00546165)
(0.058622 -0.00834259 0.00789491)
(0.0362273 -0.00674582 0.00880882)
(0.01824 -0.00511982 0.00887872)
(0.00367078 -0.00375996 0.00732814)
(-0.00355378 -0.00698046 -0.000372982)
(0.0131672 -0.0179054 -0.000485879)
(0.0358603 -0.0152213 0.000676872)
(0.0487227 -0.0114496 0.00028664)
(0.0471945 -0.00611965 0.000716766)
(0.0405471 -0.00186198 -0.000144857)
(0.0375956 0.00209439 -0.00200512)
(0.0296643 0.00467578 -0.00176978)
(0.0213799 0.00865184 -0.00689091)
(0.00334017 0.0171127 -0.00384427)
(-0.0226702 0.0248814 -0.0074515)
(-0.0606716 0.0356846 0.000265501)
(-0.10813 0.0494469 -0.003438)
(-0.161183 0.0709357 -0.0058239)
(-0.22165 0.079529 -0.00892502)
(-0.287821 0.0867606 -0.0196652)
(-0.384466 0.0917891 -0.041282)
(-0.480765 0.0966607 -0.0556927)
(-0.557203 0.0998911 -0.0736216)
(-0.611882 0.104444 -0.0957115)
(-0.615721 0.110578 -0.117189)
(-0.474476 0.140209 -0.127191)
(-0.385896 0.167797 -0.14778)
(-0.382766 0.20672 -0.151964)
(-0.344678 0.228644 -0.162687)
(-0.314656 0.253415 -0.168431)
(-0.254416 0.271237 -0.170453)
(-0.188447 0.287301 -0.160794)
(-0.108826 0.296235 -0.138672)
(-0.0434517 0.302036 -0.11355)
(0.0225154 0.28538 -0.0745504)
(0.0913789 0.254975 -0.0488085)
(0.123957 0.201844 -0.0385683)
(0.136764 0.155334 -0.0276218)
(0.129236 0.106868 -0.0136708)
(0.106927 0.0671448 -0.0058694)
(0.0843512 0.0395793 -0.0012145)
(0.0585486 0.0247019 0.000219776)
(0.0337681 0.0148722 0.00204067)
(0.00974304 0.00553293 0.00406737)
(-0.000119202 -0.0163092 0.00186858)
(0.0176809 -0.0269512 -0.000604102)
(0.0428408 -0.0220189 -0.00093736)
(0.0572793 -0.0108248 0.000100488)
(0.0535188 4.03364e-05 -0.00245613)
(0.0442185 0.0165476 -0.00346209)
(0.0354772 0.0293839 -0.00516064)
(0.0195519 0.0452224 -0.00776826)
(0.00489082 0.0709492 -0.000726421)
(-0.0224625 0.0965412 -0.00450284)
(-0.0621702 0.125757 -0.0083025)
(-0.115537 0.15642 -0.0123821)
(-0.176542 0.183142 -0.0171169)
(-0.264755 0.203544 -0.0301101)
(-0.371116 0.22193 -0.0326337)
(-0.466212 0.234302 -0.0437478)
(-0.560659 0.243507 -0.0571441)
(-0.641192 0.268669 -0.0717929)
(-0.708849 0.295721 -0.0888724)
(-0.750564 0.329909 -0.108491)
(-0.738843 0.361993 -0.12172)
(-0.574983 0.393928 -0.120646)
(-0.462246 0.438324 -0.132543)
(-0.447034 0.480533 -0.124907)
(-0.402218 0.508238 -0.125564)
(-0.367976 0.531042 -0.122915)
(-0.308621 0.541676 -0.118891)
(-0.245693 0.542523 -0.107708)
(-0.175281 0.532355 -0.0875568)
(-0.110087 0.509855 -0.0642955)
(-0.0545065 0.488474 -0.0415071)
(-0.0160896 0.442144 -0.0271487)
(0.0195504 0.376661 -0.0114097)
(0.0477094 0.304015 -0.00663969)
(0.0524663 0.229901 -0.00992242)
(0.0534744 0.165124 -0.00947902)
(0.0505487 0.113788 -0.00672578)
(0.0408511 0.0757279 -0.00408367)
(0.0277418 0.0487987 -0.000369367)
(0.00926825 0.0201473 0.00329182)
(0.000223413 -0.023287 0.00147142)
(0.0202031 -0.0318144 -0.00292397)
(0.0488909 -0.0199664 -0.00196747)
(0.0610398 5.23121e-05 -0.00376594)
(0.058273 0.0237827 -0.00545259)
(0.0442798 0.0591776 -0.00676657)
(0.0265339 0.0960144 -0.00607497)
(0.0115212 0.132601 -0.00345382)
(-0.013172 0.174323 -0.00856943)
(-0.0591312 0.205342 -0.0112092)
(-0.114802 0.234029 -0.0153422)
(-0.190602 0.258158 -0.0218919)
(-0.281028 0.28763 -0.0254294)
(-0.368161 0.303492 -0.0268704)
(-0.453191 0.333939 -0.0299553)
(-0.535844 0.365246 -0.0398495)
(-0.616819 0.397675 -0.0490232)
(-0.684169 0.432303 -0.0557432)
(-0.734875 0.465994 -0.0627734)
(-0.762076 0.507296 -0.0700372)
(-0.737861 0.538022 -0.0664079)
(-0.555525 0.561687 -0.0480157)
(-0.428801 0.592642 -0.0499614)
(-0.413424 0.613758 -0.0326113)
(-0.374285 0.622127 -0.0262918)
(-0.349264 0.624003 -0.0197429)
(-0.304217 0.613018 -0.0162958)
(-0.258332 0.592098 -0.0111603)
(-0.206084 0.565239 -0.000731025)
(-0.157966 0.529615 0.00675498)
(-0.120234 0.489995 0.0122177)
(-0.0928602 0.446488 0.0134218)
(-0.0760813 0.403214 0.00915834)
(-0.0546997 0.345404 0.00279923)
(-0.0344199 0.27939 -0.00198426)
(-0.0170823 0.206496 -0.0074247)
(-0.000229196 0.144038 -0.00893929)
(0.0108306 0.107011 -0.00658234)
(0.0169449 0.0724604 -0.00250388)
(0.00775003 0.029167 0.00269714)
(0.00164745 -0.026404 0.00079158)
(0.0258646 -0.027013 -0.0041447)
(0.0582006 -0.00731417 -0.0014195)
(0.0720022 0.022529 -0.0038105)
(0.0716004 0.0608236 -0.0040149)
(0.0608114 0.112033 -0.0147756)
(0.034334 0.168964 -0.0105452)
(0.000209569 0.214354 -0.00407515)
(-0.0449734 0.249573 -0.00657479)
(-0.109123 0.28075 -0.00924498)
(-0.174964 0.31124 -0.0126813)
(-0.23857 0.338554 -0.0150036)
(-0.30932 0.374819 -0.0198785)
(-0.387519 0.412335 -0.0188525)
(-0.461216 0.451257 -0.0181552)
(-0.530294 0.487953 -0.0199605)
(-0.593086 0.522689 -0.0183458)
(-0.642161 0.559097 -0.0141651)
(-0.674686 0.594416 -0.0103191)
(-0.690638 0.634145 -0.0161224)
(-0.665534 0.66119 -0.00997553)
(-0.480009 0.673995 0.0147578)
(-0.35264 0.679865 0.0167642)
(-0.343422 0.672014 0.035905)
(-0.317204 0.650506 0.038724)
(-0.310932 0.626606 0.0450429)
(-0.288462 0.592777 0.0467844)
(-0.261556 0.55445 0.0480967)
(-0.23105 0.513329 0.0431682)
(-0.205036 0.470978 0.036001)
(-0.181235 0.426403 0.0267515)
(-0.162953 0.383895 0.0190567)
(-0.147423 0.347744 0.0133513)
(-0.135945 0.311395 0.00388347)
(-0.131672 0.268199 -0.00719698)
(-0.108924 0.202498 -0.0105595)
(-0.0569481 0.151975 -0.010261)
(-0.0160268 0.122685 -0.00944792)
(0.0028788 0.0885899 -0.00384301)
(0.0050937 0.035018 0.00293757)
(0.00470037 -0.0289559 0.000867288)
(0.0332974 -0.0211521 -0.00435396)
(0.0682849 0.00846614 -0.00499283)
(0.0835548 0.0497038 -0.00601118)
(0.0872633 0.0965238 -0.00649253)
(0.075299 0.159017 -0.0143518)
(0.0336042 0.200196 -0.00270422)
(-0.0206133 0.249642 0.000770803)
(-0.0728183 0.288899 -0.00307939)
(-0.129708 0.333676 -0.00624064)
(-0.186383 0.378726 -0.00843294)
(-0.244637 0.421831 -0.00861808)
(-0.304241 0.459029 -0.00686429)
(-0.361288 0.494704 -0.00139637)
(-0.415806 0.53082 0.00201456)
(-0.469008 0.566635 0.0045368)
(-0.516859 0.60305 0.00631742)
(-0.551945 0.644849 0.0110825)
(-0.574173 0.681272 0.0129814)
(-0.58525 0.714651 0.0105888)
(-0.560969 0.736122 0.0195267)
(-0.387486 0.716795 0.0446475)
(-0.275378 0.667152 0.0472506)
(-0.28499 0.631784 0.0658778)
(-0.27755 0.583342 0.0716901)
(-0.287717 0.542293 0.0740133)
(-0.284335 0.497811 0.0708957)
(-0.277682 0.45398 0.0671647)
(-0.263072 0.40727 0.0635003)
(-0.250899 0.366907 0.0483465)
(-0.242241 0.326977 0.0368381)
(-0.228335 0.292576 0.0233486)
(-0.216797 0.264527 0.0108918)
(-0.201502 0.237788 0.00512068)
(-0.198583 0.215008 -0.00739228)
(-0.169367 0.186047 -0.0121164)
(-0.093287 0.15418 -0.0124708)
(-0.0360583 0.128481 -0.0108023)
(-0.00359141 0.0959657 -0.00581207)
(0.00427458 0.0368724 0.00288491)
(0.00598224 -0.0251289 -0.000816221)
(0.0416908 -0.00552303 -0.00657829)
(0.0850707 0.030518 -0.00979994)
(0.101078 0.0794691 -0.00717047)
(0.107574 0.134262 -0.00949369)
(0.0773254 0.191728 -0.00861594)
(0.0262164 0.226889 0.00403749)
(-0.0161348 0.279611 0.00140118)
(-0.0646341 0.335044 -0.000572986)
(-0.113356 0.388197 -0.00255765)
(-0.16281 0.438409 -0.00275946)
(-0.209217 0.482254 -0.000895142)
(-0.25703 0.519979 0.00141871)
(-0.303134 0.556605 0.00948344)
(-0.342666 0.588146 0.0113487)
(-0.378559 0.617611 0.0183684)
(-0.404752 0.645738 0.0252365)
(-0.427081 0.6778 0.0260518)
(-0.448501 0.704887 0.0269574)
(-0.460596 0.723128 0.0231157)
(-0.470456 0.732169 0.0268349)
(-0.358156 0.696532 0.0489899)
(-0.253335 0.598259 0.0479166)
(-0.254429 0.541281 0.0598207)
(-0.260935 0.488496 0.0634438)
(-0.28236 0.447753 0.0641085)
(-0.29576 0.408255 0.0607934)
(-0.304857 0.370759 0.0564031)
(-0.303015 0.332163 0.0474)
(-0.300348 0.297692 0.0363679)
(-0.296762 0.264785 0.0225584)
(-0.285967 0.238324 0.0126537)
(-0.274301 0.217965 0.00186525)
(-0.258672 0.207267 -0.00307375)
(-0.246386 0.196075 -0.0103134)
(-0.212357 0.189996 -0.0189603)
(-0.130368 0.163533 -0.0189132)
(-0.0544736 0.139998 -0.0154044)
(-0.00950451 0.105228 -0.00802904)
(0.00484243 0.0407024 0.00187165)
(0.00784221 -0.0187252 0.000279106)
(0.0465991 0.0185824 -0.0140204)
(0.0964625 0.0629639 -0.0146337)
(0.120061 0.115827 -0.0102506)
(0.121938 0.173115 -0.01303)
(0.0829081 0.215998 -0.00457932)
(0.0336572 0.268463 0.00198635)
(0.00453757 0.321099 0.00461073)
(-0.0341426 0.373548 0.00252245)
(-0.0766743 0.427538 0.00336251)
(-0.117215 0.47181 0.00531702)
(-0.157845 0.507735 0.0103937)
(-0.191891 0.53903 0.0172668)
(-0.222242 0.567056 0.0209434)
(-0.252249 0.588299 0.0254404)
(-0.279807 0.603892 0.0292368)
(-0.300757 0.614911 0.0329641)
(-0.318722 0.624232 0.0313928)
(-0.344546 0.630475 0.0265377)
(-0.368287 0.626778 0.021492)
(-0.397385 0.618056 0.0197763)
(-0.345334 0.605228 0.0335384)
(-0.270391 0.512873 0.0333221)
(-0.257623 0.448164 0.037241)
(-0.265291 0.399236 0.0406772)
(-0.29316 0.365844 0.0427874)
(-0.315653 0.335941 0.0430675)
(-0.334445 0.304568 0.0411985)
(-0.340444 0.272876 0.0350511)
(-0.344432 0.240793 0.0171363)
(-0.346466 0.209337 0.0125782)
(-0.335591 0.18389 0.00229378)
(-0.32011 0.169214 -0.00321372)
(-0.300088 0.165169 -0.00796471)
(-0.285699 0.172484 -0.0140062)
(-0.251779 0.186466 -0.0202603)
(-0.162783 0.171041 -0.0219894)
(-0.0724022 0.148569 -0.017623)
(-0.013903 0.113922 -0.00962121)
(0.00561718 0.0434924 0.00178136)
(0.00980671 -0.00504007 -0.00305516)
(0.0565142 0.0486027 -0.0211258)
(0.11524 0.102665 -0.0213671)
(0.141772 0.155988 -0.0135145)
(0.134515 0.203464 -0.0133545)
(0.0988947 0.246812 -0.0066546)
(0.0628899 0.305149 0.000893738)
(0.0330394 0.360018 0.00631806)
(0.00597558 0.402449 0.0119636)
(-0.0263654 0.442824 0.012181)
(-0.0659463 0.478106 0.015733)
(-0.0947553 0.50565 0.0221463)
(-0.119789 0.526148 0.0277098)
(-0.14608 0.536101 0.0303925)
(-0.170844 0.538199 0.0318994)
(-0.195026 0.532938 0.0320715)
(-0.213795 0.523468 0.0313921)
(-0.235926 0.517778 0.0251749)
(-0.273193 0.505354 0.0186984)
(-0.308344 0.499809 0.0138886)
(-0.340327 0.495477 0.0121003)
(-0.33265 0.505189 0.0182631)
(-0.301809 0.450984 0.0197089)
(-0.284443 0.390098 0.0184302)
(-0.284556 0.335878 0.0185928)
(-0.308697 0.309296 0.0229186)
(-0.337762 0.285296 0.0263189)
(-0.36379 0.257882 0.0296757)
(-0.376937 0.229654 0.0215514)
(-0.387735 0.194057 0.0105632)
(-0.391206 0.167768 0.000863407)
(-0.378654 0.14601 -0.00401708)
(-0.359927 0.131304 -0.011191)
(-0.332287 0.133641 -0.0160487)
(-0.301107 0.140949 -0.0177167)
(-0.272929 0.172183 -0.0236531)
(-0.194794 0.173057 -0.0249179)
(-0.0907893 0.158087 -0.0227979)
(-0.0188112 0.123548 -0.0120032)
(0.00586832 0.048896 0.000518508)
(0.00768881 0.0143322 -0.00900849)
(0.0599622 0.0899613 -0.0296037)
(0.129225 0.148195 -0.0286752)
(0.154641 0.193833 -0.0168546)
(0.150103 0.235079 -0.017349)
(0.12738 0.280377 -0.00787307)
(0.100791 0.334961 -0.00271026)
(0.0731267 0.381527 0.0121692)
(0.0418116 0.419902 0.0190858)
(0.0180976 0.446164 0.0259706)
(-0.00664019 0.466845 0.0267847)
(-0.0338662 0.479846 0.0334114)
(-0.0578612 0.484105 0.0381927)
(-0.0817078 0.477266 0.0382133)
(-0.107966 0.46189 0.0353901)
(-0.135607 0.438737 0.0304537)
(-0.155152 0.413248 0.0251386)
(-0.182944 0.396369 0.0134814)
(-0.221539 0.374385 0.00878491)
(-0.254339 0.383595 0.00620514)
(-0.287917 0.405346 0.00803975)
(-0.307479 0.428889 0.0111731)
(-0.322906 0.412746 0.0110053)
(-0.326942 0.365848 0.00904344)
(-0.313525 0.30267 0.00619521)
(-0.321047 0.269881 0.010637)
(-0.351281 0.246722 0.0171654)
(-0.380877 0.222809 0.0212187)
(-0.402502 0.192324 0.0187614)
(-0.414224 0.160641 0.00781169)
(-0.416278 0.131188 0.0122219)
(-0.411614 0.109307 0.016964)
(-0.39163 0.0914077 0.016303)
(-0.366551 0.0905066 0.00877099)
(-0.330625 0.105404 -0.0111531)
(-0.29145 0.136276 -0.0220882)
(-0.215494 0.169258 -0.0238143)
(-0.107167 0.158323 -0.0215843)
(-0.0240058 0.13143 -0.0124992)
(0.00678639 0.0521364 0.000948775)
(0.00906637 0.0308501 -0.0112871)
(0.0668466 0.130774 -0.0351947)
(0.139246 0.191663 -0.0329179)
(0.169382 0.230931 -0.0200549)
(0.172145 0.271199 -0.0157966)
(0.16014 0.311221 -0.0104243)
(0.139655 0.355939 -0.00117462)
(0.112663 0.391107 0.00736186)
(0.0881005 0.42027 0.014961)
(0.0623499 0.440743 0.0308471)
(0.0352903 0.448215 0.0377865)
(0.0166718 0.447295 0.0459092)
(-0.00433733 0.433725 0.0472458)
(-0.0325305 0.41125 0.0435223)
(-0.0636149 0.387152 0.0353209)
(-0.096604 0.353678 0.0255356)
(-0.117467 0.328103 0.0163069)
(-0.15081 0.298553 0.000471422)
(-0.18027 0.28845 0.00173712)
(-0.19153 0.312369 0.00409242)
(-0.227209 0.347404 0.00682084)
(-0.272919 0.375292 0.00971636)
(-0.323201 0.378195 0.00808938)
(-0.35831 0.351369 0.00524758)
(-0.347173 0.300803 0.00264103)
(-0.331763 0.239044 0.00306921)
(-0.352699 0.216214 0.00778247)
(-0.387481 0.188228 0.0125381)
(-0.413224 0.162114 0.00869573)
(-0.43229 0.1279 0.0275025)
(-0.442184 0.0925408 0.0302684)
(-0.441132 0.0619439 0.0209883)
(-0.428011 0.0495519 0.0131996)
(-0.393659 0.0451559 0.00952145)
(-0.347943 0.0616036 0.0015709)
(-0.299055 0.091165 -0.0162889)
(-0.230645 0.143239 -0.0269949)
(-0.126273 0.156451 -0.0222452)
(-0.0272134 0.13506 -0.0146069)
(0.00501979 0.0565965 0.000279692)
(0.0078554 0.0522709 -0.0130858)
(0.0675465 0.173098 -0.0397563)
(0.145437 0.235963 -0.0377104)
(0.183702 0.271911 -0.0221738)
(0.196411 0.305242 -0.0129808)
(0.191215 0.337654 -0.00630922)
(0.175378 0.369443 -0.0047724)
(0.151032 0.393129 0.00927543)
(0.126806 0.411439 0.0142782)
(0.104765 0.421461 0.0258923)
(0.0823331 0.423812 0.0347058)
(0.0558267 0.41408 0.0516863)
(0.0284281 0.389805 0.053113)
(0.0058403 0.356403 0.0489913)
(-0.0293112 0.324092 0.0318733)
(-0.065485 0.292943 0.0194016)
(-0.0955863 0.2706 0.00415229)
(-0.125244 0.239656 -0.00607804)
(-0.128612 0.255309 -0.000991315)
(-0.131822 0.272623 0.0021947)
(-0.171937 0.292471 0.00745708)
(-0.229726 0.316063 0.0116383)
(-0.300989 0.332714 0.00940056)
(-0.355586 0.321051 0.00580154)
(-0.37345 0.29108 0.00247342)
(-0.34897 0.223639 0.00295545)
(-0.34243 0.174771 0.00505296)
(-0.375152 0.151427 0.0063191)
(-0.406684 0.122477 0.0251592)
(-0.437869 0.0884469 0.0357817)
(-0.454805 0.0539403 0.0411037)
(-0.453505 0.0271765 0.0536991)
(-0.442208 0.00261917 0.0448642)
(-0.42597 -0.00383233 0.0331515)
(-0.386929 0.00812247 0.0239241)
(-0.322673 0.0479314 0.00250111)
(-0.236716 0.0953966 -0.023199)
(-0.13454 0.144072 -0.0235137)
(-0.0336111 0.132551 -0.0143364)
(0.00685621 0.0594068 -0.000531494)
(0.00654518 0.0659087 -0.0143914)
(0.0672929 0.208898 -0.0446132)
(0.150051 0.277503 -0.0432636)
(0.197118 0.30959 -0.0245527)
(0.218546 0.333575 -0.0102356)
(0.21947 0.353886 -0.00112077)
(0.205346 0.376452 0.0030696)
(0.182801 0.389404 0.00557269)
(0.16473 0.400719 0.0121114)
(0.144474 0.403075 0.0249345)
(0.118945 0.39599 0.0320426)
(0.0923667 0.379314 0.0395702)
(0.0604242 0.353132 0.0474655)
(0.0286442 0.320073 0.0448751)
(-0.00375563 0.279085 0.0280226)
(-0.0382765 0.254131 0.0106632)
(-0.0750211 0.231353 -0.00583696)
(-0.086337 0.226866 -0.00655135)
(-0.0811947 0.24056 -0.00434889)
(-0.0956521 0.238757 0.00319094)
(-0.12728 0.23815 0.0133912)
(-0.174515 0.247135 0.018997)
(-0.254948 0.27031 0.0131592)
(-0.329554 0.276406 0.00887155)
(-0.367357 0.259577 0.00383415)
(-0.364589 0.222915 0.00390511)
(-0.335974 0.147708 0.00444861)
(-0.349147 0.115589 0.0095925)
(-0.388165 0.0821118 0.0232453)
(-0.422205 0.0468249 0.0340331)
(-0.442843 0.0157775 0.057315)
(-0.462749 -0.0244076 0.0436437)
(-0.470431 -0.0661917 0.0337332)
(-0.448277 -0.0881671 0.0183643)
(-0.404873 -0.0765582 0.00385509)
(-0.349826 -0.0271588 0.0123687)
(-0.259325 0.0490046 -0.0025216)
(-0.142633 0.110861 -0.0309741)
(-0.0384434 0.126838 -0.0140108)
(0.00701365 0.0592933 -0.00223101)
(0.00515609 0.0798489 -0.0144141)
(0.0668129 0.241523 -0.0477245)
(0.153342 0.314715 -0.0485257)
(0.206421 0.342774 -0.0286237)
(0.234738 0.357252 -0.00936582)
(0.243166 0.365935 0.00398189)
(0.233718 0.375652 0.00917498)
(0.214124 0.38443 0.0130935)
(0.197659 0.38958 0.014977)
(0.176901 0.385129 0.0182441)
(0.154144 0.37243 0.0181365)
(0.12351 0.350981 0.0292762)
(0.0882452 0.320727 0.0273808)
(0.0507277 0.290244 0.0306934)
(0.0159243 0.254965 0.0189015)
(-0.0148179 0.231948 0.000653818)
(-0.0389173 0.221929 -0.00930086)
(-0.0441095 0.22921 -0.00784222)
(-0.0511919 0.225407 -0.00292366)
(-0.0691108 0.213429 0.00705373)
(-0.0949297 0.201684 0.0187676)
(-0.123133 0.19441 0.0266885)
(-0.189672 0.199079 0.0215083)
(-0.276178 0.224514 0.0115886)
(-0.328704 0.216624 0.00736396)
(-0.354748 0.204425 0.00618806)
(-0.336833 0.148995 0.00959333)
(-0.322475 0.0825749 0.0152925)
(-0.357095 0.0487642 0.0284598)
(-0.390576 0.0103749 0.0462278)
(-0.428436 -0.0354265 0.0366589)
(-0.4671 -0.0917234 0.0321485)
(-0.481125 -0.137675 0.0220343)
(-0.469954 -0.170143 0.0107985)
(-0.427033 -0.174085 -0.00209443)
(-0.355366 -0.131881 -0.00775502)
(-0.268035 -0.0334526 0.000738746)
(-0.159104 0.0667737 -0.0159366)
(-0.0416434 0.115459 -0.0182714)
(0.00606436 0.0608372 -0.00251804)
(0.00224605 0.0774464 -0.0142859)
(0.0621669 0.257685 -0.0479336)
(0.152106 0.336007 -0.0494748)
(0.212551 0.361614 -0.0291073)
(0.247692 0.367914 -0.00855409)
(0.259571 0.367894 0.00572029)
(0.257493 0.369356 0.0114461)
(0.24374 0.373656 0.0144707)
(0.228164 0.375314 0.0159466)
(0.207755 0.368184 0.0163925)
(0.181879 0.353508 0.0146547)
(0.149735 0.325219 0.0126475)
(0.11371 0.294523 0.00837584)
(0.074073 0.26687 0.013205)
(0.0400324 0.253554 0.00439589)
(0.0186982 0.246836 -0.00580599)
(0.000963101 0.249196 -0.0071986)
(-0.0109103 0.250824 -0.00202503)
(-0.0258705 0.233163 0.00373032)
(-0.0445555 0.213405 0.0128977)
(-0.0655834 0.191289 0.0190616)
(-0.0899227 0.172129 0.0242616)
(-0.130227 0.152156 0.0281611)
(-0.210211 0.169735 0.014688)
(-0.277579 0.170303 0.0105419)
(-0.313466 0.162242 0.0117865)
(-0.330622 0.139348 0.0104478)
(-0.313446 0.073318 0.017351)
(-0.317557 0.0144166 0.0239649)
(-0.362405 -0.0288392 0.0264204)
(-0.407858 -0.089712 0.0272389)
(-0.44781 -0.143625 0.0221607)
(-0.473218 -0.199308 0.0138002)
(-0.473519 -0.242188 0.00152298)
(-0.438905 -0.260738 -0.0119958)
(-0.370719 -0.229014 -0.0184646)
(-0.272376 -0.142932 -0.0210139)
(-0.157943 0.000150984 2.01026e-05)
(-0.0465534 0.0844204 -0.0265662)
(0.00448813 0.0581355 -0.00528724)
(0.00271471 0.0952658 -0.00849765)
(0.0609957 0.282859 -0.0453463)
(0.150196 0.364255 -0.0481072)
(0.215107 0.385959 -0.0283772)
(0.256893 0.383694 -0.00544477)
(0.278156 0.377067 0.00602689)
(0.283306 0.371805 0.0112614)
(0.273988 0.368784 0.0121876)
(0.259101 0.362975 0.0101426)
(0.237214 0.348951 0.00797894)
(0.207426 0.332673 0.00499445)
(0.170635 0.317395 0.00462091)
(0.139047 0.307547 0.00299518)
(0.11457 0.302336 0.00684376)
(0.0917218 0.302627 -0.00503688)
(0.0665522 0.295156 -0.00771549)
(0.0430267 0.287321 -0.00633924)
(0.0151414 0.274499 -0.00383968)
(-0.0112693 0.251371 0.00505723)
(-0.0287929 0.222822 0.0118105)
(-0.0485151 0.193751 0.0159306)
(-0.0694148 0.16647 0.0188445)
(-0.0936502 0.137902 0.0249567)
(-0.154126 0.128159 0.018719)
(-0.225474 0.132488 0.0108267)
(-0.266331 0.121092 0.00403466)
(-0.296331 0.107463 -0.0011027)
(-0.306993 0.0739087 0.00411911)
(-0.305955 0.00582493 0.0057044)
(-0.331385 -0.059197 0.0118415)
(-0.374753 -0.119607 0.0156723)
(-0.416398 -0.185404 0.0134169)
(-0.449326 -0.250726 0.00770621)
(-0.46147 -0.306777 -0.00309828)
(-0.437004 -0.34099 -0.0172409)
(-0.376584 -0.327814 -0.0322701)
(-0.277132 -0.246234 -0.0386502)
(-0.164829 -0.0913812 -0.0240857)
(-0.0487702 0.045546 -0.0180648)
(0.00894079 0.0549998 -0.0102016)
(-0.0075422 0.0882448 -0.0207884)
(0.0437128 0.287461 -0.0513296)
(0.138227 0.377638 -0.0545119)
(0.210254 0.400462 -0.035351)
(0.262838 0.395742 -0.01037)
(0.29186 0.382387 -0.00137275)
(0.302707 0.367456 0.00564806)
(0.295597 0.357581 0.00524671)
(0.278489 0.362709 0.0036868)
(0.260002 0.374182 0.00319348)
(0.245101 0.385573 0.00300099)
(0.227532 0.388581 0.00234124)
(0.203071 0.383836 0.00104586)
(0.168559 0.368663 0.00387744)
(0.124529 0.348095 -0.00691117)
(0.0874264 0.323921 -0.0101042)
(0.0593015 0.294924 -0.00902522)
(0.0319345 0.267784 -0.00470721)
(0.00396193 0.244335 0.00126556)
(-0.0168784 0.213007 0.00953567)
(-0.0330065 0.183575 0.0126561)
(-0.053858 0.155817 0.0147154)
(-0.0734685 0.127636 0.0196337)
(-0.116801 0.104379 0.0201854)
(-0.180636 0.0989134 0.011768)
(-0.227007 0.0867481 0.00450195)
(-0.25575 0.0726552 -0.000172938)
(-0.280087 0.055565 0.00160061)
(-0.300458 0.0122206 -0.000253796)
(-0.319707 -0.05365 -0.00304505)
(-0.351679 -0.126199 0.00072955)
(-0.389721 -0.192479 0.00506859)
(-0.417821 -0.269309 0.00282054)
(-0.433125 -0.347441 -0.00595569)
(-0.419686 -0.402965 -0.0198408)
(-0.367313 -0.411537 -0.0374987)
(-0.273591 -0.349321 -0.0570424)
(-0.161998 -0.203278 -0.0450122)
(-0.0446798 -0.00685477 -0.0104433)
(0.00937245 0.0450898 -0.0111263)
(-0.00561763 0.180335 -0.0147831)
(0.0436472 0.384063 -0.0391116)
(0.133128 0.478757 -0.0454017)
(0.20763 0.500766 -0.0282828)
(0.265789 0.491708 -0.00946068)
(0.300869 0.470372 0.000478692)
(0.319339 0.447193 0.00711643)
(0.335235 0.453049 0.00930339)
(0.348975 0.474437 0.00485751)
(0.342837 0.48717 -0.000111508)
(0.313897 0.486131 -0.00544226)
(0.267383 0.464415 -0.00653964)
(0.218929 0.429893 -0.00535496)
(0.174558 0.384135 -0.00173831)
(0.136436 0.344289 0.000582834)
(0.0971398 0.311405 -0.00527427)
(0.0674265 0.283037 -0.00683272)
(0.0454337 0.247666 -0.00415004)
(0.0166776 0.220703 -0.000399594)
(-0.00489211 0.193006 0.00776323)
(-0.0197198 0.161318 0.0115319)
(-0.0384137 0.134819 0.0131727)
(-0.0569247 0.10902 0.0161777)
(-0.0923848 0.0848396 0.0174079)
(-0.148853 0.0713937 0.00882295)
(-0.192 0.0570343 0.000499447)
(-0.217159 0.0468697 0.00268231)
(-0.243554 0.0315179 0.00380269)
(-0.274537 0.00649443 0.0027332)
(-0.308585 -0.0352626 -0.000403333)
(-0.32927 -0.101326 -0.00694652)
(-0.358973 -0.197273 -0.0161582)
(-0.40056 -0.28641 -0.0155939)
(-0.417627 -0.361462 -0.0173999)
(-0.399382 -0.43069 -0.0289093)
(-0.355512 -0.467402 -0.0536403)
(-0.279259 -0.439625 -0.0740624)
(-0.163129 -0.288577 -0.0651136)
(-0.0371292 -0.0862736 -0.0334111)
(0.0101845 0.0377851 -0.00937048)
(-0.0205447 0.297085 -0.029514)
(0.0180541 0.525766 -0.0469504)
(0.111922 0.630423 -0.0535149)
(0.191055 0.663772 -0.0371946)
(0.258884 0.656705 -0.0225236)
(0.301762 0.633727 -0.0109574)
(0.350751 0.601613 -0.000691607)
(0.392671 0.592631 -0.00194867)
(0.386922 0.580092 -0.0051242)
(0.352718 0.550426 -0.00697845)
(0.311153 0.508477 -0.00687453)
(0.266241 0.461806 -0.00605148)
(0.219487 0.415412 -0.00446898)
(0.176601 0.369036 -0.000565059)
(0.140016 0.327805 0.00125012)
(0.109913 0.288367 0.00504059)
(0.0770939 0.260215 -0.00164113)
(0.0507975 0.22928 -0.00294667)
(0.0310681 0.196331 0.000416556)
(0.00552917 0.171194 0.00450023)
(-0.00993403 0.140349 0.01129)
(-0.0253696 0.113716 0.0121928)
(-0.0426026 0.088457 0.0145654)
(-0.0722835 0.0655163 0.0155824)
(-0.123382 0.0473336 0.00697466)
(-0.161058 0.0352541 0.00528646)
(-0.182455 0.0250817 0.00546598)
(-0.209298 0.00862471 0.00680517)
(-0.238432 -0.00683444 0.00861515)
(-0.277027 -0.0296372 0.00551167)
(-0.335758 -0.0715996 0.00266962)
(-0.369197 -0.150035 0.00259506)
(-0.360711 -0.259672 -0.0137255)
(-0.365831 -0.397415 -0.0334493)
(-0.370768 -0.506729 -0.0537236)
(-0.347935 -0.582644 -0.077591)
(-0.263431 -0.57505 -0.0932304)
(-0.174128 -0.437684 -0.0993036)
(-0.054245 -0.171598 -0.0562113)
(0.0224024 0.0223404 -0.0162046)
(-0.00272486 0.284631 -0.0034162)
(0.0373591 0.531045 -0.0386999)
(0.116931 0.64997 -0.048578)
(0.195853 0.699068 -0.0405061)
(0.262364 0.698682 -0.0289209)
(0.30467 0.675762 -0.0191751)
(0.347862 0.643121 -0.00908106)
(0.385782 0.601325 -0.00411173)
(0.382894 0.562866 -0.00313751)
(0.352205 0.524362 -0.0016013)
(0.311634 0.484885 -0.00116967)
(0.265391 0.441346 -0.000376442)
(0.219212 0.394414 0.000932702)
(0.178613 0.348975 0.00174619)
(0.143753 0.305414 0.00373829)
(0.113623 0.267435 0.00509937)
(0.0901755 0.231836 0.0088794)
(0.0623126 0.204805 0.00210455)
(0.0383162 0.176031 0.000814454)
(0.0174708 0.148277 0.00418121)
(-0.000491514 0.12349 0.00963237)
(-0.0149748 0.0946197 0.011301)
(-0.0303056 0.0711487 0.0129655)
(-0.0579353 0.047864 0.014439)
(-0.101134 0.0278478 0.00525834)
(-0.131639 0.0187674 0.00796676)
(-0.153897 0.00439538 0.00877974)
(-0.174528 -0.00759014 0.0126647)
(-0.195601 -0.0195026 0.0126983)
(-0.233572 -0.0377245 0.010357)
(-0.283408 -0.06209 0.00830333)
(-0.347122 -0.09591 0.00316651)
(-0.41627 -0.17055 0.00107695)
(-0.421893 -0.301476 -0.00252031)
(-0.376962 -0.441505 -0.018227)
(-0.32774 -0.567097 -0.0355797)
(-0.246086 -0.628978 -0.0679988)
(-0.129559 -0.562732 -0.0765067)
(-0.0171499 -0.289693 -0.0749684)
(0.0194644 0.00149739 -0.00739981)
(0.00201328 0.288416 0.000526464)
(0.0402609 0.51039 -0.0314271)
(0.113145 0.63076 -0.0396705)
(0.1906 0.680994 -0.0343277)
(0.256486 0.681247 -0.0193675)
(0.303971 0.656038 -0.0120665)
(0.348959 0.623352 -0.00170544)
(0.386725 0.580569 0.000981378)
(0.385778 0.539871 0.00149507)
(0.353607 0.501501 0.00259812)
(0.311384 0.460587 0.00333099)
(0.26347 0.417213 0.00417788)
(0.217263 0.369909 0.00565486)
(0.177495 0.323895 0.00716815)
(0.146149 0.279542 0.00813863)
(0.121074 0.240947 0.00898349)
(0.0964904 0.205882 0.00952109)
(0.0749872 0.173965 0.00983599)
(0.0524647 0.14975 0.00949844)
(0.0284968 0.125059 0.00391031)
(0.00961822 0.104145 0.00867731)
(-0.00627101 0.0783676 0.0104142)
(-0.0187187 0.0558481 0.0120173)
(-0.0444496 0.0299719 0.0103261)
(-0.0792919 0.0152979 0.00834921)
(-0.107512 0.00348637 0.00937637)
(-0.125382 -0.00767412 0.0121464)
(-0.14004 -0.0178162 0.0133781)
(-0.161035 -0.0319026 0.0149886)
(-0.190846 -0.0508396 0.0150904)
(-0.236053 -0.072899 0.0134403)
(-0.286682 -0.105857 0.01248)
(-0.339908 -0.144735 0.00666697)
(-0.382447 -0.198627 -0.00120636)
(-0.390211 -0.297224 -0.0105316)
(-0.374785 -0.423916 -0.0198881)
(-0.303387 -0.524612 -0.0336687)
(-0.184899 -0.518557 -0.0573468)
(-0.0248561 -0.303725 -0.0570139)
(0.0448688 0.0489962 -0.027353)
(0.00582296 0.274648 0.00495749)
(0.0444763 0.483215 -0.0241838)
(0.111921 0.606449 -0.032476)
(0.186027 0.662032 -0.0299025)
(0.250674 0.66905 -0.0136166)
(0.299996 0.644992 -0.00820943)
(0.343449 0.609714 0.000615581)
(0.37701 0.563836 0.0035961)
(0.379305 0.514241 0.00383431)
(0.350374 0.472437 0.0050983)
(0.308161 0.429854 0.00613643)
(0.259515 0.385765 0.00772188)
(0.213557 0.339844 0.0106621)
(0.176576 0.296406 0.0138025)
(0.147956 0.256337 0.0162918)
(0.125003 0.219628 0.0172007)
(0.10568 0.185363 0.0173472)
(0.0858683 0.156135 0.0162505)
(0.066166 0.127813 0.0150917)
(0.0456725 0.107178 0.0145838)
(0.023995 0.0851423 0.00831252)
(0.00599189 0.0638059 0.0101762)
(-0.010385 0.0400162 0.0115716)
(-0.0298649 0.0181099 0.00997148)
(-0.057384 0.00194068 0.00857552)
(-0.0811428 -0.00729281 0.010935)
(-0.096288 -0.0163401 0.0110241)
(-0.11146 -0.0287434 0.012564)
(-0.128478 -0.0442327 0.0142176)
(-0.155225 -0.0638843 0.0156408)
(-0.191336 -0.0883135 0.0172351)
(-0.234491 -0.118891 0.0172711)
(-0.282453 -0.161852 0.0181037)
(-0.311444 -0.220357 0.0177141)
(-0.329295 -0.300755 0.012123)
(-0.343423 -0.416244 0.00321476)
(-0.319069 -0.508481 -0.0137644)
(-0.228209 -0.529947 -0.0373911)
(-0.0687639 -0.325244 -0.0491558)
(0.0224807 0.0534029 -0.0128917)
(0.00999607 0.250189 0.0019123)
(0.0489289 0.435226 -0.0194925)
(0.110268 0.564235 -0.0270901)
(0.183066 0.623224 -0.0257763)
(0.246312 0.637142 -0.0136745)
(0.295262 0.616094 -0.00580427)
(0.339111 0.579995 0.00178418)
(0.368009 0.535231 0.00517765)
(0.371059 0.483378 0.00583929)
(0.346178 0.438191 0.00686581)
(0.303663 0.393673 0.00857893)
(0.255577 0.350309 0.0116387)
(0.21302 0.308211 0.0159804)
(0.180666 0.269363 0.019124)
(0.15596 0.23334 0.0179384)
(0.1353 0.198479 0.0167396)
(0.116006 0.1651 0.0157761)
(0.0975917 0.127339 0.0144058)
(0.0803671 0.0938134 0.0131714)
(0.0593676 0.0787906 0.0109351)
(0.0369238 0.0649936 0.0129301)
(0.017247 0.0486268 0.00889671)
(0.00319232 0.0287347 0.0130363)
(-0.0148531 0.00905372 0.00935848)
(-0.0358665 -0.00636328 0.010443)
(-0.0543527 -0.0143791 0.0101433)