/*--------------------------------*- C++ -*----------------------------------*\
| =========                 |                                                 |
| \\      /  F ield         | OpenFOAM: The Open Source CFD Toolbox           |
|  \\    /   O peration     | Version:  v1806                                 |
|   \\  /    A nd           | Web:      www.OpenFOAM.com                      |
|    \\/     M anipulation  |                                                 |
\*---------------------------------------------------------------------------*/
FoamFile
{
    version     2.0;
    format      ascii;
    class       volVectorField;
    location    "0.0395";
    object      U;
}
// * * * * * * * * * * * * * * * * * * * * * * * * * * * * * * * * * * * * * //

dimensions      [0 1 -1 0 0 0 0];


internalField   nonuniform List<vector> 
64000
(
(-0.00651125 -0.0075276 -0.00329228)
(0.0138895 -0.00817939 -0.00126031)
(0.0267082 -0.00469799 0.00200685)
(0.0297576 -0.00443393 0.00196756)
(0.0247052 -0.00326657 0.00291212)
(0.0222902 -0.00288194 0.0041039)
(0.0210653 -0.00361226 0.00391998)
(0.0170004 -0.00388022 0.00397949)
(0.0147478 -0.00491587 0.00511185)
(0.00837243 -0.00396864 0.00462412)
(0.00094377 -0.00631834 0.0059877)
(-0.0152815 -0.00913071 0.00693655)
(-0.0368543 -0.0137647 0.00680924)
(-0.0632469 -0.0175869 0.00456363)
(-0.0979566 -0.0166666 0.00540956)
(-0.132667 -0.00979524 0.00383244)
(-0.17227 0.00332601 0.00317677)
(-0.20922 -0.00207977 0.00236144)
(-0.233713 -0.010308 0.00529889)
(-0.269671 -0.0265577 -0.0129384)
(-0.256834 -0.0312145 -0.034213)
(-0.131434 -0.026158 -0.038531)
(-0.0889775 -0.0175039 -0.0322821)
(-0.0955075 -0.00614986 -0.0368472)
(-0.089046 -0.000230222 -0.0491605)
(-0.0935347 0.00984121 -0.0567779)
(-0.0736653 0.018984 -0.0625697)
(-0.0479286 0.0312693 -0.0567689)
(-0.0141415 0.0388774 -0.0495464)
(0.0287318 0.0539592 -0.030541)
(0.0769681 0.0424023 -0.0308375)
(0.109047 0.03518 -0.0213914)
(0.123263 0.0244984 -0.00953819)
(0.118912 0.0102028 -0.00276782)
(0.102848 0.00247408 0.00310282)
(0.0807773 -0.00565161 0.00536455)
(0.0573816 -0.00821418 0.00787573)
(0.0347916 -0.00674644 0.00870167)
(0.0177304 -0.00503963 0.00873946)
(0.00325474 -0.00357108 0.00694551)
(-0.00451277 -0.00512905 -0.00106156)
(0.0123949 -0.0172417 -0.000911802)
(0.0343623 -0.0146564 0.000603188)
(0.043973 -0.0108601 -0.000386958)
(0.0429159 -0.00525988 0.000634094)
(0.0397734 -0.00164533 -0.000359437)
(0.0371634 0.0028376 -0.00221604)
(0.0293365 0.00519767 -0.00192451)
(0.0219843 0.0102466 -0.00707851)
(0.00420423 0.0170574 -0.00402146)
(-0.0215879 0.0241436 -0.00786019)
(-0.060267 0.0333428 0.000156055)
(-0.108646 0.0461804 -0.0040078)
(-0.16078 0.069007 -0.00642125)
(-0.220873 0.0791364 -0.00979607)
(-0.283242 0.0871619 -0.0190827)
(-0.377647 0.0926023 -0.0417686)
(-0.475403 0.0966439 -0.0564097)
(-0.546267 0.100843 -0.0744592)
(-0.609027 0.100819 -0.0979161)
(-0.591512 0.117144 -0.112781)
(-0.446534 0.138341 -0.127751)
(-0.386003 0.174447 -0.145039)
(-0.378559 0.208596 -0.150193)
(-0.346271 0.232049 -0.161168)
(-0.316657 0.25635 -0.166636)
(-0.256852 0.274925 -0.168317)
(-0.191649 0.291742 -0.157374)
(-0.111733 0.299014 -0.136038)
(-0.0457749 0.306536 -0.111152)
(0.02131 0.287627 -0.0743229)
(0.0889907 0.257746 -0.0480894)
(0.121608 0.204087 -0.0385104)
(0.134312 0.157475 -0.0274378)
(0.127498 0.107443 -0.0133724)
(0.106003 0.0669834 -0.00556679)
(0.084141 0.0392583 -0.00105441)
(0.0576306 0.0245029 0.000321294)
(0.033573 0.0146882 0.00210148)
(0.00931575 0.00577811 0.00391378)
(-0.000167356 -0.0137071 0.00181591)
(0.0172239 -0.0253286 -0.000489028)
(0.04141 -0.0207766 -0.000740334)
(0.0530867 -0.00991568 -0.000413529)
(0.0495575 0.00259725 -0.00282445)
(0.0439468 0.0158767 -0.00434874)
(0.0353499 0.0305626 -0.00621715)
(0.0200228 0.0448915 -0.00841571)
(0.0040711 0.0691842 -0.00137661)
(-0.0257877 0.0926372 -0.00463063)
(-0.0644766 0.122425 -0.00832392)
(-0.117053 0.155953 -0.012724)
(-0.174209 0.185692 -0.0167414)
(-0.258937 0.207807 -0.0308775)
(-0.365509 0.225492 -0.0328872)
(-0.46066 0.237943 -0.0429065)
(-0.555002 0.245234 -0.0573546)
(-0.635838 0.268946 -0.0730651)
(-0.69886 0.295957 -0.090747)
(-0.746855 0.32889 -0.111772)
(-0.715564 0.364738 -0.118935)
(-0.546875 0.393054 -0.121776)
(-0.461194 0.443664 -0.131107)
(-0.443155 0.483116 -0.124082)
(-0.402869 0.512226 -0.12545)
(-0.369241 0.535931 -0.122646)
(-0.309662 0.547637 -0.118498)
(-0.248391 0.55064 -0.105827)
(-0.177402 0.54067 -0.0849742)
(-0.114117 0.520202 -0.0618126)
(-0.0578353 0.496425 -0.0398732)
(-0.0188332 0.448651 -0.0276369)
(0.0167054 0.378927 -0.0121758)
(0.0437645 0.305316 -0.00731032)
(0.0488346 0.229368 -0.0104677)
(0.05212 0.163359 -0.0100523)
(0.0502459 0.112732 -0.00676656)
(0.0401173 0.0749471 -0.00427752)
(0.0276781 0.0484626 -0.000472411)
(0.00905771 0.0205566 0.00291039)
(0.000349025 -0.0202968 0.0016452)
(0.0196092 -0.0297181 -0.0028363)
(0.0466905 -0.0179123 -0.00186152)
(0.0575464 0.000705501 -0.00517907)
(0.0523367 0.0261036 -0.00596684)
(0.0420132 0.0565081 -0.00692002)
(0.0262678 0.0920353 -0.00683757)
(0.00803156 0.128218 -0.00399819)
(-0.0163833 0.173656 -0.00905713)
(-0.0599818 0.211671 -0.0114355)
(-0.110263 0.246152 -0.0156792)
(-0.184186 0.271264 -0.0222843)
(-0.276811 0.298973 -0.0254545)
(-0.366425 0.313272 -0.0275045)
(-0.452019 0.339972 -0.0291534)
(-0.532065 0.369067 -0.0383499)
(-0.612223 0.400032 -0.0493773)
(-0.680072 0.433003 -0.0568582)
(-0.726887 0.467949 -0.064899)
(-0.759174 0.509524 -0.072872)
(-0.715604 0.541902 -0.0630874)
(-0.527411 0.562828 -0.0475807)
(-0.427137 0.598482 -0.0478887)
(-0.410249 0.617346 -0.0310838)
(-0.373898 0.626053 -0.0260198)
(-0.349641 0.629116 -0.0194571)
(-0.30359 0.61894 -0.0161644)
(-0.259143 0.599939 -0.00999431)
(-0.20655 0.574345 0.000870853)
(-0.160393 0.540603 0.00830058)
(-0.125273 0.502669 0.0138323)
(-0.100903 0.459163 0.0139851)
(-0.0834855 0.413975 0.00905035)
(-0.0599742 0.351005 0.00180332)
(-0.0390453 0.278877 -0.00285426)
(-0.0184023 0.203552 -0.00858056)
(0.000622589 0.144738 -0.00965583)
(0.0106732 0.107669 -0.00684176)
(0.017479 0.0731042 -0.00271944)
(0.00761784 0.03059 0.0024284)
(0.0018436 -0.022518 0.000835301)
(0.0254807 -0.0235291 -0.00446673)
(0.0553736 -0.00423802 -0.00283551)
(0.068053 0.0271349 -0.00461374)
(0.0642717 0.0687188 -0.00530539)
(0.0541674 0.119266 -0.0143612)
(0.0323875 0.181791 -0.011486)
(0.00390407 0.230364 -0.00408087)
(-0.0351123 0.27235 -0.00685263)
(-0.0995684 0.303929 -0.0090404)
(-0.17042 0.332619 -0.0123599)
(-0.240496 0.354511 -0.0144337)
(-0.309599 0.385792 -0.0181106)
(-0.385914 0.420313 -0.0196267)
(-0.460826 0.456583 -0.0174081)
(-0.52839 0.49014 -0.0198325)
(-0.591302 0.525544 -0.0196693)
(-0.639431 0.560015 -0.0158241)
(-0.667401 0.596485 -0.0133616)
(-0.688878 0.636834 -0.0207066)
(-0.645285 0.664485 -0.00897663)
(-0.452984 0.675703 0.0139469)
(-0.350419 0.684742 0.0185058)
(-0.340674 0.674081 0.0363694)
(-0.317255 0.652568 0.0385884)
(-0.311234 0.629491 0.0456092)
(-0.287482 0.595747 0.0465644)
(-0.261201 0.559279 0.0494138)
(-0.229869 0.518792 0.04368)
(-0.205222 0.478239 0.0366086)
(-0.182633 0.434596 0.02732)
(-0.167266 0.395838 0.0195917)
(-0.157103 0.362398 0.012905)
(-0.151166 0.328082 0.00210542)
(-0.144018 0.276644 -0.00996334)
(-0.109159 0.203104 -0.0112672)
(-0.0536184 0.155797 -0.0115405)
(-0.0168006 0.125111 -0.0102013)
(0.00278271 0.0903313 -0.00446362)
(0.00488703 0.037724 0.00255574)
(0.00519931 -0.0233417 0.000871791)
(0.0326525 -0.015032 -0.00421934)
(0.0672598 0.0127116 -0.00467155)
(0.0848594 0.0579097 -0.00722054)
(0.0839342 0.107021 -0.00868003)
(0.0778742 0.173542 -0.0173581)
(0.0421669 0.229394 -0.00944806)
(-0.0141639 0.275438 0.000959989)
(-0.0688651 0.313337 -0.00360679)
(-0.131641 0.351693 -0.00572226)
(-0.188417 0.391577 -0.00802869)
(-0.24788 0.432858 -0.00820708)
(-0.307527 0.47023 -0.00655781)
(-0.36512 0.503386 -0.00230375)
(-0.420983 0.537676 0.00397375)
(-0.468636 0.57079 0.00827429)
(-0.514951 0.605032 0.0060028)
(-0.551285 0.641982 0.0110029)
(-0.569068 0.682055 0.0118166)
(-0.583502 0.714602 0.00915775)
(-0.538614 0.738405 0.0225436)
(-0.358556 0.701902 0.04588)
(-0.272557 0.666844 0.0502335)
(-0.282822 0.6292 0.0685755)
(-0.277092 0.581322 0.0734996)
(-0.288169 0.542073 0.07571)
(-0.282512 0.497531 0.0725744)
(-0.276418 0.455793 0.0686705)
(-0.261082 0.409253 0.0654537)
(-0.250178 0.370145 0.0482559)
(-0.242002 0.329572 0.0373426)
(-0.229363 0.296502 0.0243133)
(-0.218995 0.270447 0.0113169)
(-0.212858 0.248527 0.00441874)
(-0.219336 0.227038 -0.0103659)
(-0.175206 0.18875 -0.0120998)
(-0.0908065 0.156458 -0.0135226)
(-0.0384413 0.130725 -0.0112484)
(-0.00383766 0.0979559 -0.00605031)
(0.0040519 0.040014 0.00264445)
(0.00749688 -0.0203307 -0.00026386)
(0.0407768 -0.00158912 -0.00752465)
(0.0843868 0.0350689 -0.00947196)
(0.103379 0.0864108 -0.00780076)
(0.106566 0.139514 -0.00919842)
(0.0892229 0.20914 -0.0106881)
(0.0356629 0.241745 0.00161775)
(-0.0168882 0.292153 0.0032079)
(-0.0621887 0.343097 -0.000111584)
(-0.114925 0.396235 -0.00187018)
(-0.164974 0.445811 -0.00237728)
(-0.212805 0.48997 -0.00044793)
(-0.259977 0.528124 0.00153784)
(-0.306477 0.564808 0.00925442)
(-0.347573 0.597674 0.0126293)
(-0.382617 0.627975 0.0196988)
(-0.411512 0.652566 0.0256905)
(-0.427451 0.679972 0.0284355)
(-0.441263 0.708797 0.0248419)
(-0.457256 0.725019 0.0200085)
(-0.462583 0.737227 0.0249986)
(-0.333368 0.670614 0.0479787)
(-0.236842 0.580554 0.048849)
(-0.250659 0.53369 0.0629526)
(-0.258223 0.481802 0.0660483)
(-0.281115 0.445171 0.0668999)
(-0.292972 0.406783 0.0631854)
(-0.302326 0.371044 0.0585252)
(-0.300184 0.333589 0.0481656)
(-0.299618 0.299387 0.0363827)
(-0.297068 0.266859 0.0228271)
(-0.286578 0.240258 0.0126901)
(-0.2769 0.220332 0.00170367)
(-0.267811 0.208501 -0.00346771)
(-0.266898 0.204875 -0.0128955)
(-0.222366 0.193266 -0.01925)
(-0.127874 0.163266 -0.0200079)
(-0.0557434 0.142325 -0.0162021)
(-0.0100653 0.107006 -0.00870158)
(0.00447432 0.0440683 0.00137613)
(0.0085381 -0.0124799 0.000184841)
(0.0468329 0.0206663 -0.0132029)
(0.0984964 0.0676323 -0.0142819)
(0.122135 0.119841 -0.00975204)
(0.129035 0.179705 -0.0124313)
(0.0952892 0.232702 -0.00678291)
(0.0378654 0.272266 0.00189571)
(0.00459483 0.328696 0.00565082)
(-0.0344238 0.377568 0.00277388)
(-0.0791796 0.431772 0.0039014)
(-0.11982 0.47575 0.00574008)
(-0.160998 0.512705 0.0108807)
(-0.195316 0.544786 0.0176727)
(-0.225285 0.573546 0.0220682)
(-0.25597 0.597053 0.0268353)
(-0.282778 0.614776 0.0309927)
(-0.30733 0.627416 0.033796)
(-0.321213 0.636622 0.0346768)
(-0.341032 0.63908 0.0271054)
(-0.365317 0.630221 0.0205023)
(-0.399768 0.620419 0.0159578)
(-0.337219 0.588158 0.0314224)
(-0.247126 0.477022 0.0322432)
(-0.24206 0.431514 0.0399058)
(-0.258855 0.389875 0.0447784)
(-0.288169 0.361654 0.0469956)
(-0.31105 0.333836 0.0471359)
(-0.330445 0.304231 0.043897)
(-0.337392 0.273937 0.0368349)
(-0.34381 0.242321 0.0176042)
(-0.346511 0.210831 0.0124145)
(-0.336685 0.185783 0.0025904)
(-0.323168 0.170661 -0.00351431)
(-0.30539 0.16657 -0.00808399)
(-0.30482 0.178513 -0.0158724)
(-0.266894 0.193483 -0.0204464)
(-0.161597 0.170222 -0.0219407)
(-0.0730176 0.150731 -0.0179215)
(-0.0146755 0.115443 -0.00975086)
(0.0054818 0.0469838 0.00156517)
(0.0086379 -0.000260754 -0.00383495)
(0.0556058 0.0510113 -0.0200629)
(0.116607 0.105485 -0.0190321)
(0.146107 0.159678 -0.013471)
(0.146169 0.213966 -0.0142377)
(0.108417 0.253848 -0.00643127)
(0.0639043 0.307566 0.000211859)
(0.0325873 0.36274 0.00643942)
(0.00504368 0.40348 0.0127567)
(-0.0280436 0.444575 0.0123896)
(-0.0678635 0.480674 0.0164717)
(-0.0970294 0.508422 0.0221119)
(-0.121714 0.529992 0.0282556)
(-0.146979 0.541212 0.0316708)
(-0.171709 0.545177 0.0331809)
(-0.195309 0.542695 0.0338841)
(-0.218293 0.534832 0.0332888)
(-0.239527 0.531632 0.0303236)
(-0.275064 0.51861 0.0217751)
(-0.311156 0.50822 0.0144648)
(-0.351211 0.492113 0.00675693)
(-0.345466 0.490197 0.01138)
(-0.283795 0.412475 0.0178246)
(-0.252877 0.359502 0.0175772)
(-0.268627 0.327814 0.0228759)
(-0.299912 0.305963 0.0279731)
(-0.331251 0.285175 0.0312008)
(-0.358467 0.257666 0.0331424)
(-0.373354 0.230909 0.0221593)
(-0.387696 0.195617 0.0108031)
(-0.391636 0.169992 0.000940632)
(-0.379519 0.147531 -0.00406688)
(-0.363077 0.132894 -0.0107731)
(-0.33705 0.136016 -0.0161009)
(-0.316259 0.143531 -0.0188271)
(-0.290011 0.182578 -0.0252902)
(-0.197408 0.172708 -0.0255738)
(-0.0900789 0.159675 -0.0236566)
(-0.0198557 0.125097 -0.0125468)
(0.0057338 0.0524885 -2.47595e-05)
(0.0080191 0.0176822 -0.00867834)
(0.0603878 0.091708 -0.0283381)
(0.132713 0.151165 -0.027972)
(0.164373 0.200916 -0.0164302)
(0.160665 0.243162 -0.015465)
(0.132137 0.28258 -0.00840774)
(0.101077 0.336349 -0.00275639)
(0.0720232 0.382534 0.0132748)
(0.0404083 0.420387 0.0186115)
(0.0167179 0.446788 0.0268804)
(-0.00844534 0.467396 0.0264594)
(-0.0360941 0.480994 0.0336933)
(-0.0594325 0.485908 0.0386272)
(-0.0818168 0.478835 0.0401791)
(-0.10697 0.463845 0.0374881)
(-0.133697 0.442591 0.0332157)
(-0.156691 0.417114 0.0285889)
(-0.183091 0.403331 0.0202391)
(-0.223522 0.382704 0.0133869)
(-0.268334 0.384537 0.00700804)
(-0.313612 0.390173 0.00225279)
(-0.334631 0.405723 0.00214476)
(-0.314772 0.38235 0.00689681)
(-0.280206 0.328348 0.0063344)
(-0.279186 0.287035 0.00871458)
(-0.307887 0.269159 0.0164043)
(-0.343621 0.24524 0.0227125)
(-0.376091 0.223738 0.0260028)
(-0.39844 0.191225 0.0207154)
(-0.412831 0.161421 0.00850229)
(-0.4165 0.132132 0.0118689)
(-0.413118 0.110705 0.0175608)
(-0.39344 0.0915357 0.0162668)
(-0.370682 0.0919716 0.00888891)
(-0.34183 0.106483 -0.0109523)
(-0.30967 0.146146 -0.0229325)
(-0.223158 0.1711 -0.0237248)
(-0.106286 0.159125 -0.0217576)
(-0.0247939 0.133209 -0.0123927)
(0.00681858 0.0558 0.000661875)
(0.00878969 0.0353509 -0.0111977)
(0.0682325 0.132804 -0.0342464)
(0.146107 0.195977 -0.0322277)
(0.178785 0.2362 -0.0180703)
(0.179046 0.273523 -0.0141907)
(0.163385 0.311591 -0.0106697)
(0.139879 0.355994 -0.00115969)
(0.111457 0.390954 0.00721686)
(0.0867974 0.42037 0.0148319)
(0.0603475 0.440378 0.0301826)
(0.0332354 0.447518 0.0378661)
(0.0153427 0.446756 0.0460062)
(-0.0058252 0.433533 0.0474517)
(-0.0330988 0.41048 0.0461047)
(-0.0618717 0.385702 0.0385055)
(-0.0942983 0.354096 0.0291046)
(-0.118151 0.323346 0.0209119)
(-0.149949 0.304189 0.00760015)
(-0.188499 0.281339 0.00476402)
(-0.218302 0.291803 0.00376117)
(-0.262561 0.325902 0.00229166)
(-0.301203 0.355984 0.00229268)
(-0.319509 0.359732 0.00263643)
(-0.311433 0.323942 0.00244092)
(-0.293913 0.269583 0.00154651)
(-0.308813 0.239133 0.0080164)
(-0.344778 0.215817 0.0143257)
(-0.381978 0.189317 0.0184371)
(-0.409613 0.161283 0.0121683)
(-0.429496 0.127386 0.0283734)
(-0.441304 0.0924476 0.0302898)
(-0.442276 0.0623751 0.019716)
(-0.430168 0.0501001 0.0137418)
(-0.396541 0.0453269 0.00924928)
(-0.354225 0.0621667 0.00136542)
(-0.315462 0.0969106 -0.0178341)
(-0.242425 0.148753 -0.0275941)
(-0.12595 0.156652 -0.0227226)
(-0.0276445 0.136866 -0.0148814)
(0.00473107 0.060075 -0.000235712)
(0.00867114 0.0576281 -0.0125296)
(0.0709261 0.176278 -0.0384981)
(0.15233 0.239859 -0.0361184)
(0.191387 0.273872 -0.0199901)
(0.202115 0.305865 -0.0116674)
(0.193932 0.337439 -0.0056888)
(0.175523 0.368997 -0.00502975)
(0.150179 0.392584 0.00963359)
(0.125096 0.410901 0.0136369)
(0.10248 0.420075 0.0260182)
(0.0802531 0.422373 0.0352159)
(0.0538678 0.411944 0.0517255)
(0.0266192 0.387308 0.0532887)
(0.00482779 0.353588 0.0520887)
(-0.026701 0.321466 0.0363544)
(-0.0661929 0.288369 0.0233674)
(-0.0917241 0.262798 0.012179)
(-0.128033 0.238258 -0.00330129)
(-0.156855 0.228316 -0.00148867)
(-0.160674 0.245629 0.00175696)
(-0.196865 0.273642 0.00307597)
(-0.254173 0.311113 0.0040203)
(-0.300997 0.326532 0.00423086)
(-0.321259 0.309645 0.00202005)
(-0.31134 0.260843 0.000370062)
(-0.305004 0.204711 0.00217416)
(-0.333944 0.179411 0.00848442)
(-0.370436 0.151942 0.00914334)
(-0.403347 0.124124 0.0291591)
(-0.434433 0.0883504 0.0396917)
(-0.452635 0.0535298 0.0416085)
(-0.452635 0.026806 0.0529664)
(-0.443181 0.0022247 0.0425583)
(-0.428896 -0.00317443 0.0327491)
(-0.391737 0.00820147 0.024415)
(-0.3356 0.0501582 0.00249764)
(-0.250048 0.102418 -0.0240265)
(-0.137527 0.145437 -0.0240735)
(-0.0335096 0.133959 -0.0141426)
(0.00642257 0.0633776 -0.000697455)
(0.00731467 0.0707977 -0.0134564)
(0.0706383 0.21041 -0.0425856)
(0.155823 0.278463 -0.0412583)
(0.20306 0.308929 -0.0226687)
(0.223194 0.332143 -0.00874208)
(0.221648 0.352148 -0.000349919)
(0.205382 0.375069 0.00381218)
(0.181648 0.387591 0.00608591)
(0.162638 0.398672 0.0133603)
(0.14164 0.400934 0.0255299)
(0.11627 0.39326 0.0330946)
(0.090242 0.375923 0.0404041)
(0.0586543 0.348626 0.0501208)
(0.0281298 0.314797 0.0493035)
(-0.00348563 0.272978 0.0333995)
(-0.0405654 0.24668 0.0166018)
(-0.0727739 0.226672 0.00333308)
(-0.104739 0.20181 -0.00866232)
(-0.115112 0.212749 -0.00364723)
(-0.114905 0.222296 -0.0004353)
(-0.14092 0.22669 0.00715739)
(-0.190368 0.244573 0.00912219)
(-0.257888 0.272691 0.00777873)
(-0.306582 0.274026 0.0049563)
(-0.321577 0.243625 0.00319066)
(-0.306403 0.183126 0.0029222)
(-0.30826 0.136852 0.00585236)
(-0.345903 0.11343 0.0152181)
(-0.383945 0.0784854 0.0291086)
(-0.420212 0.0476327 0.0382532)
(-0.440677 0.0148885 0.060842)
(-0.462999 -0.0244611 0.0455405)
(-0.470929 -0.0671568 0.0354196)
(-0.450115 -0.0890805 0.0181475)
(-0.408752 -0.0768332 0.00350156)
(-0.358778 -0.0271497 0.012695)
(-0.271949 0.0537206 -0.00314467)
(-0.148118 0.113484 -0.0310767)
(-0.0386516 0.127298 -0.0142712)
(0.00704716 0.0630727 -0.00241237)
(0.00623894 0.0858627 -0.0128224)
(0.0701384 0.243837 -0.0454496)
(0.158206 0.316072 -0.0464604)
(0.211468 0.342907 -0.0265688)
(0.239125 0.356682 -0.00745094)
(0.245732 0.364749 0.00525744)
(0.233618 0.374619 0.0100692)
(0.212564 0.382759 0.0142642)
(0.195699 0.387602 0.0159263)
(0.17413 0.382087 0.0197307)
(0.151281 0.36797 0.0205512)
(0.120359 0.345196 0.032524)
(0.0851257 0.314455 0.0315194)
(0.0484713 0.283613 0.0352789)
(0.0165434 0.248605 0.0260161)
(-0.0140717 0.218601 0.00800244)
(-0.0527636 0.202736 -0.00578427)
(-0.0700481 0.195102 -0.00852454)
(-0.0713292 0.206735 -0.00589385)
(-0.081853 0.201678 -1.11584e-05)
(-0.106036 0.193568 0.0108796)
(-0.133998 0.189891 0.0196512)
(-0.189892 0.201671 0.0166844)
(-0.260232 0.224958 0.00812843)
(-0.303857 0.211493 0.00456833)
(-0.305385 0.178409 0.00418417)
(-0.289919 0.110467 0.00606669)
(-0.309887 0.0786715 0.0169228)
(-0.349864 0.0428203 0.0285299)
(-0.383371 0.00935945 0.0499832)
(-0.427056 -0.034768 0.0395789)
(-0.466889 -0.0914846 0.0344961)
(-0.48307 -0.136806 0.0233817)
(-0.472202 -0.170002 0.0125065)
(-0.430461 -0.173592 -0.00211679)
(-0.3624 -0.131393 -0.00736881)
(-0.278475 -0.0302226 0.0012449)
(-0.166537 0.0713294 -0.0167322)
(-0.0429611 0.11628 -0.0184544)
(0.00651733 0.0654068 -0.0020484)
(0.00306213 0.080226 -0.013594)
(0.0647932 0.256702 -0.0464932)
(0.155747 0.334433 -0.0481994)
(0.216227 0.359557 -0.0278077)
(0.250742 0.365686 -0.0072903)
(0.260901 0.364856 0.00670397)
(0.256716 0.366774 0.0132603)
(0.241451 0.370166 0.0163454)
(0.224637 0.370615 0.0182342)
(0.202705 0.362775 0.0190563)
(0.17711 0.348055 0.0179468)
(0.146581 0.32087 0.0156871)
(0.111728 0.289102 0.0118218)
(0.0740112 0.254872 0.0145239)
(0.0337559 0.228764 0.0120582)
(0.00343086 0.21348 -0.000219052)
(-0.0174717 0.205826 -0.00813203)
(-0.028865 0.217394 -0.00672862)
(-0.0376381 0.211513 -0.00234661)
(-0.053125 0.20013 0.00481587)
(-0.071936 0.182335 0.0143097)
(-0.0953751 0.169169 0.0192727)
(-0.128539 0.154203 0.0247584)
(-0.195321 0.167836 0.0130274)
(-0.258068 0.169797 0.0082632)
(-0.288581 0.153626 0.0111138)
(-0.280177 0.103959 0.0121581)
(-0.27704 0.0449872 0.0209823)
(-0.310038 0.010863 0.0360914)
(-0.3536 -0.0330842 0.0318429)
(-0.404907 -0.0896762 0.031805)
(-0.448354 -0.144169 0.0249633)
(-0.475053 -0.200396 0.0157795)
(-0.476512 -0.243245 0.0026961)
(-0.44251 -0.262682 -0.0116286)
(-0.375946 -0.22989 -0.0181117)
(-0.280125 -0.143071 -0.020453)
(-0.165705 0.00316758 -8.32265e-05)
(-0.0494661 0.0862745 -0.0273638)
(0.00570157 0.0618505 -0.00461529)
(0.00428117 0.0960804 -0.00613581)
(0.0645529 0.280889 -0.042643)
(0.154177 0.361913 -0.0455125)
(0.219118 0.38319 -0.0258745)
(0.259978 0.380958 -0.00279825)
(0.280246 0.373649 0.00838719)
(0.282733 0.369479 0.0135706)
(0.270371 0.365287 0.0150247)
(0.255387 0.359233 0.0134706)
(0.234042 0.344048 0.0113575)
(0.206201 0.322354 0.00749461)
(0.168235 0.295699 0.00576222)
(0.128988 0.273342 0.00269046)
(0.093592 0.258116 0.00267375)
(0.0714701 0.253389 0.000433689)
(0.0489476 0.254042 -0.00676239)
(0.0292225 0.252105 -0.00514498)
(0.0108505 0.249822 -0.00432419)
(-0.0112525 0.235768 0.00314558)
(-0.0288209 0.212292 0.00794912)
(-0.0493626 0.188545 0.0140834)
(-0.0695153 0.164204 0.0167175)
(-0.0930387 0.140961 0.0215838)
(-0.141127 0.126135 0.0189048)
(-0.207459 0.132341 0.00828555)
(-0.251803 0.117465 0.00454462)
(-0.269294 0.0977663 0.00300401)
(-0.262129 0.0379708 0.00833936)
(-0.274657 -0.0139752 0.0127071)
(-0.320984 -0.0698575 0.0201562)
(-0.369861 -0.125126 0.0201637)
(-0.418248 -0.187677 0.0175523)
(-0.453039 -0.250083 0.0108703)
(-0.466083 -0.304898 -0.000535977)
(-0.441517 -0.338392 -0.0153045)
(-0.382053 -0.325686 -0.0309886)
(-0.282531 -0.243187 -0.0356888)
(-0.169883 -0.0883399 -0.0226938)
(-0.052057 0.0482172 -0.018227)
(0.00859427 0.0589038 -0.00997291)
(-0.00592487 0.085045 -0.0189318)
(0.0470494 0.279928 -0.0497966)
(0.141315 0.369638 -0.0532643)
(0.213579 0.392484 -0.0336189)
(0.265475 0.389071 -0.00849569)
(0.294119 0.375449 0.00115681)
(0.302597 0.361403 0.0078134)
(0.292686 0.347652 0.00750831)
(0.274001 0.341219 0.00558879)
(0.248694 0.340746 0.00379561)
(0.224119 0.342706 0.00335093)
(0.201435 0.341681 0.00319244)
(0.179623 0.335756 0.00136496)
(0.154192 0.325768 0.00308853)
(0.121429 0.316871 -0.00223095)
(0.0860998 0.299345 -0.0112165)
(0.0572087 0.279705 -0.00908888)
(0.0334877 0.256745 -0.00600858)
(0.00634617 0.235409 -0.00105934)
(-0.0150956 0.205691 0.00678583)
(-0.0310888 0.178235 0.0112821)
(-0.0510466 0.151662 0.0137725)
(-0.0717475 0.126333 0.0171677)
(-0.105337 0.102673 0.0201014)
(-0.163162 0.0957607 0.00970631)
(-0.211806 0.0834726 0.00375277)
(-0.237869 0.0681331 -0.000249662)
(-0.254004 0.038996 0.00135049)
(-0.26781 -0.0182702 -0.000546607)
(-0.296961 -0.0768284 0.00365313)
(-0.34076 -0.136033 0.00862396)
(-0.384589 -0.204487 0.0101523)
(-0.416385 -0.282473 0.00525705)
(-0.435368 -0.358688 -0.00530937)
(-0.42398 -0.413211 -0.0201891)
(-0.372668 -0.420252 -0.0373732)
(-0.280103 -0.354899 -0.0575942)
(-0.169148 -0.20327 -0.0431745)
(-0.0490208 -0.00521785 -0.0105817)
(0.00915953 0.0494382 -0.0110599)
(-0.00512444 0.154371 -0.0123496)
(0.0454146 0.357069 -0.0363276)
(0.135888 0.451285 -0.0434809)
(0.212105 0.472198 -0.0259208)
(0.269532 0.4628 -0.00892441)
(0.303767 0.43983 0.00188995)
(0.31643 0.417328 0.00749344)
(0.316849 0.41561 0.0103129)
(0.32266 0.43436 0.008175)
(0.319362 0.445464 0.00315603)
(0.300062 0.448865 -0.00211942)
(0.260232 0.435553 -0.00628174)
(0.213056 0.410339 -0.00653607)
(0.170424 0.371508 -0.00477172)
(0.134459 0.333548 -0.000572541)
(0.0955508 0.299043 -0.00755354)
(0.0671018 0.273163 -0.00777467)
(0.0473913 0.238295 -0.00562339)
(0.0204309 0.211885 -0.00189803)
(-0.00128462 0.185853 0.0051894)
(-0.0173577 0.155027 0.0103357)
(-0.034352 0.129079 0.0124794)
(-0.0539269 0.104692 0.0143029)
(-0.0814155 0.080992 0.0174015)
(-0.13285 0.0665319 0.00622058)
(-0.179145 0.0524002 -0.000287298)
(-0.203441 0.0400712 0.00256883)
(-0.22498 0.0223643 0.00335913)
(-0.250058 -0.0113241 -0.000107126)
(-0.277786 -0.0628978 -0.00436549)
(-0.313899 -0.133736 -0.00970028)
(-0.365013 -0.210605 -0.00851378)
(-0.404353 -0.281317 -0.00442276)
(-0.420222 -0.356056 -0.00826352)
(-0.402233 -0.424315 -0.019799)
(-0.356924 -0.462687 -0.0447882)
(-0.275748 -0.435336 -0.0668752)
(-0.159959 -0.28985 -0.0635042)
(-0.0378875 -0.0869513 -0.0308455)
(0.0101851 0.0360299 -0.00903025)
(-0.0183504 0.275775 -0.0272585)
(0.0209968 0.503022 -0.0445495)
(0.112248 0.606381 -0.0512656)
(0.191339 0.637857 -0.0338317)
(0.25828 0.629173 -0.0194991)
(0.302571 0.604539 -0.00642009)
(0.344244 0.571667 0.00265124)
(0.380662 0.561166 0.00101488)
(0.378891 0.558297 -0.00346867)
(0.344432 0.536528 -0.00754059)
(0.303145 0.501077 -0.00870863)
(0.258179 0.454099 -0.009021)
(0.212738 0.407832 -0.00777491)
(0.171368 0.36047 -0.00382557)
(0.137153 0.319179 -0.00158352)
(0.109386 0.278541 0.00302948)
(0.0779068 0.251806 -0.00368036)
(0.053188 0.220613 -0.00444008)
(0.0356031 0.189333 -0.00144993)
(0.00981528 0.163594 0.00164954)
(-0.00659908 0.135978 0.0097506)
(-0.0205274 0.108871 0.0111264)
(-0.0390075 0.084563 0.0126306)
(-0.0615489 0.0623623 0.0157973)
(-0.107035 0.0422997 0.00488723)
(-0.148166 0.0313696 0.00485085)
(-0.169291 0.020015 0.00516559)
(-0.194234 0.00459875 0.00612367)
(-0.224352 -0.0142299 0.00552957)
(-0.268869 -0.0451581 0.00312877)
(-0.310255 -0.100564 0.00287775)
(-0.326334 -0.177068 -0.00512288)
(-0.341253 -0.28198 -0.0235262)
(-0.369171 -0.406197 -0.0402026)
(-0.379505 -0.502918 -0.0587451)
(-0.35916 -0.573269 -0.0813933)
(-0.278218 -0.562054 -0.0949375)
(-0.186311 -0.429351 -0.0971006)
(-0.0599536 -0.16222 -0.0530586)
(0.0191746 0.0299864 -0.0138857)
(-0.00594337 0.275881 -0.00543116)
(0.0336187 0.522158 -0.0385506)
(0.115614 0.640156 -0.0487344)
(0.196087 0.689128 -0.0403317)
(0.262322 0.688751 -0.0297448)
(0.305898 0.66645 -0.0189198)
(0.343731 0.631856 -0.00942364)
(0.376453 0.593497 -0.00521052)
(0.375323 0.55516 -0.00531004)
(0.344299 0.517065 -0.00435696)
(0.30465 0.478155 -0.00369796)
(0.258243 0.43533 -0.00342594)
(0.212469 0.389049 -0.00201039)
(0.173365 0.343295 -0.00140518)
(0.140387 0.299421 0.000613039)
(0.111962 0.260077 0.0022847)
(0.0907848 0.224729 0.00638893)
(0.0654981 0.197916 0.000821872)
(0.0428831 0.169942 -0.00133847)
(0.0235708 0.141797 0.00208163)
(0.0045471 0.11878 0.00660149)
(-0.0104891 0.0910574 0.0101979)
(-0.0256867 0.0678535 0.0110431)
(-0.048305 0.0446846 0.0140835)
(-0.0861116 0.022518 0.00481053)
(-0.119155 0.0131115 0.00790164)
(-0.14063 -0.000379295 0.0094282)
(-0.158437 -0.0121231 0.0120442)
(-0.182606 -0.0256549 0.00971261)
(-0.224422 -0.0442741 0.00725576)
(-0.279399 -0.068766 0.00506886)
(-0.345398 -0.121415 0.00328215)
(-0.399494 -0.212887 0.00386001)
(-0.395798 -0.343596 -0.00410379)
(-0.3612 -0.483347 -0.0214842)
(-0.322093 -0.605923 -0.0413444)
(-0.247524 -0.66156 -0.0731674)
(-0.133188 -0.58422 -0.080512)
(-0.0213699 -0.307472 -0.0767626)
(0.0164649 -0.012991 -0.00684863)
(0.00094436 0.276235 -0.000493167)
(0.0383898 0.503309 -0.033017)
(0.110631 0.623957 -0.0415791)
(0.18878 0.674383 -0.0362493)
(0.254687 0.67428 -0.0213704)
(0.302879 0.649894 -0.0137492)
(0.344611 0.615063 -0.00317563)
(0.378981 0.575438 -0.000489434)
(0.378825 0.534904 -0.000496326)
(0.346518 0.497534 0.000351896)
(0.304533 0.457341 0.000914164)
(0.256498 0.4144 0.00149041)
(0.210524 0.367569 0.00207625)
(0.171375 0.322422 0.00342769)
(0.141429 0.278213 0.00342169)
(0.119291 0.238519 0.00513426)
(0.0975465 0.201831 0.00559894)
(0.0781684 0.17009 0.00679381)
(0.0572031 0.144947 0.00679233)
(0.0339692 0.120583 0.00129926)
(0.0157134 0.0990014 0.00616389)
(-0.000113612 0.0758318 0.00839152)
(-0.0148687 0.0511541 0.0100214)
(-0.0359411 0.0281931 0.0104045)
(-0.0656114 0.00997295 0.00785253)
(-0.0943405 -0.000465686 0.009923)
(-0.111319 -0.010939 0.0121186)
(-0.126573 -0.0221254 0.0131448)
(-0.149114 -0.0384076 0.0138453)
(-0.183104 -0.0567218 0.0128202)
(-0.229288 -0.0790216 0.0118111)
(-0.279635 -0.109701 0.00980759)
(-0.337445 -0.148584 0.00437744)
(-0.384072 -0.217054 -0.00145577)
(-0.392952 -0.325597 -0.00848756)
(-0.374858 -0.458885 -0.0171978)
(-0.301158 -0.558593 -0.03029)
(-0.183369 -0.550914 -0.0555627)
(-0.0255962 -0.330428 -0.054599)
(0.0430338 0.024474 -0.0264983)
(0.00464208 0.264513 0.00492538)
(0.0429846 0.475875 -0.0245585)
(0.110139 0.599371 -0.0333043)
(0.184279 0.655378 -0.0310327)
(0.248768 0.662373 -0.0149004)
(0.298139 0.639128 -0.00957285)
(0.339659 0.60298 -0.000413912)
(0.37068 0.559699 0.00271853)
(0.372936 0.510632 0.00262591)
(0.344251 0.469948 0.00352948)
(0.302141 0.428074 0.00426208)
(0.252987 0.384786 0.00516081)
(0.207847 0.340185 0.00655388)
(0.172091 0.297826 0.00737052)
(0.143449 0.256965 0.00844143)
(0.120508 0.218709 0.0103054)
(0.104731 0.181198 0.01231)
(0.0881207 0.151193 0.0126588)
(0.069912 0.122969 0.0124143)
(0.0512187 0.102786 0.0128946)
(0.0307989 0.0807637 0.00663042)
(0.0107902 0.0613934 0.0081137)
(-0.00514426 0.0378901 0.0118575)
(-0.0210218 0.0176055 0.0095789)
(-0.044702 -0.000973586 0.008824)
(-0.06679 -0.0104408 0.0103449)
(-0.0835394 -0.021068 0.0108178)
(-0.0988148 -0.0347172 0.0123554)
(-0.117282 -0.0521049 0.0136873)
(-0.145822 -0.0730214 0.0148149)
(-0.185066 -0.096076 0.0159527)
(-0.229319 -0.128526 0.016066)
(-0.278695 -0.171145 0.0174004)
(-0.309093 -0.229654 0.0167821)
(-0.329663 -0.308072 0.0110849)
(-0.344543 -0.425553 0.00255895)
(-0.320083 -0.518264 -0.0141059)
(-0.227243 -0.542806 -0.0377633)
(-0.0647695 -0.335775 -0.0506465)
(0.0234568 0.0409279 -0.0147515)
(0.00875088 0.242767 0.00103694)
(0.0473247 0.430799 -0.0205161)
(0.108221 0.560112 -0.0284038)
(0.180734 0.618898 -0.0271247)
(0.243945 0.633044 -0.0148918)
(0.292922 0.612372 -0.00710585)
(0.336238 0.575959 0.000919726)
(0.363438 0.532609 0.00450726)
(0.365932 0.481517 0.00513603)
(0.341155 0.437433 0.00590482)
(0.298292 0.393737 0.00723613)
(0.250505 0.351735 0.00915443)
(0.20842 0.311318 0.0109874)
(0.174609 0.272457 0.0128097)
(0.148787 0.235049 0.0126628)
(0.128684 0.200132 0.0123175)
(0.113025 0.166047 0.0123163)
(0.100043 0.134215 0.0122274)
(0.0855162 0.0982494 0.0116707)
(0.0650909 0.0787853 0.00953889)
(0.0447784 0.0639324 0.0112355)
(0.0254916 0.0471647 0.00858901)
(0.00881589 0.0294012 0.00974024)
(-0.0072552 0.0107688 0.00914264)
(-0.0249474 -0.00721153 0.00962614)
(-0.0431179 -0.0172608 0.00964335)