/*--------------------------------*- C++ -*----------------------------------*\
| =========                 |                                                 |
| \\      /  F ield         | OpenFOAM: The Open Source CFD Toolbox           |
|  \\    /   O peration     | Version:  v1806                                 |
|   \\  /    A nd           | Web:      www.OpenFOAM.com                      |
|    \\/     M anipulation  |                                                 |
\*---------------------------------------------------------------------------*/
FoamFile
{
    version     2.0;
    format      ascii;
    class       volVectorField;
    location    "0.0395";
    object      U_0;
}
// * * * * * * * * * * * * * * * * * * * * * * * * * * * * * * * * * * * * * //

dimensions      [0 1 -1 0 0 0 0];


internalField   nonuniform List<vector> 
64000
(
(-0.00644849 -0.0074859 -0.00323615)
(0.0138541 -0.0081609 -0.00124086)
(0.0267503 -0.00471714 0.0020093)
(0.0299933 -0.00444935 0.00198679)
(0.0248529 -0.0032695 0.0029145)
(0.0222646 -0.00285841 0.00412635)
(0.0210529 -0.00360148 0.00393415)
(0.0169638 -0.00385246 0.0039921)
(0.0146958 -0.00488366 0.00512046)
(0.0083453 -0.00393833 0.00463756)
(0.00087294 -0.00633763 0.00597473)
(-0.015412 -0.00914914 0.006948)
(-0.0370371 -0.0137918 0.00679769)
(-0.0635165 -0.0175442 0.00457153)
(-0.0982681 -0.0165783 0.00540248)
(-0.133021 -0.00959934 0.00384734)
(-0.172744 0.00342669 0.00319554)
(-0.209584 -0.00195188 0.0024627)
(-0.234634 -0.0102608 0.00526054)
(-0.26985 -0.0263175 -0.0127567)
(-0.258068 -0.0313735 -0.0344637)
(-0.13262 -0.0260508 -0.0384336)
(-0.0886507 -0.0176538 -0.032435)
(-0.0956608 -0.00611268 -0.0368246)
(-0.0886402 -0.000252254 -0.0491967)
(-0.0932904 0.00986264 -0.0567794)
(-0.0733145 0.0189813 -0.0625971)
(-0.0476962 0.0312717 -0.0567857)
(-0.0138863 0.0389438 -0.0494597)
(0.029026 0.0539742 -0.0304753)
(0.0771585 0.0423901 -0.0308026)
(0.109271 0.0351599 -0.0213524)
(0.123459 0.024473 -0.00949249)
(0.119119 0.0101888 -0.00273225)
(0.103005 0.00244193 0.00312502)
(0.0808756 -0.00565816 0.00537763)
(0.0574482 -0.00822557 0.00788939)
(0.0348527 -0.0067439 0.00871908)
(0.0177414 -0.00504152 0.00875306)
(0.00327258 -0.00358145 0.00696875)
(-0.0044697 -0.0052233 -0.00103126)
(0.0124287 -0.0172603 -0.000894043)
(0.0344693 -0.0146676 0.000612475)
(0.044279 -0.0108878 -0.000356399)
(0.0431491 -0.00530792 0.000630866)
(0.039809 -0.00164959 -0.000347728)
(0.0372045 0.00282457 -0.00220616)
(0.0293791 0.00519054 -0.00191764)
(0.0219925 0.0101997 -0.00707552)
(0.00419664 0.0170426 -0.0040178)
(-0.0216345 0.0241399 -0.00785169)
(-0.0603173 0.0334236 0.00015789)
(-0.108661 0.046311 -0.00400138)
(-0.16082 0.0691209 -0.00640235)
(-0.220911 0.0791646 -0.00976227)
(-0.283459 0.0871563 -0.0191118)
(-0.378019 0.0925598 -0.0417392)
(-0.475659 0.0966496 -0.0563749)
(-0.546894 0.100777 -0.0744255)
(-0.60914 0.100972 -0.0978087)
(-0.592725 0.116809 -0.113045)
(-0.447782 0.138351 -0.127723)
(-0.38582 0.174061 -0.145196)
(-0.378693 0.208468 -0.150268)
(-0.34598 0.231819 -0.161236)
(-0.316447 0.256169 -0.166699)
(-0.256562 0.27469 -0.168396)
(-0.191375 0.291494 -0.157501)
(-0.111502 0.298849 -0.136129)
(-0.0455925 0.306304 -0.111226)
(0.0214034 0.287487 -0.0743299)
(0.0891181 0.257623 -0.0481109)
(0.12172 0.203933 -0.0385126)
(0.134423 0.157369 -0.0274514)
(0.127587 0.107409 -0.0133972)
(0.106052 0.0669579 -0.00558738)
(0.0841583 0.0392426 -0.00107262)
(0.0576647 0.0244867 0.000309371)
(0.0335686 0.0146658 0.00209211)
(0.00933705 0.00574193 0.0039249)
(-0.000165131 -0.0138345 0.00180988)
(0.0172612 -0.0253995 -0.000501231)
(0.041511 -0.0208247 -0.000759507)
(0.0533327 -0.00995189 -0.000397564)
(0.049775 0.00244519 -0.00280156)
(0.0440065 0.0158931 -0.00430821)
(0.0353881 0.0304744 -0.00618178)
(0.0200169 0.044864 -0.00838586)
(0.00408029 0.0692092 -0.00135656)
(-0.0256858 0.0927943 -0.00462862)
(-0.0643686 0.122618 -0.00833011)
(-0.11696 0.156071 -0.0127018)
(-0.174262 0.185665 -0.016752)
(-0.259191 0.207676 -0.0308487)
(-0.365812 0.225363 -0.0328608)
(-0.460958 0.237807 -0.0429484)
(-0.555335 0.245164 -0.057343)
(-0.636111 0.268949 -0.0730063)
(-0.699449 0.295914 -0.0906614)
(-0.747011 0.328907 -0.111611)
(-0.716777 0.364556 -0.119125)
(-0.548199 0.393025 -0.121706)
(-0.461121 0.443353 -0.131203)
(-0.443369 0.482972 -0.124106)
(-0.402728 0.511991 -0.125457)
(-0.369175 0.535683 -0.122644)
(-0.309543 0.547338 -0.118506)
(-0.248227 0.55026 -0.105902)
(-0.17726 0.540292 -0.0850783)
(-0.113903 0.519747 -0.0619156)
(-0.0576568 0.496092 -0.0399154)
(-0.0187275 0.448393 -0.0276247)
(0.0168228 0.378836 -0.0121095)
(0.0439952 0.305234 -0.00727353)
(0.0489862 0.229388 -0.010448)
(0.0521584 0.163411 -0.0100275)
(0.0502588 0.112724 -0.00676716)
(0.0401342 0.07494 -0.00427325)
(0.0276667 0.048434 -0.000471134)
(0.00907229 0.0204984 0.00292447)
(0.000334281 -0.0204516 0.00162449)
(0.0196378 -0.029809 -0.00287183)
(0.0468323 -0.018024 -0.00187475)
(0.0577533 0.000674826 -0.00512593)
(0.0526284 0.0260313 -0.00595275)
(0.0421215 0.0566387 -0.00690263)
(0.0262777 0.0922162 -0.00677994)
(0.00820375 0.128471 -0.00397571)
(-0.0161716 0.173837 -0.00902198)
(-0.0598054 0.211575 -0.0114174)
(-0.110346 0.245737 -0.0156621)
(-0.184462 0.270729 -0.0222616)
(-0.27707 0.298516 -0.0254512)
(-0.366578 0.312826 -0.0274712)
(-0.452112 0.339697 -0.0291541)
(-0.532274 0.36889 -0.038419)
(-0.612509 0.399916 -0.0493566)
(-0.680307 0.432979 -0.0568144)
(-0.727403 0.467804 -0.0648077)
(-0.75931 0.509385 -0.0727465)
(-0.716787 0.541642 -0.0633262)
(-0.528728 0.562745 -0.0476104)
(-0.427083 0.598137 -0.0480324)
(-0.410443 0.617178 -0.0311675)
(-0.373825 0.625815 -0.0260571)
(-0.349621 0.628841 -0.0194844)
(-0.303556 0.618616 -0.0161907)
(-0.259059 0.59953 -0.0100636)
(-0.20648 0.573887 0.000777858)
(-0.160218 0.540061 0.00821849)
(-0.124992 0.50208 0.0137384)
(-0.100525 0.458579 0.0139727)
(-0.083192 0.413588 0.00904577)
(-0.0597397 0.350831 0.00185216)
(-0.0388234 0.279 -0.00282107)
(-0.0183844 0.203609 -0.00853816)
(0.000577985 0.144648 -0.00964071)
(0.0106843 0.107601 -0.00683911)
(0.0174491 0.0730182 -0.00271811)
(0.00763445 0.0304718 0.00243661)
(0.00184841 -0.0227126 0.000831498)
(0.025507 -0.0236849 -0.00444082)
(0.0555329 -0.00437489 -0.0027638)
(0.0683412 0.0269154 -0.00456547)
(0.0646551 0.068358 -0.0052776)
(0.0544879 0.118986 -0.0143865)
(0.0325599 0.181455 -0.0114909)
(0.0039069 0.229791 -0.00406959)
(-0.0354474 0.271377 -0.00686138)
(-0.100067 0.302882 -0.00904769)
(-0.170754 0.331581 -0.0123782)
(-0.240463 0.353708 -0.0144452)
(-0.309605 0.38525 -0.0182068)
(-0.386049 0.419959 -0.0195752)
(-0.460904 0.456328 -0.0173985)
(-0.52853 0.490013 -0.0198104)
(-0.591441 0.525462 -0.0195898)
(-0.639614 0.55998 -0.0157442)
(-0.667874 0.596308 -0.0132173)
(-0.688965 0.63661 -0.0205055)
(-0.646369 0.664224 -0.00910456)
(-0.454259 0.67554 0.0139926)
(-0.350418 0.684465 0.0183841)
(-0.340853 0.67397 0.0363493)
(-0.317195 0.652435 0.0385844)
(-0.311226 0.629333 0.0455921)
(-0.287479 0.595579 0.0465658)
(-0.261184 0.559029 0.0493511)
(-0.229884 0.51852 0.0436542)
(-0.205166 0.477884 0.0365832)
(-0.182519 0.4342 0.0272979)
(-0.166982 0.395255 0.0195626)
(-0.156588 0.361751 0.0129314)
(-0.15042 0.327298 0.00219466)
(-0.143623 0.276342 -0.00986993)
(-0.109326 0.202971 -0.0112228)
(-0.0537302 0.155583 -0.0114838)
(-0.0167803 0.12497 -0.0101759)
(0.00276746 0.0902029 -0.0044369)
(0.00491558 0.0375538 0.00257273)
(0.00518276 -0.0236439 0.000874019)
(0.0326991 -0.0153592 -0.00423186)
(0.0673359 0.0124746 -0.00470672)
(0.0848452 0.0575022 -0.00716842)
(0.0841693 0.106395 -0.00854379)
(0.0780145 0.172871 -0.0172248)
(0.0418837 0.227973 -0.00914239)
(-0.0146236 0.274172 0.000971868)
(-0.0691277 0.312012 -0.00355712)
(-0.131547 0.350692 -0.00573672)
(-0.188297 0.390884 -0.00803504)
(-0.247715 0.432329 -0.00821458)
(-0.307371 0.4697 -0.00657259)
(-0.364993 0.503017 -0.00224934)
(-0.420819 0.5374 0.0039567)
(-0.468623 0.570671 0.00817103)
(-0.515079 0.604989 0.00598639)
(-0.551473 0.642211 0.0109927)
(-0.569513 0.682052 0.0118708)
(-0.583638 0.7147 0.0092022)
(-0.539826 0.738387 0.0223157)
(-0.359863 0.702615 0.0458058)
(-0.272529 0.666683 0.0500569)
(-0.28298 0.629322 0.0684416)
(-0.277031 0.581336 0.0733985)
(-0.288139 0.542054 0.075626)
(-0.28254 0.497509 0.0724807)
(-0.276431 0.455673 0.0686054)
(-0.261137 0.409136 0.0653579)
(-0.250167 0.369964 0.0482613)
(-0.241998 0.329431 0.0373142)
(-0.229274 0.296287 0.0242778)
(-0.21893 0.270129 0.0112809)
(-0.212278 0.247938 0.0044883)
(-0.218453 0.22644 -0.0102395)
(-0.1751 0.188613 -0.0120957)
(-0.0908458 0.156297 -0.0134831)
(-0.0383377 0.130593 -0.0112427)
(-0.003838 0.0978229 -0.00604461)
(0.00408564 0.0398222 0.00265042)
(0.00743449 -0.0205926 -0.000292456)
(0.040824 -0.0018177 -0.00746423)
(0.0844638 0.0348136 -0.00950397)
(0.103283 0.0860212 -0.00776086)
(0.106688 0.139165 -0.00918257)
(0.0887611 0.20831 -0.0106086)
(0.035239 0.24075 0.00176766)
(-0.0168037 0.291427 0.00312817)
(-0.0622816 0.342631 -0.000127602)
(-0.114833 0.395831 -0.00189715)
(-0.164869 0.445434 -0.00239682)
(-0.212616 0.489605 -0.000453774)
(-0.259806 0.527749 0.00152212)
(-0.306322 0.564454 0.00930228)
(-0.347355 0.597313 0.0125709)
(-0.382466 0.627648 0.019656)
(-0.411225 0.652349 0.0256861)
(-0.427483 0.680024 0.0283078)
(-0.441694 0.708945 0.0249497)
(-0.457392 0.725221 0.020154)
(-0.463182 0.737201 0.0250297)
(-0.33481 0.672088 0.0480111)
(-0.237556 0.581065 0.0487455)
(-0.250811 0.534026 0.0627914)
(-0.258318 0.482057 0.0659139)
(-0.281138 0.44527 0.0667643)
(-0.29307 0.406846 0.0630621)
(-0.302414 0.37101 0.058424)
(-0.300287 0.333508 0.0481282)
(-0.299613 0.299298 0.0364039)
(-0.29702 0.266742 0.0228157)
(-0.286495 0.240171 0.0126973)
(-0.276771 0.220197 0.00171295)
(-0.267334 0.208501 -0.00343596)
(-0.266039 0.204414 -0.0127931)
(-0.222089 0.193186 -0.0192414)
(-0.127954 0.163213 -0.0199582)
(-0.0556848 0.142192 -0.0161821)
(-0.0100635 0.106892 -0.00866456)
(0.00451846 0.043864 0.0013982)
(0.00849947 -0.0128237 0.000194817)
(0.0468245 0.0205363 -0.0132308)
(0.09841 0.0673932 -0.0143158)
(0.122027 0.11957 -0.00976466)
(0.128831 0.179444 -0.0124875)
(0.0947797 0.231817 -0.00665816)
(0.0376529 0.27203 0.00190015)
(0.00463413 0.328275 0.00559735)
(-0.0343872 0.377325 0.00276867)
(-0.0790107 0.431533 0.00387717)
(-0.119655 0.475548 0.00573149)
(-0.160804 0.51247 0.0108705)
(-0.195097 0.54451 0.0176704)
(-0.225083 0.573261 0.0220162)
(-0.255746 0.596711 0.026775)
(-0.282591 0.614398 0.0309138)
(-0.30706 0.627016 0.0337642)
(-0.321015 0.636268 0.0345959)
(-0.341242 0.639126 0.0270394)
(-0.365658 0.630387 0.0206)
(-0.399906 0.620459 0.0161234)
(-0.338128 0.589252 0.0314621)
(-0.248382 0.478597 0.0322819)
(-0.242635 0.432027 0.0397277)
(-0.259108 0.390316 0.044576)
(-0.288368 0.361832 0.0467947)
(-0.311232 0.333966 0.0469277)
(-0.330614 0.304239 0.0437634)
(-0.337497 0.273886 0.036737)
(-0.343802 0.242235 0.0175582)
(-0.34648 0.210742 0.0124171)
(-0.336599 0.185673 0.00255596)
(-0.323008 0.170549 -0.00349779)
(-0.305106 0.166496 -0.00808868)
(-0.303985 0.178133 -0.0157859)
(-0.266363 0.193257 -0.02046)
(-0.161665 0.170227 -0.0219401)
(-0.0729601 0.150591 -0.0179246)
(-0.0146588 0.115364 -0.00974749)
(0.00550837 0.0467791 0.00157197)
(0.00871317 -0.000526927 -0.00379064)
(0.0556738 0.0508655 -0.0201042)
(0.116539 0.105307 -0.0191206)
(0.145982 0.159506 -0.0134756)
(0.14568 0.213461 -0.01421)
(0.107956 0.253405 -0.00643808)
(0.0639001 0.307407 0.000238506)
(0.0326482 0.362571 0.0064269)
(0.00512775 0.403401 0.0127273)
(-0.0279105 0.444475 0.0123841)
(-0.0677321 0.480521 0.0164505)
(-0.0968776 0.50827 0.0221176)
(-0.121558 0.529794 0.0282434)
(-0.146875 0.54095 0.0316132)
(-0.171576 0.544853 0.0331258)
(-0.195199 0.542249 0.0337933)
(-0.218024 0.534363 0.0332225)
(-0.239164 0.53124 0.0301594)
(-0.274987 0.518058 0.0216215)
(-0.311324 0.508135 0.0145134)
(-0.351015 0.492387 0.00702785)
(-0.345432 0.491085 0.0116412)
(-0.285171 0.414626 0.0178553)
(-0.254245 0.360726 0.0175224)
(-0.269114 0.328186 0.0226266)
(-0.300274 0.306172 0.0277218)
(-0.33152 0.285213 0.0309308)
(-0.35872 0.257678 0.0329774)
(-0.37349 0.230835 0.0221131)
(-0.387668 0.195516 0.0107873)
(-0.391584 0.169859 0.000928394)
(-0.379446 0.147424 -0.00407754)
(-0.362903 0.132781 -0.0108047)
(-0.336819 0.135884 -0.0160935)
(-0.315528 0.143333 -0.0187758)
(-0.28933 0.182142 -0.0252207)
(-0.197381 0.172726 -0.0255452)
(-0.0900832 0.159539 -0.0236236)
(-0.0198175 0.125012 -0.0125226)
(0.00574787 0.0522764 1.03821e-06)
(0.00799412 0.0174911 -0.00869448)
(0.0603504 0.091579 -0.0284046)
(0.132589 0.151023 -0.0280286)
(0.163938 0.200566 -0.0164227)
(0.160184 0.242684 -0.0155885)
(0.131943 0.282412 -0.0083522)
(0.101107 0.336237 -0.00278114)
(0.0721301 0.382444 0.0132626)
(0.0405097 0.420337 0.0186353)
(0.0168251 0.446729 0.0268525)
(-0.0083096 0.467342 0.0264927)
(-0.0359273 0.480917 0.0336819)
(-0.0592973 0.485771 0.0386239)
(-0.081729 0.478713 0.040096)
(-0.106925 0.463699 0.0373916)
(-0.133684 0.442372 0.0330868)
(-0.15643 0.416854 0.0284301)
(-0.183017 0.403041 0.0198833)
(-0.223443 0.382148 0.0132604)
(-0.267835 0.384531 0.00700499)
(-0.312788 0.391034 0.00256815)
(-0.33366 0.407091 0.00258646)
(-0.31572 0.384388 0.00703804)
(-0.282597 0.330335 0.00648652)
(-0.280495 0.287514 0.00851365)
(-0.308438 0.269308 0.0161202)
(-0.343995 0.245303 0.0224193)
(-0.376338 0.223743 0.0258038)
(-0.398616 0.191266 0.02062)
(-0.412875 0.161358 0.008452)
(-0.416467 0.13207 0.011893)
(-0.413024 0.110619 0.0175213)
(-0.393325 0.0914987 0.0162649)
(-0.370485 0.09186 0.00886045)
(-0.341288 0.106409 -0.0109476)
(-0.308904 0.145652 -0.0229153)
(-0.222919 0.171062 -0.023723)
(-0.106306 0.159028 -0.0217562)
(-0.0247435 0.133121 -0.0123971)
(0.00681852 0.0555855 0.000674227)
(0.00879783 0.0351084 -0.0112001)
(0.0682027 0.132689 -0.034306)
(0.145804 0.195776 -0.0322604)
(0.178326 0.235881 -0.0181555)
(0.178728 0.273362 -0.0142744)
(0.16326 0.3115 -0.0106569)
(0.139921 0.355958 -0.00116896)
(0.111566 0.390906 0.00722853)
(0.0869062 0.420331 0.0148495)
(0.0604917 0.44036 0.0302286)
(0.0333813 0.447529 0.0378668)
(0.0154352 0.44674 0.0459894)
(-0.00571293 0.433496 0.0474606)
(-0.0330162 0.41043 0.046004)
(-0.0618663 0.38571 0.038371)
(-0.0943405 0.35395 0.0289288)
(-0.117996 0.323331 0.0207022)
(-0.149902 0.30383 0.00722894)
(-0.18812 0.281163 0.00461607)
(-0.217025 0.292471 0.00379901)
(-0.260961 0.327308 0.00256083)
(-0.299976 0.357621 0.002716)
(-0.320259 0.361155 0.00287305)
(-0.314391 0.325896 0.00260101)
(-0.29627 0.270854 0.00149204)
(-0.309599 0.239107 0.00768874)
(-0.345184 0.215942 0.0139732)
(-0.382246 0.189267 0.0181093)
(-0.409834 0.161354 0.0120048)
(-0.429618 0.127371 0.0283381)
(-0.44132 0.0924312 0.030271)
(-0.442214 0.0623185 0.0197266)
(-0.43008 0.0500704 0.0137067)
(-0.396399 0.0452747 0.00926408)
(-0.353897 0.0621374 0.00136689)
(-0.314732 0.0965563 -0.0177355)
(-0.241993 0.148573 -0.027566)
(-0.125981 0.156607 -0.0226914)
(-0.0276014 0.136766 -0.0148698)
(0.00472849 0.0598713 -0.000203457)
(0.00862414 0.0573539 -0.0125645)
(0.0707599 0.176102 -0.0385711)
(0.151986 0.239626 -0.0361971)
(0.190992 0.273726 -0.0201011)
(0.201851 0.305774 -0.0117432)
(0.193842 0.337394 -0.0057224)
(0.175567 0.368969 -0.00503276)
(0.150265 0.39256 0.00961103)
(0.125227 0.410878 0.0136711)
(0.10264 0.420101 0.0260178)
(0.0803965 0.422405 0.035201)
(0.0540044 0.412018 0.0517155)
(0.0267176 0.387408 0.0532759)
(0.00493035 0.353701 0.0519956)
(-0.0267745 0.321554 0.0361484)
(-0.0662399 0.288429 0.0231878)
(-0.0917083 0.263225 0.0118861)
(-0.128106 0.237765 -0.00362822)
(-0.155738 0.229174 -0.00142313)
(-0.158563 0.246773 0.00187439)
(-0.195034 0.274683 0.00321974)
(-0.253159 0.311731 0.00432198)
(-0.30162 0.32725 0.00452762)
(-0.323821 0.3108 0.00219399)
(-0.314652 0.262644 0.00053216)
(-0.306696 0.204927 0.00207948)
(-0.334338 0.179315 0.00825691)
(-0.37076 0.151881 0.00898167)
(-0.403544 0.124054 0.0289766)
(-0.434645 0.0883553 0.0395316)
(-0.452738 0.0535384 0.0416131)
(-0.452663 0.0267916 0.0530208)
(-0.443133 0.00221473 0.0426463)
(-0.428776 -0.0032448 0.0327533)
(-0.391545 0.00816926 0.0243908)
(-0.334998 0.0499967 0.00248653)
(-0.249488 0.102099 -0.0239876)
(-0.137453 0.145372 -0.0240409)
(-0.0334847 0.133856 -0.0141446)
(0.00643574 0.0631558 -0.000681608)
(0.00726278 0.0705312 -0.0135044)
(0.0704685 0.210298 -0.0427048)
(0.155531 0.278387 -0.0413582)
(0.202747 0.308921 -0.0227826)
(0.222974 0.332179 -0.00882768)
(0.221576 0.352174 -0.000397691)
(0.205428 0.375093 0.00376647)
(0.181748 0.387634 0.00605695)
(0.162787 0.398746 0.0132878)
(0.14183 0.401017 0.0255041)
(0.116455 0.393366 0.0330382)
(0.0903898 0.376058 0.0403598)
(0.0587805 0.348802 0.0500174)
(0.0281903 0.315023 0.0491284)
(-0.00354514 0.273212 0.0331213)
(-0.0403147 0.247037 0.0163751)
(-0.0731671 0.227007 0.00278038)
(-0.104244 0.202261 -0.0085997)
(-0.113096 0.214283 -0.00366654)
(-0.113403 0.223169 -0.000291215)
(-0.139812 0.226913 0.00748268)
(-0.189443 0.244297 0.00964976)
(-0.258092 0.272627 0.0080718)
(-0.308465 0.274452 0.00517277)
(-0.324881 0.245001 0.00327321)
(-0.309102 0.184979 0.00299437)
(-0.308958 0.136884 0.00575714)
(-0.346191 0.113577 0.0149494)
(-0.38417 0.0784999 0.0287971)
(-0.420334 0.0475939 0.0380557)
(-0.44081 0.0149222 0.0606967)
(-0.463014 -0.024481 0.0454626)
(-0.470947 -0.0671515 0.0353712)
(-0.45004 -0.0890833 0.0181819)
(-0.408581 -0.0768602 0.00352522)
(-0.358368 -0.0271829 0.0127226)
(-0.271418 0.0534892 -0.00311357)
(-0.147917 0.113394 -0.0310639)
(-0.0386303 0.127254 -0.0142507)
(0.00704944 0.0628634 -0.00239329)
(0.0061689 0.0855609 -0.0129106)
(0.0699578 0.243705 -0.0455849)
(0.157944 0.315981 -0.0465769)
(0.211193 0.34288 -0.0266939)
(0.2389 0.356689 -0.00756531)
(0.245632 0.364785 0.00518033)
(0.233678 0.374642 0.0100095)
(0.212696 0.382822 0.014191)
(0.195859 0.387677 0.0158611)
(0.174307 0.382212 0.0196448)
(0.151449 0.368153 0.0204048)
(0.120534 0.345494 0.0323689)
(0.0852802 0.314806 0.0312997)
(0.048612 0.284033 0.0350371)
(0.0165885 0.24893 0.0256995)
(-0.0140343 0.219103 0.00767334)
(-0.0526368 0.203122 -0.00619104)
(-0.0689152 0.196828 -0.00844085)
(-0.0697706 0.207834 -0.0058843)
(-0.0810214 0.202204 0.00024991)
(-0.105337 0.193709 0.0113354)
(-0.133254 0.189774 0.0201031)
(-0.189793 0.201224 0.0170455)
(-0.261352 0.225106 0.00830494)
(-0.305746 0.212147 0.00471623)
(-0.308446 0.180533 0.00438222)
(-0.292051 0.111792 0.0062511)
(-0.310265 0.0787952 0.0167614)
(-0.350301 0.0431291 0.0284764)
(-0.38362 0.00935615 0.0497925)
(-0.42715 -0.034794 0.0394692)
(-0.466924 -0.0915453 0.034409)
(-0.483011 -0.13691 0.0233366)
(-0.47213 -0.170109 0.0124359)
(-0.430334 -0.173696 -0.00208309)
(-0.362063 -0.13151 -0.00737006)
(-0.277984 -0.0304246 0.00126034)
(-0.166259 0.0711077 -0.0167072)
(-0.0429084 0.116252 -0.0184325)
(0.00649964 0.0651631 -0.00205649)
(0.00300147 0.080017 -0.0136471)
(0.064629 0.25668 -0.0465912)
(0.15554 0.334442 -0.0482793)
(0.216023 0.359595 -0.0278964)
(0.25059 0.365727 -0.00737348)
(0.260858 0.364957 0.00663077)
(0.2568 0.366847 0.0131286)
(0.241607 0.3703 0.0162136)
(0.224848 0.370862 0.0180855)
(0.202986 0.363101 0.0188932)
(0.17743 0.348405 0.0177419)
(0.146851 0.321161 0.0155039)
(0.111938 0.289372 0.0115655)
(0.0740166 0.255217 0.0144354)
(0.0337692 0.229564 0.0116262)
(0.00375546 0.215003 -0.000545714)
(-0.0166411 0.207874 -0.00811965)
(-0.0276551 0.219809 -0.00654239)
(-0.0367956 0.212973 -0.00208705)
(-0.0525785 0.201016 0.00522423)
(-0.0714725 0.182896 0.0145687)
(-0.0950219 0.169352 0.0194836)
(-0.128455 0.153927 0.024999)
(-0.196083 0.167891 0.0131288)
(-0.259403 0.169976 0.00841917)
(-0.29061 0.154363 0.0112346)
(-0.282915 0.106085 0.0122939)
(-0.278362 0.0454825 0.0208854)
(-0.310417 0.0109975 0.0356981)
(-0.354065 -0.0329122 0.0316464)
(-0.405061 -0.0896991 0.0316034)
(-0.448413 -0.144154 0.0248584)
(-0.47505 -0.200391 0.0157167)
(-0.476399 -0.243273 0.00267395)
(-0.442358 -0.26266 -0.0116169)
(-0.37571 -0.229926 -0.018079)
(-0.279753 -0.143125 -0.0204599)
(-0.165336 0.0029756 -6.27356e-05)
(-0.0493139 0.0861922 -0.0273287)
(0.00562923 0.061634 -0.00463825)
(0.0041921 0.0961606 -0.00626727)
(0.0643505 0.281062 -0.0428023)
(0.15395 0.362097 -0.0456653)
(0.21889 0.383392 -0.0260243)
(0.259826 0.381163 -0.00294503)
(0.280181 0.373909 0.0082341)
(0.282824 0.369652 0.0134241)
(0.270667 0.365519 0.0148475)
(0.255724 0.359472 0.0132425)
(0.234298 0.344302 0.0111179)
(0.2063 0.322693 0.00727912)
(0.168287 0.296538 0.00564724)
(0.129157 0.274924 0.00264007)
(0.0942323 0.26037 0.00291287)
(0.0726676 0.256188 0.00019273)
(0.0502177 0.256755 -0.00683363)
(0.0302384 0.254696 -0.0051544)
(0.0114041 0.251755 -0.00432667)
(-0.0112187 0.237031 0.00318954)
(-0.0288872 0.213225 0.00811035)
(-0.0493615 0.189113 0.0141387)
(-0.0695912 0.16454 0.0167471)
(-0.0930508 0.14097 0.0217369)
(-0.141771 0.126218 0.0189381)
(-0.208659 0.132476 0.00839636)
(-0.252912 0.117778 0.00442532)
(-0.271665 0.0988739 0.00257372)
(-0.264519 0.0401151 0.00820486)
(-0.275409 -0.0131408 0.0123164)
(-0.321371 -0.0694151 0.0198214)
(-0.370092 -0.124918 0.0199737)
(-0.418186 -0.187672 0.0173592)
(-0.452951 -0.250305 0.0107229)
(-0.465919 -0.305185 -0.000642742)
(-0.441331 -0.338688 -0.0153855)
(-0.381778 -0.325898 -0.0310035)
(-0.282272 -0.243387 -0.0358239)
(-0.169662 -0.0884951 -0.0227416)
(-0.0518791 0.0481115 -0.0182003)
(0.00858789 0.0587484 -0.00997633)
(-0.00606867 0.0850539 -0.0191073)
(0.0467809 0.2802 -0.0499446)
(0.141106 0.369957 -0.05339)
(0.213384 0.3928 -0.0337793)
(0.265356 0.389333 -0.00866214)
(0.294014 0.375726 0.000943196)
(0.302608 0.361641 0.0076397)
(0.292855 0.348037 0.00733368)
(0.274199 0.342278 0.00544222)
(0.249052 0.342578 0.00373525)
(0.224993 0.345229 0.0033653)
(0.202902 0.344569 0.00318287)
(0.181192 0.338788 0.00135356)
(0.155362 0.328763 0.00316584)
(0.121891 0.319404 -0.00255278)
(0.0862216 0.301213 -0.0111925)
(0.0572643 0.281032 -0.00910762)
(0.0333825 0.257578 -0.00592619)
(0.00619515 0.236051 -0.000926952)
(-0.0152365 0.206234 0.00693473)
(-0.0312173 0.17868 0.0113496)
(-0.0512457 0.152042 0.0137956)
(-0.0718981 0.126598 0.0172734)
(-0.105957 0.102851 0.0201453)
(-0.164239 0.096044 0.00977254)
(-0.212852 0.0837837 0.00378702)
(-0.238749 0.0685827 -0.000273521)
(-0.255593 0.0407742 0.00118598)
(-0.269868 -0.0165293 -0.000758096)
(-0.298032 -0.0758463 0.00324134)
(-0.341334 -0.135459 0.00822844)
(-0.385045 -0.203774 0.00994801)
(-0.416597 -0.28185 0.00520029)
(-0.435253 -0.358378 -0.0052988)
(-0.423713 -0.412897 -0.0201386)
(-0.37229 -0.419885 -0.0373731)
(-0.27969 -0.35468 -0.0576048)
(-0.168748 -0.203367 -0.0432954)
(-0.04874 -0.00533589 -0.0105731)
(0.00917771 0.0491516 -0.0110657)
(-0.00511054 0.156469 -0.012427)
(0.0453634 0.359208 -0.0364147)
(0.135734 0.453438 -0.0435219)
(0.211853 0.474408 -0.0259808)
(0.26934 0.465004 -0.00890298)
(0.303655 0.442106 0.00186816)
(0.316581 0.419539 0.00750382)
(0.317921 0.418186 0.0103199)
(0.324395 0.43708 0.0080012)
(0.321021 0.448285 0.00295906)
(0.30116 0.451622 -0.00236224)
(0.260756 0.437883 -0.00638198)
(0.213319 0.41204 -0.00654282)
(0.170568 0.372626 -0.00463096)
(0.134541 0.334352 -0.000488201)
(0.0956222 0.29982 -0.00740882)
(0.0670879 0.273861 -0.00768556)
(0.0472687 0.238929 -0.0055099)
(0.0201776 0.212496 -0.001791)
(-0.00154619 0.186363 0.00536175)
(-0.0175153 0.155429 0.0104242)
(-0.0346091 0.129454 0.0125257)
(-0.0541313 0.104997 0.0144127)
(-0.0820226 0.0812562 0.0174341)
(-0.133887 0.0668547 0.00632276)
(-0.180069 0.0527076 -0.000231396)
(-0.204332 0.040516 0.00256075)
(-0.22605 0.0227787 0.00345225)
(-0.251592 -0.0101876 8.1537e-05)
(-0.279317 -0.0611525 -0.00410061)
(-0.314348 -0.132272 -0.00982776)
(-0.364863 -0.210291 -0.0090826)
(-0.404647 -0.281508 -0.00502623)
(-0.420313 -0.355969 -0.00860078)
(-0.401967 -0.424455 -0.02017)
(-0.35674 -0.462816 -0.0452928)
(-0.275981 -0.435526 -0.067291)
(-0.160141 -0.289635 -0.0635795)
(-0.0378062 -0.0868363 -0.0309956)
(0.0101284 0.0362047 -0.00904055)
(-0.0185432 0.277475 -0.0275102)
(0.0207119 0.504893 -0.0448146)
(0.112171 0.608348 -0.0515047)
(0.191283 0.639994 -0.0341349)
(0.258288 0.631408 -0.0197893)
(0.302502 0.606888 -0.0067868)
(0.344525 0.574033 0.00237624)
(0.381265 0.563587 0.00076062)
(0.379277 0.560077 -0.0036129)
(0.344809 0.537708 -0.00754996)
(0.303524 0.501752 -0.00861252)
(0.258581 0.454655 -0.00885645)
(0.213074 0.40838 -0.00758112)
(0.171625 0.361071 -0.00360771)
(0.137276 0.319783 -0.00140749)
(0.109405 0.279159 0.00318532)
(0.0778267 0.25237 -0.00355009)
(0.0530123 0.221173 -0.00432676)
(0.0353357 0.189808 -0.00132383)
(0.00947149 0.164113 0.0018126)
(-0.00685674 0.136285 0.00988966)
(-0.0208203 0.109216 0.0111975)
(-0.0392617 0.0848417 0.0127512)
(-0.0621326 0.0625707 0.0158207)
(-0.108044 0.0426371 0.00497326)
(-0.149065 0.0316715 0.00487157)
(-0.17005 0.0203981 0.00518315)
(-0.195124 0.00492637 0.00613989)
(-0.225068 -0.0137213 0.00574774)
(-0.269608 -0.0439615 0.00316866)
(-0.312271 -0.0989952 0.00308118)
(-0.328428 -0.175554 -0.00449083)
(-0.341617 -0.280638 -0.0232011)
(-0.36885 -0.405597 -0.0402211)
(-0.379223 -0.503243 -0.0587447)
(-0.35863 -0.574013 -0.0813874)
(-0.277357 -0.562981 -0.0949464)
(-0.185634 -0.429924 -0.0973517)
(-0.0596705 -0.162749 -0.0532159)
(0.0193535 0.02966 -0.0140256)
(-0.00562955 0.27615 -0.00516287)
(0.033989 0.522485 -0.0384915)
(0.115772 0.640579 -0.0486646)
(0.196136 0.689593 -0.0403007)
(0.262355 0.68924 -0.029676)
(0.30587 0.666934 -0.0189022)
(0.343887 0.632472 -0.00937776)
(0.376883 0.593937 -0.00513473)
(0.375752 0.555605 -0.00518039)
(0.344783 0.517543 -0.00418221)
(0.305077 0.478665 -0.00353364)
(0.258623 0.435831 -0.00323113)
(0.212776 0.389514 -0.00181844)
(0.17357 0.343739 -0.00120319)
(0.140496 0.299843 0.000816407)
(0.112013 0.260536 0.00247036)
(0.0907286 0.225172 0.00656003)
(0.0653003 0.19839 0.000927314)
(0.0426087 0.170369 -0.00120931)
(0.0231541 0.142212 0.00221701)
(0.00422642 0.11916 0.00681621)
(-0.0107634 0.0913129 0.0102625)
(-0.0260166 0.0681374 0.011151)
(-0.0488346 0.0449267 0.0141437)
(-0.0870347 0.0228483 0.00478305)
(-0.120007 0.0134967 0.00790719)
(-0.141473 -6.26061e-05 0.00937233)
(-0.159369 -0.0118744 0.0121115)
(-0.183265 -0.0252606 0.00989067)
(-0.224876 -0.0439576 0.0074296)
(-0.279548 -0.0680203 0.00522327)
(-0.345556 -0.119475 0.00320192)
(-0.40082 -0.210422 0.00373922)
(-0.39766 -0.341238 -0.00392294)
(-0.362255 -0.48083 -0.0212335)
(-0.322367 -0.603515 -0.0409287)
(-0.247341 -0.659644 -0.0728765)
(-0.132793 -0.58303 -0.0802719)
(-0.0209078 -0.306516 -0.0767423)
(0.0166726 -0.0123956 -0.00698194)
(0.00100197 0.277174 -0.000467055)
(0.0384861 0.503856 -0.0329325)
(0.110794 0.624465 -0.0414641)
(0.188894 0.674853 -0.0361304)
(0.254798 0.674763 -0.0212295)
(0.302954 0.650343 -0.0136233)
(0.344796 0.615617 -0.00304336)
(0.379351 0.575871 -0.000379847)
(0.379205 0.535309 -0.000370428)
(0.346941 0.497888 0.000498102)
(0.304942 0.457647 0.00107087)
(0.25687 0.41469 0.00165945)
(0.210824 0.367818 0.00229225)
(0.171607 0.322624 0.00364584)
(0.141581 0.278392 0.0036834)
(0.119344 0.238696 0.00535745)
(0.0974988 0.202084 0.00582542)
(0.077995 0.170345 0.00696613)
(0.0568928 0.145239 0.00694994)
(0.0335949 0.120875 0.0014497)
(0.0153135 0.0993603 0.00633238)
(-0.000489032 0.0760246 0.00851921)
(-0.0151216 0.0514055 0.0101157)
(-0.03646 0.0282995 0.0104026)
(-0.0664598 0.0102553 0.00787012)
(-0.09523 -0.000199948 0.00989291)
(-0.112196 -0.0107316 0.0121306)
(-0.127367 -0.0218292 0.0131623)
(-0.149753 -0.0380299 0.0139513)
(-0.183495 -0.0563865 0.0129673)
(-0.229673 -0.07871 0.0119429)
(-0.279989 -0.109518 0.0100043)
(-0.337393 -0.148294 0.00451662)
(-0.383794 -0.215675 -0.00148139)
(-0.392782 -0.323548 -0.00867107)
(-0.375061 -0.456381 -0.0173659)
(-0.301513 -0.556272 -0.0304668)
(-0.183601 -0.548695 -0.0556347)
(-0.0257813 -0.328727 -0.0547024)
(0.0429927 0.0259315 -0.02643)
(0.00474835 0.26505 0.00495621)
(0.0431131 0.476271 -0.0245358)
(0.110281 0.59976 -0.03325)
(0.184405 0.655745 -0.0309657)
(0.248903 0.662755 -0.0148117)
(0.298277 0.639476 -0.00948763)
(0.339834 0.603383 -0.000347909)
(0.370972 0.559997 0.00277962)
(0.37328 0.510889 0.00270087)
(0.344631 0.470164 0.00363296)
(0.302515 0.428258 0.00438798)
(0.253329 0.384926 0.00533326)
(0.208087 0.34024 0.00681416)
(0.172243 0.297796 0.00772265)
(0.143548 0.256967 0.00886209)
(0.120645 0.218766 0.0107131)
(0.104764 0.181387 0.0126136)
(0.087977 0.151465 0.0128808)
(0.0696927 0.123262 0.0126038)
(0.0508877 0.103082 0.0130041)
(0.0303965 0.0810305 0.00673325)
(0.0104244 0.0615835 0.00822259)
(-0.00554578 0.037984 0.0118855)
(-0.0215039 0.0176329 0.00962886)
(-0.0454495 -0.00084436 0.00881376)
(-0.0676994 -0.0102437 0.0103879)
(-0.0843358 -0.0207538 0.0108301)
(-0.0995594 -0.0343287 0.0123713)
(-0.117884 -0.0516196 0.0137236)
(-0.146333 -0.0725013 0.0148672)
(-0.185385 -0.095653 0.0160493)
(-0.229561 -0.127958 0.0161519)
(-0.278885 -0.170655 0.0174602)
(-0.309213 -0.229189 0.0168799)
(-0.329576 -0.307803 0.0111955)
(-0.344471 -0.425042 0.00266868)
(-0.320072 -0.517656 -0.0140569)
(-0.22737 -0.541907 -0.0376847)
(-0.0650985 -0.334964 -0.0505407)
(0.0233607 0.0419127 -0.0146041)
(0.00883735 0.243228 0.00107175)
(0.0474351 0.431049 -0.0204568)
(0.108373 0.560357 -0.0283218)
(0.180895 0.619136 -0.0270432)
(0.24411 0.633282 -0.0148157)
(0.293085 0.612583 -0.00702659)
(0.336388 0.576183 0.000971921)
(0.363657 0.532794 0.00455403)
(0.366219 0.481665 0.00518885)
(0.34149 0.437533 0.00597813)
(0.298625 0.393792 0.00734323)
(0.250763 0.351711 0.00934155)
(0.208567 0.311201 0.0113161)
(0.174806 0.272339 0.0132193)
(0.149039 0.235031 0.0129622)
(0.128932 0.200128 0.0125418)
(0.1132 0.166117 0.0125117)
(0.0999827 0.134152 0.0123637)
(0.0852444 0.0980264 0.011765)
(0.0647097 0.0788439 0.00961421)
(0.0442928 0.0640233 0.0113544)
(0.024961 0.0472552 0.00856728)
(0.00841543 0.0294275 0.00999995)
(-0.00772377 0.0107154 0.00916526)
(-0.0256119 -0.00721897 0.00969473)
(-0.0438083 -0.0170834 0.00968026)
(-0.06054 -0.0296113 0.0107604)