/*--------------------------------*- C++ -*----------------------------------*\
| =========                 |                                                 |
| \\      /  F ield         | OpenFOAM: The Open Source CFD Toolbox           |
|  \\    /   O peration     | Version:  v1806                                 |
|   \\  /    A nd           | Web:      www.OpenFOAM.com                      |
|    \\/     M anipulation  |                                                 |
\*---------------------------------------------------------------------------*/
FoamFile
{
    version     2.0;
    format      ascii;
    class       vectorField;
    location    "0.084";
    object      currentcloudofpoints;
}
// * * * * * * * * * * * * * * * * * * * * * * * * * * * * * * * * * * * * * //


2409
(
(0.98087 1.42724 0.994339)
(0.768992 1.0726 1.0806)
(1.36469 1.28057 0.999245)
(1.07838 1.27421 0.807022)
(1.08074 1.25858 1.1588)
(1.09149 1.11218 1.00013)
(0.969053 1.53496 1.003)
(0.580937 0.929158 0.986706)
(1.5746 1.40698 0.998937)
(1.18049 1.07897 0.722966)
(1.1098 1.10484 1.2003)
(1.33025 1.27265 1.06351)
(1.24029 1.27641 1.10087)
(1.18233 1.26289 1.11953)
(1.07069 1.23458 1.08004)
(1.35237 1.27898 1.03514)
(1.2827 1.26616 1.07998)
(1.207 1.28785 1.13344)
(1.13738 1.23803 1.08297)
(1.04352 1.25743 1.10891)
(0.777151 0.976325 1.23664)
(0.784596 1.12401 1.35022)
(0.901948 1.20354 1.36954)
(0.971085 1.22643 1.2687)
(0.797588 0.98315 1.1963)
(0.761761 1.03087 1.30534)
(0.854434 1.17555 1.37903)
(0.931136 1.22655 1.31914)
(1.04206 1.22953 1.20431)
(1.32498 1.27486 0.934571)
(1.24241 1.26563 0.897414)
(1.16884 1.26657 0.882234)
(1.05826 1.23565 0.921027)
(1.34663 1.27761 0.962399)
(1.28294 1.26584 0.918352)
(1.20011 1.27178 0.878326)
(1.12589 1.25234 0.908823)
(1.04166 1.2651 0.890817)
(0.941069 1.22864 0.692401)
(0.849317 1.1722 0.649617)
(0.799608 1.07761 0.690855)
(0.799552 0.980774 0.78933)
(1.02104 1.24207 0.762618)
(0.886946 1.20935 0.662855)
(0.820793 1.13221 0.660268)
(0.821629 1.02814 0.743206)
(0.707845 0.996083 0.872197)
(1.04642 1.36009 1.18736)
(1.08918 1.42529 1.26661)
(1.05767 1.42445 1.20875)
(1.01426 1.42124 1.06624)
(1.05201 1.29983 1.16865)
(1.06812 1.38645 1.23841)
(1.07652 1.43969 1.24826)
(1.0399 1.41232 1.11658)
(0.991674 1.43064 1.0225)
(1.00192 1.3986 0.932991)
(1.05924 1.43216 0.75783)
(1.09694 1.45143 0.712864)
(1.05256 1.36434 0.775118)
(0.972104 1.40049 0.972711)
(1.04218 1.40723 0.87584)
(1.07343 1.46305 0.730066)
(1.08863 1.39815 0.726937)
(1.05303 1.31227 0.796364)
(0.773729 1.05858 1.12966)
(0.765381 1.07443 1.13075)
(0.746857 1.13073 1.03778)
(0.840381 1.31199 1.00776)
(0.783303 1.05305 1.14264)
(0.768682 1.06934 1.12925)
(0.764026 1.10512 1.12755)
(0.748233 1.18269 0.976989)
(0.91066 1.31395 1.00769)
(1.16397 1.46498 0.988605)
(1.25522 1.44048 0.991742)
(1.27317 1.38672 0.995137)
(1.31818 1.31448 0.998964)
(1.08897 1.46928 0.986398)
(1.21447 1.45371 0.990857)
(1.26722 1.41939 0.992617)
(1.25548 1.35803 0.996865)
(1.36041 1.30338 0.999096)
(0.497408 1.0415 1.14815)
(0.592968 1.03539 1.29183)
(0.827689 1.06977 1.46324)
(0.915527 1.06647 1.4996)
(1.00487 1.01841 1.35454)
(0.997214 1.0966 1.24249)
(1.04747 1.10704 1.17976)
(0.565989 0.978671 1.09818)
(0.511803 1.04955 1.21786)
(0.717665 1.04788 1.40133)
(0.883587 1.06855 1.48919)
(0.96052 1.05376 1.43895)
(1.00837 1.04849 1.28124)
(1.02528 1.12385 1.18723)
(1.07539 1.10496 1.18131)
(1.20431 1.13692 1.345)
(1.26798 1.15832 1.3419)
(1.3255 1.19361 1.30791)
(1.37889 1.23135 1.28195)
(1.44233 1.26051 1.24085)
(1.51256 1.31891 1.18369)
(1.56325 1.38356 1.10251)
(1.16812 1.10552 1.26744)
(1.2373 1.1473 1.34963)
(1.29738 1.17399 1.32183)
(1.35056 1.21376 1.29093)
(1.40658 1.24456 1.26207)
(1.475 1.28413 1.21179)
(1.53985 1.34973 1.14643)
(1.571 1.39716 1.05167)
(0.507308 1.04128 0.829616)
(0.579658 1.00881 0.730768)
(0.82594 1.05142 0.526816)
(0.919459 1.0686 0.498002)
(1.0207 1.02707 0.641209)
(1.02652 1.08613 0.753981)
(1.07982 1.06405 0.779946)
(0.575609 0.991572 0.866799)
(0.499795 1.07325 0.787675)
(0.711391 1.03283 0.587635)
(0.886004 1.06359 0.506452)
(0.970338 1.05891 0.561355)
(1.02791 1.04378 0.713157)
(1.03929 1.09091 0.791193)
(1.13594 1.06315 0.76356)
(1.56103 1.38313 0.897648)
(1.51315 1.32156 0.815582)
(1.4426 1.26389 0.760053)
(1.37939 1.23342 0.719628)
(1.32803 1.19555 0.69353)
(1.27781 1.15792 0.661621)
(1.22624 1.12822 0.648646)
(1.56883 1.39617 0.947006)
(1.53904 1.3512 0.853877)
(1.47597 1.28782 0.787279)
(1.40677 1.247 0.740192)
(1.35129 1.21662 0.708961)
(1.30316 1.17476 0.682589)
(1.2519 1.14287 0.654037)
(1.20539 1.10442 0.671697)
(0.923729 1.62426 1.18768)
(0.933832 1.57488 1.29276)
(0.904226 1.4997 1.30063)
(0.983298 1.42666 1.3876)
(0.983553 1.30564 1.44619)
(1.06186 1.21822 1.46623)
(1.10569 1.13144 1.24342)
(0.919568 1.62655 1.09264)
(0.93696 1.6003 1.26201)
(0.913651 1.53191 1.30054)
(0.943685 1.46833 1.3327)
(0.97694 1.35647 1.41659)
(1.02146 1.25929 1.45536)
(1.12799 1.17713 1.40994)
(1.10897 1.15238 1.20363)
(0.93425 1.64382 0.787087)
(0.932038 1.5737 0.711761)
(0.911559 1.50612 0.700601)
(0.985062 1.42966 0.615185)
(1.00686 1.28352 0.544684)
(1.07052 1.20942 0.560448)
(1.15034 1.12988 0.70969)
(0.924733 1.64147 0.872868)
(0.932394 1.60812 0.73779)
(0.915703 1.53322 0.706366)
(0.932961 1.4793 0.676058)
(0.993623 1.34309 0.567557)
(1.03912 1.24366 0.556058)
(1.10682 1.18206 0.594868)
(1.161 1.10557 0.747564)
(0.582873 1.01567 0.992238)
(0.627735 1.00486 1.00354)
(0.680489 0.996337 0.992783)
(0.691004 1.16141 0.998515)
(0.739682 1.29295 1.02438)
(0.79178 1.37485 1.00736)
(0.871808 1.46625 0.998806)
(0.573059 0.985191 0.985266)
(0.60387 1.01552 0.999692)
(0.655086 0.989012 1.00265)
(0.690403 1.05506 0.980217)
(0.716528 1.23085 1.02691)
(0.764769 1.33382 1.01503)
(0.824074 1.41585 0.996711)
(0.914663 1.49992 0.991414)
(1.08801 1.55988 1.02466)
(1.16107 1.5996 1.01778)
(1.22351 1.61488 1.02061)
(1.32672 1.58618 1.00518)
(1.4155 1.57285 1.00128)
(1.47957 1.53977 0.998243)
(1.53531 1.48243 0.999213)
(1.02684 1.5475 1.01999)
(1.13503 1.57833 1.01957)
(1.18943 1.61328 1.02142)
(1.27493 1.5984 1.01158)
(1.38127 1.57656 1.00308)
(1.45329 1.55276 0.998993)
(1.50934 1.50523 0.998474)
(1.55961 1.4478 0.999162)
(1.0517 1.18947 0.902781)
(1.13279 1.0805 0.79676)
(1.09215 1.26232 0.852281)
(1.05306 1.19452 1.09727)
(1.07808 1.24779 1.12487)
(1.09333 1.12968 1.15974)
(0.684209 0.872572 1.01636)
(0.762585 1.0039 0.947162)
(0.599867 0.907645 0.987292)
(1.46735 1.31402 0.998006)
(1.42187 1.29991 0.999548)
(1.52014 1.33587 0.997796)
(1.16219 1.56189 1.31289)
(1.21277 1.65793 1.19353)
(1.17389 1.30387 1.3398)
(1.4222 1.53454 1.20585)
(1.06226 1.62994 1.1457)
(1.20903 1.22073 1.34817)
(1.52694 1.45013 1.16623)
(1.4517 1.46976 1.26277)
(1.10009 1.63006 1.25151)
(1.29343 1.60599 1.26337)
(1.31415 1.59457 1.19378)
(0.999715 1.52035 1.31375)
(1.32658 1.47712 1.30212)
(1.4792 1.52377 1.16026)
(1.22221 1.48914 1.33666)
(1.50224 1.51487 1.07907)
(1.25356 1.27469 1.35635)
(1.4518 1.55249 1.09614)
(1.01034 1.62042 1.23556)
(1.15712 1.18164 1.32966)
(1.07625 1.32515 1.40961)
(1.24174 1.4049 1.31738)
(1.45932 1.35301 1.2704)
(1.20545 1.63108 1.13075)
(1.01419 1.58743 1.30833)
(1.17563 1.40659 1.35091)
(1.38908 1.31176 1.31247)
(1.34813 1.4047 1.32738)
(0.98839 1.62971 1.11865)
(1.1683 1.13695 1.29863)
(1.54831 1.46263 1.0702)
(1.10937 1.4847 1.35377)
(1.04823 1.42153 1.38488)
(1.32181 1.30677 1.34391)
(1.28107 1.59827 1.0918)
(1.39645 1.57241 1.1121)
(1.20426 1.18134 1.35327)
(1.23961 1.20002 1.35633)
(1.13191 1.11805 1.22786)
(1.18068 1.14267 1.32947)
(1.19047 1.18129 1.33936)
(1.27289 1.21632 1.35119)
(1.30471 1.23019 1.33574)
(1.23484 1.24918 1.3509)
(1.33311 1.24607 1.31693)
(1.35793 1.26607 1.30656)
(1.29029 1.28972 1.34965)
(1.38312 1.27014 1.29095)
(1.41562 1.27983 1.26834)
(1.35391 1.31186 1.33126)
(1.44926 1.29967 1.2479)
(1.48515 1.32961 1.22023)
(1.42262 1.32514 1.29112)
(1.5252 1.3804 1.18062)
(1.54696 1.41531 1.13292)
(1.49835 1.39644 1.23008)
(1.56082 1.42655 1.0873)
(1.56507 1.43644 1.03399)
(1.53799 1.45528 1.11838)
(1.54213 1.47268 1.03554)
(1.11357 1.61181 1.09358)
(1.04942 1.60917 1.09035)
(1.02115 1.62763 1.13227)
(1.0188 1.59622 1.06894)
(0.960407 1.6041 1.06449)
(1.2316 1.6063 1.08752)
(1.18103 1.61296 1.09585)
(1.13351 1.63177 1.14587)
(1.31014 1.58767 1.05085)
(1.25769 1.60023 1.05733)
(1.24813 1.61067 1.11602)
(1.41016 1.56895 1.05481)
(1.37448 1.57689 1.0618)
(1.34964 1.58028 1.11701)
(1.46744 1.54073 1.04749)
(1.43863 1.5573 1.05134)
(1.42852 1.55976 1.10438)
(1.51916 1.49473 1.04073)
(1.49152 1.52394 1.03916)
(1.47954 1.52993 1.08809)
(1.52614 1.48399 1.07762)
(1.13079 1.59566 1.29009)
(1.14585 1.64412 1.22498)
(1.17941 1.62257 1.2582)
(1.25007 1.64164 1.22451)
(1.22106 1.5949 1.28155)
(1.14623 1.64971 1.18032)
(1.21278 1.64929 1.16043)
(1.26706 1.63437 1.18092)
(1.30645 1.60938 1.22761)
(1.26503 1.61629 1.1531)
(1.20139 1.25901 1.33128)
(1.21973 1.29389 1.33343)
(1.18578 1.19897 1.32622)
(1.1621 1.25067 1.3423)
(1.21034 1.35256 1.31683)
(1.24268 1.33317 1.32906)
(1.1292 1.31927 1.37845)
(1.12356 1.26225 1.39383)
(1.17033 1.35344 1.34376)
(1.13013 1.37245 1.37868)
(1.20989 1.41003 1.32217)
(1.41356 1.55026 1.16705)
(1.44336 1.54107 1.15558)
(1.37606 1.54812 1.21785)
(1.36237 1.56761 1.17089)
(1.38613 1.4667 1.28164)
(1.38854 1.49841 1.26485)
(1.44403 1.50131 1.23319)
(1.45502 1.52625 1.18434)
(1.47536 1.49709 1.21603)
(1.46739 1.53605 1.12899)
(1.37015 1.53535 1.25829)
(1.3169 1.52085 1.30289)
(1.05538 1.61914 1.25604)
(1.03108 1.63127 1.18402)
(1.07864 1.63656 1.20415)
(0.993976 1.62961 1.17543)
(0.967216 1.61946 1.21722)
(0.980883 1.60078 1.27748)
(0.954791 1.63268 1.15108)
(0.972989 1.58022 1.30106)
(0.951721 1.54059 1.3078)
(1.01888 1.60392 1.2845)
(0.947259 1.51519 1.29752)
(0.971138 1.47877 1.31837)
(1.00902 1.54803 1.3212)
(1.00781 1.3535 1.40683)
(1.01543 1.42267 1.38347)
(1.00583 1.48198 1.32377)
(1.0288 1.31198 1.42353)
(1.07442 1.2626 1.43797)
(1.06048 1.37321 1.39644)
(1.13075 1.20704 1.40842)
(1.14084 1.13989 1.28666)
(1.13475 1.1342 1.24206)
(1.16721 1.15271 1.29242)
(1.07595 1.53223 1.33036)
(1.12698 1.51982 1.33774)
(1.03929 1.50283 1.32471)
(1.17029 1.48981 1.34849)
(1.19552 1.52725 1.32504)
(1.0666 1.56334 1.32218)
(1.25579 1.53543 1.31313)
(1.51812 1.48209 1.12589)
(1.07856 1.45757 1.36224)
(1.11193 1.41093 1.38185)
(1.15205 1.44711 1.36262)
(1.19569 1.45685 1.34608)
(1.30221 1.59409 1.15218)
(1.50574 1.48481 1.16995)
(1.49476 1.45348 1.22507)
(1.45228 1.41223 1.27995)
(1.49269 1.51372 1.1229)
(1.39449 1.43168 1.29891)
(1.33523 1.44755 1.3064)
(1.40705 1.37555 1.30948)
(1.06362 1.60168 1.29464)
(1.2734 1.48337 1.31793)
(1.23327 1.44958 1.32836)
(1.2777 1.4465 1.31772)
(1.28817 1.40934 1.32608)
(1.2742 1.35735 1.33289)
(1.32563 1.35536 1.34292)
(1.36848 1.3579 1.33107)
(0.793485 1.2911 1.44744)
(0.636025 1.46129 1.22267)
(0.562144 1.21304 1.16346)
(0.603086 1.17433 1.23543)
(0.707582 1.46023 1.25032)
(0.918161 1.26639 1.50476)
(0.510395 1.13893 1.19714)
(0.862261 1.57431 1.27825)
(1.05589 1.1352 1.43267)
(0.647436 1.39452 1.21684)
(0.708627 1.1938 1.3473)
(0.746096 1.53738 1.26967)
(0.830312 1.37964 1.42192)
(0.962358 1.13338 1.53419)
(0.928082 1.33883 1.46045)
(0.864172 1.43748 1.36195)
(0.667578 1.10085 1.32454)
(1.0472 1.18054 1.46927)
(0.510364 1.16032 1.1256)
(0.688013 1.34673 1.12649)
(0.987779 1.19028 1.51205)
(0.806066 1.47677 1.28527)
(0.986942 1.24965 1.47169)
(0.681835 1.26257 1.13291)
(0.905957 1.16841 1.5047)
(0.871401 1.13094 1.48327)
(0.60713 1.29628 1.20386)
(0.80072 1.22528 1.45561)
(0.929668 1.1087 1.52429)
(0.912327 1.2085 1.51936)
(0.572996 1.26539 1.1357)
(0.598496 1.34899 1.1661)
(0.539806 1.06905 1.13271)
(1.07591 1.16119 1.21553)
(0.652628 1.17375 1.11053)
(0.794199 1.56573 1.10622)
(0.794027 1.40674 1.13533)
(0.501231 1.16111 1.16463)
(0.536558 1.17454 1.17194)
(0.580181 1.14981 1.23096)
(0.47645 1.12729 1.15833)
(0.510341 1.12383 1.13163)
(0.640895 1.113 1.27918)
(0.620363 1.09156 1.27043)
(0.474574 1.09817 1.17766)
(0.543734 1.09813 1.23161)
(0.510996 1.06808 1.13539)
(0.629469 1.05827 1.31033)
(1.04348 1.07484 1.25577)
(1.04567 1.14623 1.20482)
(0.980714 1.1051 1.4645)
(1.0282 1.09335 1.42185)
(0.987086 1.13974 1.50772)
(1.07403 1.15754 1.1736)
(1.09761 1.16043 1.1789)
(1.0632 1.09576 1.24527)
(0.687645 1.50805 1.24824)
(0.731559 1.48929 1.26543)
(0.683266 1.47061 1.24787)
(0.781655 1.49433 1.27958)
(0.748809 1.46196 1.25701)
(0.748566 1.38244 1.29749)
(0.76005 1.41331 1.27995)
(0.852944 1.41558 1.39635)
(0.670895 1.4315 1.22663)
(0.739871 1.35676 1.31496)
(0.810645 1.43726 1.29759)
(0.647336 1.43281 1.22049)
(0.581062 1.19494 1.19756)
(0.529707 1.18881 1.14624)
(0.577056 1.17055 1.11234)
(0.555518 1.20954 1.11797)
(0.595872 1.1214 1.1216)
(0.582614 1.08317 1.12154)
(0.58626 1.01822 1.07998)
(0.657938 1.10198 1.07699)
(0.808039 1.54201 1.28587)
(0.834671 1.51393 1.29469)
(0.776931 1.58857 1.23491)
(0.841314 1.61086 1.23285)
(0.648881 1.4793 1.17617)
(0.699117 1.54365 1.19385)
(0.782665 1.47408 1.09346)
(0.888582 1.34998 1.45415)
(0.907063 1.39702 1.42011)
(0.921211 1.30264 1.47859)
(0.875292 1.30854 1.47777)
(0.813034 1.33012 1.44376)
(0.86733 1.27003 1.4899)
(0.719595 1.32247 1.3213)
(0.959474 1.09073 1.47949)
(0.952397 1.12207 1.52236)
(0.980674 1.16483 1.51555)
(1.00608 1.16547 1.48877)
(0.954173 1.17227 1.52613)
(0.956532 1.20169 1.52453)
(0.947705 1.15118 1.52035)
(0.928685 1.14106 1.51172)
(0.913445 1.18811 1.51137)
(0.948445 1.37383 1.42135)
(0.939218 1.43872 1.38736)
(0.956304 1.32388 1.448)
(0.98064 1.28086 1.45442)
(0.948574 1.29878 1.45988)
(0.952816 1.26416 1.4789)
(0.893526 1.45923 1.33395)
(0.855025 1.4791 1.29803)
(1.12748 1.13195 1.3691)
(1.05607 1.19729 1.46987)
(1.0311 1.20338 1.47097)
(1.02555 1.22817 1.46961)
(1.08231 1.15108 1.22851)
(1.11943 1.10416 1.33502)
(1.06462 1.15597 1.44052)
(1.02828 1.18141 1.468)
(1.00179 1.2152 1.47322)
(0.607635 1.22465 1.22705)
(0.627431 1.18236 1.26289)
(0.590641 1.253 1.17834)
(0.637858 1.24594 1.26627)
(0.608659 1.21605 1.12132)
(0.559135 1.23788 1.14325)
(0.590068 1.28288 1.16338)
(0.690166 1.15345 1.33267)
(0.894471 1.56727 1.28502)
(0.896885 1.60765 1.24095)
(0.863466 1.62309 1.17055)
(0.885227 1.5187 1.05568)
(0.863886 1.51659 1.2967)
(0.916744 1.23679 1.51243)
(0.862467 1.23879 1.49364)
(0.701595 1.28339 1.32037)
(0.625938 1.33796 1.20975)
(0.798235 1.25517 1.4547)
(0.696704 1.25349 1.32535)
(0.86832 1.21422 1.49487)
(0.578162 0.979947 1.07424)
(0.687727 1.07739 1.04689)
(0.697493 1.10998 1.03279)
(0.747826 1.33935 1.09696)
(0.718648 1.28636 1.09209)
(0.698614 1.19563 1.07249)
(0.673271 1.20731 1.12972)
(0.681731 1.30805 1.12487)
(0.787873 1.38684 1.06516)
(0.760275 1.35805 1.06288)
(0.741733 1.37864 1.13491)
(0.876886 1.4714 1.10314)
(0.826413 1.42499 1.08316)
(0.735838 1.09458 1.40804)
(0.901257 1.09588 1.50226)
(0.854093 1.10213 1.47476)
(0.764854 1.1302 1.42069)
(0.925218 1.08665 1.51224)
(0.913658 1.11992 1.50455)
(0.959652 1.22929 1.50694)
(0.791468 1.16201 1.43514)
(0.610924 1.40511 1.19187)
(0.621521 1.38097 1.19389)
(0.603533 1.31798 1.17488)
(0.896907 1.15011 1.49196)
(0.825009 1.18248 1.46053)
(0.767782 1.21704 1.41729)
(0.86167 1.19442 1.48694)
(0.6176 1.35614 1.14255)
(0.619435 1.41615 1.16675)
(0.614052 1.26119 1.1222)
(0.607679 1.30622 1.12811)
(0.588151 1.3036 1.14593)
(0.661951 1.2497 0.674811)
(0.725368 1.3707 0.718597)
(0.643967 1.13813 0.733693)
(0.681833 1.12027 0.727787)
(0.688254 1.52345 0.744355)
(0.936881 1.23225 0.488905)
(0.800733 1.55364 0.71856)
(1.00224 1.18989 0.490705)
(0.628405 1.21806 0.774749)
(0.649513 1.43854 0.757925)
(0.904432 1.1515 0.486465)
(0.878158 1.45495 0.625984)
(0.846891 1.29432 0.545951)
(0.632198 1.29839 0.765009)
(0.883092 1.22606 0.507246)
(0.732433 1.46407 0.733138)
(0.966786 1.26535 0.501576)
(0.592016 1.06478 0.741776)
(1.06186 1.11476 0.598455)
(0.52844 1.12127 0.82745)
(0.705824 1.21777 0.783592)
(0.65051 1.38999 0.870873)
(0.634944 1.26351 0.854898)
(0.638075 1.12476 0.795571)
(0.818138 1.48508 0.708729)
(0.562041 1.32722 0.814819)
(0.758642 1.14293 0.553811)
(0.59996 1.19213 0.821335)
(0.925497 1.34147 0.535798)
(0.774552 1.43568 0.900424)
(0.956757 1.14336 0.468268)
(0.576206 1.06864 0.848956)
(0.856616 1.63511 0.791967)
(0.788221 1.2261 0.551627)
(0.857119 1.37825 0.569296)
(1.10466 1.12112 0.766811)
(0.619455 1.25917 0.779044)
(0.661945 1.27282 0.702792)
(0.625123 1.21901 0.747566)
(0.617863 1.1916 0.73309)
(0.646793 1.17385 0.740532)
(0.730229 1.23217 0.59551)
(0.734313 1.28747 0.6139)
(0.617521 1.17539 0.68487)
(0.705398 1.18906 0.604415)
(0.786142 1.1848 0.542835)
(0.978459 1.1778 0.484972)
(0.979496 1.20588 0.490345)
(1.00878 1.16187 0.518763)
(0.950563 1.2509 0.49854)
(0.9922 1.22051 0.504242)
(0.988195 1.13847 0.508135)
(0.952844 1.18489 0.476979)
(0.913001 1.22918 0.498596)
(0.863453 1.26088 0.531113)
(0.897 1.26457 0.516254)
(0.914357 1.28558 0.517576)
(0.932669 1.18375 0.481558)
(1.13271 1.11992 0.735395)
(1.13268 1.09628 0.776802)
(1.08519 1.1035 0.799169)
(0.764082 1.49515 0.719548)
(0.722102 1.48568 0.724551)
(0.749155 1.53729 0.723434)
(0.771448 1.46621 0.725312)
(0.804861 1.50748 0.714008)
(0.760185 1.58788 0.779974)
(0.708812 1.55249 0.822139)
(0.870487 1.52132 0.704803)
(0.857737 1.54205 0.711431)
(0.828752 1.59545 0.745584)
(0.890517 1.58594 0.727578)
(0.781745 1.5959 0.841686)
(1.06867 1.14927 0.576486)
(1.09825 1.10522 0.714484)
(1.01204 1.22899 0.527463)
(1.0323 1.19696 0.528349)
(1.07718 1.16517 0.571328)
(0.586869 1.26595 0.81866)
(0.597336 1.30227 0.813518)
(0.660568 1.16392 0.748514)
(0.619006 1.20282 0.795188)
(0.569283 1.24518 0.833404)
(1.05709 1.08899 0.740405)
(1.06449 1.11955 0.789481)
(1.05138 1.07746 0.616625)
(0.687946 1.33124 0.727135)
(0.618324 1.35646 0.803798)
(0.65557 1.41051 0.787145)
(0.599745 1.39031 0.787864)
(0.690094 1.45609 0.749466)
(0.674731 1.47453 0.735954)
(0.700138 1.42878 0.767068)
(0.611359 1.44852 0.76924)
(0.634686 1.49152 0.806227)
(0.564422 1.37203 0.823277)
(0.842371 1.2288 0.526079)
(0.897659 1.18752 0.495277)
(0.853238 1.192 0.50889)
(0.940147 1.14715 0.478778)
(0.955577 1.10821 0.503342)
(0.925914 1.10645 0.495494)
(0.853957 1.15243 0.503978)
(0.881305 1.10624 0.504794)
(0.991497 1.09913 0.551305)
(0.822664 1.42289 0.639723)
(0.775868 1.43049 0.71427)
(0.834273 1.45719 0.684927)
(0.947058 1.4441 0.604534)
(0.897633 1.47345 0.664258)
(0.869559 1.49039 0.697925)
(0.912433 1.39925 0.568035)
(0.960156 1.36785 0.560668)
(0.876488 1.42631 0.587524)
(0.820282 1.4037 0.608027)
(0.89312 1.35427 0.5505)
(0.815383 1.35274 0.583766)
(0.77863 1.31953 0.596163)
(0.821097 1.26158 0.553794)
(0.948431 1.30014 0.515814)
(0.887639 1.31787 0.53752)
(0.849635 1.32593 0.557773)
(0.988772 1.2688 0.52364)
(0.972814 1.3106 0.531034)
(0.617849 1.10003 0.742386)
(0.656865 1.09192 0.732961)
(0.671502 1.12431 0.725045)
(0.635787 1.11024 0.764666)
(0.618126 1.08582 0.764133)
(0.583977 1.03419 0.738411)
(0.692184 1.07064 0.601638)
(0.534546 1.09366 0.798797)
(0.624133 1.11899 0.66038)
(0.806414 1.09565 0.528558)
(0.730239 1.39765 0.876161)
(0.669675 1.15393 0.747733)
(0.58239 1.11154 0.815535)
(0.654033 1.12438 0.761002)
(0.663023 1.1531 0.766567)
(0.894505 1.63823 0.78172)
(0.889095 1.63304 0.88873)
(0.611605 1.13144 0.931)
(0.593447 1.12054 0.924476)
(0.570993 1.08855 0.93361)
(0.56518 1.02529 0.912735)
(0.59886 1.0978 0.827109)
(0.643259 1.0969 0.950121)
(0.633095 1.08305 0.957235)
(0.682827 1.16736 0.778435)
(0.667781 1.22858 0.926426)
(0.665904 1.21997 0.870276)
(0.683748 1.24648 0.800319)
(0.703374 1.27056 0.93071)
(0.734467 1.30207 0.922781)
(0.637743 1.31589 0.8667)
(0.806185 1.3845 0.922515)
(0.776424 1.33937 0.955094)
(0.839018 1.44197 0.899622)
(0.825828 1.55651 0.925435)
(0.539472 1.05552 0.840593)
(0.492443 1.09878 0.824902)
(0.527981 1.09874 0.838052)
(0.636897 1.19091 0.807246)
(0.582852 1.22831 0.849223)
(0.557133 1.28725 0.849999)
(1.24812 1.62897 0.761146)
(1.15122 1.61457 0.710311)
(1.48217 1.51355 0.808057)
(1.16813 1.4123 0.630736)
(1.02379 1.63632 0.815242)
(1.5298 1.44112 0.837117)
(1.21345 1.22352 0.647676)
(1.20451 1.33691 0.663298)
(1.11495 1.63023 0.811944)
(1.20027 1.50718 0.66797)
(1.03811 1.51613 0.681382)
(1.24755 1.60565 0.859317)
(1.26559 1.44908 0.689762)
(1.14453 1.29073 0.636985)
(1.33083 1.53476 0.710505)
(1.16178 1.19487 0.670317)
(1.47435 1.39283 0.740385)
(1.09103 1.28896 0.602547)
(1.07287 1.58324 0.914646)
(1.51006 1.50815 0.916863)
(1.43751 1.57176 0.898388)
(1.38768 1.46715 0.706074)
(1.28081 1.26962 0.640781)
(1.02183 1.59052 0.725842)
(1.15505 1.5892 0.873981)
(1.41955 1.55854 0.787956)
(1.34353 1.29193 0.664053)
(1.29101 1.37739 0.659635)
(0.973875 1.61701 0.894949)
(1.54975 1.4554 0.92882)
(1.19379 1.14269 0.674892)
(1.35009 1.60007 0.819639)
(1.36224 1.59077 0.921524)
(1.39443 1.32944 0.684869)
(0.957887 1.52187 0.712182)
(1.07343 1.40216 0.621417)
(1.54358 1.46775 0.963082)
(1.56452 1.43292 0.964622)
(1.55931 1.42215 0.912368)
(1.18618 1.6347 0.775489)
(1.15132 1.63932 0.764221)
(1.2069 1.6264 0.731273)
(1.16416 1.55252 0.66916)
(1.23091 1.56874 0.682928)
(1.25221 1.61975 0.796402)
(1.18593 1.61933 0.808678)
(1.26582 1.50915 0.685746)
(1.29645 1.58761 0.724027)
(1.29998 1.61344 0.778405)
(1.30823 1.60372 0.837248)
(1.3491 1.58812 0.762065)
(1.10214 1.56197 0.96851)
(1.14868 1.57221 0.946795)
(0.963321 1.59085 0.940822)
(1.04397 1.56159 0.970588)
(1.02121 1.5943 0.919637)
(1.16882 1.58827 0.939537)
(1.19062 1.60767 0.941214)
(1.11757 1.58223 0.884946)
(1.22168 1.61176 0.921171)
(1.27577 1.60431 0.935722)
(1.19733 1.60168 0.854558)
(1.39447 1.5794 0.960184)
(1.34202 1.58822 0.958389)
(1.30884 1.59828 0.894737)
(1.4307 1.56963 0.946286)
(1.46662 1.54521 0.943286)
(1.40811 1.57982 0.90838)
(1.49764 1.51919 0.957023)
(1.52324 1.48872 0.956366)
(1.48045 1.53321 0.901897)
(1.53043 1.47622 0.919747)
(1.18549 1.10978 0.701667)
(1.17703 1.12835 0.713828)
(1.20481 1.14334 0.654339)
(0.98365 1.62301 0.754419)
(0.97908 1.63981 0.797782)
(0.988492 1.62926 0.850436)
(0.95715 1.64329 0.829635)
(0.973644 1.58093 0.726017)
(1.03623 1.62774 0.762084)
(1.06563 1.60848 0.859204)
(1.01511 1.61453 0.87473)
(1.05916 1.628 0.823406)
(1.09341 1.63358 0.762458)
(1.50712 1.47243 0.814529)
(1.48312 1.4551 0.762757)
(1.50611 1.4142 0.784512)
(1.49487 1.35131 0.783239)
(1.52613 1.3789 0.822754)
(1.52286 1.47523 0.872597)
(1.5406 1.44754 0.882702)
(1.49892 1.50699 0.858452)
(1.54709 1.41063 0.869604)
(0.959003 1.54632 0.718203)
(0.948641 1.4822 0.686571)
(0.9347 1.51543 0.710267)
(0.985614 1.54994 0.714992)
(1.02978 1.33795 0.591941)
(1.02727 1.41378 0.624408)
(0.99021 1.47982 0.682923)
(1.09064 1.24454 0.594227)
(1.04963 1.29075 0.58367)
(1.07208 1.34399 0.606594)
(1.16025 1.15726 0.688584)
(1.12101 1.20659 0.620362)
(1.12689 1.24247 0.63094)
(1.18986 1.16043 0.690606)
(1.23543 1.39956 0.686514)
(1.21992 1.43259 0.676871)
(1.18444 1.37469 0.654875)
(1.14556 1.3544 0.630957)
(1.17384 1.31804 0.654463)
(1.11914 1.29071 0.620686)
(1.12005 1.35969 0.619753)
(1.12829 1.41526 0.625712)
(1.11817 1.51563 0.665798)
(1.13048 1.47525 0.648543)
(1.18984 1.46933 0.663566)
(1.24154 1.47299 0.688385)
(1.04996 1.48017 0.663112)
(1.0771 1.59844 0.715773)
(1.07962 1.5448 0.677846)
(1.01931 1.54609 0.701626)
(1.18845 1.25004 0.662443)
(1.20983 1.27648 0.658412)
(1.24363 1.25127 0.642237)
(1.23793 1.30552 0.652501)
(1.15572 1.23935 0.654113)
(1.19827 1.20497 0.671154)
(1.20935 1.18193 0.659093)
(1.2473 1.20308 0.638829)
(1.28916 1.21221 0.655373)
(1.2216 1.17796 0.644702)
(1.24729 1.36128 0.669387)
(1.27511 1.41866 0.681876)
(1.28058 1.32151 0.64943)
(1.11866 1.61032 0.837338)
(1.29415 1.48098 0.700697)
(0.989924 1.52251 0.705588)
(1.36337 1.59141 0.869663)
(1.36002 1.49583 0.716555)
(1.3198 1.4576 0.694721)
(1.33297 1.42213 0.674529)
(1.41038 1.50854 0.73884)
(1.3796 1.54878 0.743797)
(1.38869 1.58182 0.803571)
(1.38541 1.40279 0.678063)
(1.43219 1.35268 0.709356)
(1.43161 1.43122 0.711612)
(1.41793 1.29196 0.732801)
(1.45762 1.31847 0.755326)
(1.44358 1.4856 0.745315)
(1.345 1.3556 0.658285)
(1.36637 1.31118 0.674366)
(1.31655 1.33426 0.651248)
(1.38562 1.28001 0.710805)
(1.36411 1.26226 0.700444)
(1.46462 1.54303 0.851409)
(1.43375 1.56324 0.841482)
(1.40468 1.57748 0.857486)
(1.45391 1.53036 0.794163)
(1.31379 1.28075 0.652392)
(1.31599 1.22981 0.670864)
(1.33872 1.2437 0.687216)
(0.948404 1.27739 1.32642)
(0.742943 1.09485 1.25148)
(0.778909 1.19945 1.22375)
(1.01345 1.34407 1.30252)
(0.869893 1.3111 1.19639)
(0.865231 1.31798 1.34935)
(0.837188 1.23034 1.37414)
(0.798376 1.28197 1.31913)
(0.85805 1.35769 1.28105)
(0.995458 1.30156 1.23323)
(0.721996 1.02074 1.15579)
(0.918254 1.38271 1.30407)
(0.942596 1.38471 1.20355)
(0.729055 0.992216 1.15925)
(0.941828 1.35562 1.0831)
(0.942915 1.35346 1.02402)
(0.964126 1.39192 1.06125)
(0.978799 1.3952 1.11199)
(0.998002 1.40128 1.19382)
(0.940612 1.37437 1.12411)
(0.771263 1.1934 1.326)
(0.808055 1.25904 1.35228)
(0.774892 1.22057 1.29929)
(0.768085 1.18619 1.24835)
(0.802277 1.27214 1.27962)
(0.747336 1.07932 1.2074)
(0.738258 1.02501 1.19531)
(0.74042 1.00313 1.19363)
(0.724056 1.00755 1.15572)
(0.810798 1.18221 1.36541)
(0.752975 1.1142 1.30444)
(0.751611 1.00549 1.24009)
(0.758873 0.976589 1.19226)
(0.836136 1.317 1.26539)
(0.873532 1.34424 1.23364)
(0.821687 1.26719 1.21861)
(0.823002 1.22819 1.20485)
(0.773058 1.14861 1.20965)
(0.906425 1.37457 1.25672)
(0.906321 1.35892 1.18507)
(0.899417 1.30413 1.1621)
(0.918416 1.3431 1.14825)
(0.900997 1.31458 1.06812)
(0.953557 1.26076 1.29101)
(0.986426 1.2564 1.24374)
(0.970893 1.29535 1.28195)
(1.03677 1.26439 1.18972)
(1.00163 1.33141 1.26604)
(0.978322 1.31243 1.3102)
(1.019 1.33032 1.20307)
(1.02857 1.35777 1.24175)
(0.864605 1.27569 1.36173)
(0.822234 1.30738 1.33871)
(0.830967 1.32715 1.30118)
(0.843516 1.34698 1.30939)
(0.753683 1.01145 1.15158)
(0.74901 1.0275 1.15654)
(0.758686 1.00064 1.15453)
(0.748837 1.0644 1.19141)
(0.920608 1.23913 1.34679)
(0.902292 1.25332 1.3607)
(0.931048 1.29446 1.34384)
(0.879956 1.21545 1.37722)
(0.950288 1.32688 1.33498)
(1.04968 1.38406 1.28516)
(1.00487 1.41158 1.26284)
(1.01958 1.40652 1.2869)
(0.976403 1.36265 1.31705)
(0.947014 1.39238 1.26745)
(0.781517 0.990727 1.17128)
(0.884598 1.37665 1.29117)
(0.884628 1.34853 1.32925)
(1.13618 1.43932 1.13415)
(1.23711 1.35295 1.03576)
(1.25454 1.37286 1.01902)
(1.23882 1.40194 1.06171)
(1.27725 1.39306 1.15335)
(1.17407 1.38145 1.19553)
(1.30507 1.39177 1.09751)
(1.27928 1.42536 1.05468)
(1.13119 1.38234 1.24113)
(1.32264 1.30774 1.03473)
(1.24465 1.4391 1.15499)
(1.1809 1.42107 1.18227)
(1.19873 1.45176 1.06556)
(1.10762 1.4543 1.04021)
(1.08504 1.34914 1.19653)
(1.27563 1.39605 1.029)
(1.28306 1.38402 1.04667)
(1.29364 1.41797 1.08378)
(1.26134 1.44721 1.11152)
(1.28755 1.42892 1.12783)
(1.25772 1.38467 1.04316)
(1.21351 1.37793 1.04528)
(1.28284 1.39052 1.07561)
(1.2422 1.36638 1.02687)
(1.2817 1.39987 1.10926)
(1.29654 1.39841 1.12178)
(1.27475 1.41944 1.14839)
(1.06242 1.44436 1.04975)
(1.06067 1.46212 1.01074)
(1.10032 1.43059 1.14585)
(1.08367 1.42994 1.07991)
(1.11855 1.44058 1.06985)
(1.22857 1.32344 1.05802)
(1.28057 1.29979 1.04734)
(1.26435 1.32637 1.03113)
(1.33442 1.29543 1.04881)
(1.36254 1.30083 1.02322)
(1.12677 1.34547 1.17842)
(1.1513 1.3672 1.15512)
(1.17808 1.37634 1.10716)
(1.19931 1.35338 1.08473)
(1.23666 1.41562 1.10919)
(1.11558 1.32187 1.17206)
(1.08321 1.30758 1.16435)
(1.11144 1.35774 1.21575)
(1.1127 1.40915 1.24141)
(1.08291 1.38364 1.21971)
(1.09696 1.36723 1.22768)
(1.06872 1.36185 1.17808)
(1.16797 1.40848 1.20621)
(1.1285 1.42785 1.22089)
(1.15149 1.37008 1.2277)
(1.21334 1.39078 1.19529)
(1.23907 1.41134 1.16733)
(1.24533 1.39072 1.16308)
(1.13637 1.46242 1.01465)
(1.11929 1.43433 1.1916)
(1.15681 1.43526 1.15107)
(1.16524 1.44607 1.08884)
(1.1536 1.44964 1.04839)
(1.21472 1.45108 1.11125)
(1.19002 1.44218 1.13628)
(1.22259 1.4299 1.15755)
(1.31965 1.31071 1.01634)
(1.25528 1.34334 1.01826)
(1.25405 1.34822 1.00792)
(1.1811 1.45409 1.02243)
(1.23164 1.44675 1.02362)
(1.26751 1.4074 1.01081)
(1.26121 1.43152 1.01844)
(1.24403 1.44591 1.06491)
(1.25156 1.38433 1.00612)
(1.15015 1.39847 0.782593)
(1.23094 1.33652 0.957067)
(1.21703 1.44137 0.926303)
(1.13866 1.38009 0.824293)
(1.24421 1.41087 0.884874)
(1.25818 1.37094 0.948994)
(1.16668 1.43862 0.777631)
(1.24238 1.38827 0.906585)
(1.14587 1.4605 0.800887)
(1.1721 1.37267 0.927517)
(1.28561 1.32994 0.974204)
(1.08544 1.34015 0.781717)
(1.27814 1.403 0.96894)
(1.12367 1.46371 0.93675)
(1.08658 1.43048 0.867937)
(1.1151 1.45877 0.775187)
(1.06818 1.46093 0.964634)
(1.06645 1.44138 0.929922)
(1.12292 1.44998 0.88637)
(1.16596 1.44917 0.795699)
(1.12713 1.47418 0.749258)
(1.13988 1.45644 0.738601)
(1.09872 1.38667 0.753329)
(1.1085 1.37061 0.765972)
(1.06911 1.36206 0.79247)
(1.10675 1.3472 0.78483)
(1.14543 1.38826 0.800305)
(1.25124 1.39582 0.899633)
(1.20195 1.4025 0.85366)
(1.2013 1.41539 0.863737)
(1.19749 1.39876 0.877643)
(1.13809 1.41864 0.749555)
(1.16085 1.41886 0.788768)
(1.19697 1.42312 0.853227)
(1.14632 1.46705 0.96378)
(1.19519 1.43277 0.852654)
(1.17775 1.44386 0.884536)
(1.23504 1.42699 0.907018)
(1.15897 1.45454 0.931069)
(1.07883 1.31274 0.804328)
(1.10714 1.31187 0.826554)
(1.11994 1.32258 0.837125)
(1.19582 1.38515 0.950267)
(1.20056 1.39468 0.929962)
(1.24537 1.38489 0.93704)
(1.16866 1.39012 0.898704)
(1.26828 1.38757 0.924837)
(1.18534 1.35717 0.94176)
(1.20038 1.37412 0.962402)
(1.23129 1.3073 0.931822)
(1.19347 1.33667 0.910384)
(1.1607 1.34873 0.884897)
(1.13823 1.34016 0.856629)
(1.23045 1.37619 0.970849)
(1.24774 1.34088 0.969971)
(1.30531 1.30387 0.960942)
(1.28211 1.29493 0.947222)
(1.19615 1.45548 0.969376)
(1.27594 1.39566 0.983026)
(1.25898 1.42842 0.977236)
(1.24519 1.43103 0.954555)
(1.21855 1.44616 0.962972)
(1.30389 1.32004 0.983438)
(1.26011 1.36266 0.987178)
(1.26062 1.37343 0.97828)
(1.2695 1.38742 0.959174)
(1.34181 1.30183 0.9761)
(1.26298 1.40773 0.941444)
(0.876607 1.28907 0.808534)
(0.649061 1.14285 0.907235)
(0.877131 1.33008 0.637765)
(0.6947 1.10978 0.835961)
(0.889949 1.25496 0.641096)
(0.934467 1.35109 0.841716)