/*--------------------------------*- C++ -*----------------------------------*\
| =========                 |                                                 |
| \\      /  F ield         | OpenFOAM: The Open Source CFD Toolbox           |
|  \\    /   O peration     | Version:  v1806                                 |
|   \\  /    A nd           | Web:      www.OpenFOAM.com                      |
|    \\/     M anipulation  |                                                 |
\*---------------------------------------------------------------------------*/
FoamFile
{
    version     2.0;
    format      ascii;
    class       volScalarField;
    location    "0.1185";
    object      p;
}
// * * * * * * * * * * * * * * * * * * * * * * * * * * * * * * * * * * * * * //

dimensions      [0 2 -2 0 0 0 0];


internalField   nonuniform List<scalar> 
64000
(
1.22041e-05
-0.112605
-0.247241
-0.310034
-0.31864
-0.301156
-0.270356
-0.234708
-0.19206
-0.172934
-0.141156
-0.164986
-0.143674
-0.246004
-0.308074
-0.473585
-0.575215
-0.881947
-1.01539
-1.52675
-1.66481
-2.47825
-2.6433
-3.03163
-3.22703
-3.52494
-3.72609
-3.97398
-4.2023
-4.34434
-4.68869
-5.05955
-5.39711
-5.73695
-6.04562
-6.28719
-6.47636
-6.6265
-6.73319
-6.77883
-0.146427
-0.249615
-0.311606
-0.336482
-0.325759
-0.299319
-0.261136
-0.217487
-0.169172
-0.131042
-0.0966982
-0.0995342
-0.0884756
-0.147411
-0.196822
-0.343669
-0.449203
-0.766035
-0.888503
-1.34113
-1.5578
-2.33299
-2.58377
-2.9389
-3.13115
-3.43201
-3.65113
-3.93923
-4.17285
-4.46117
-4.60876
-5.00467
-5.34086
-5.6645
-5.98142
-6.22205
-6.42834
-6.5874
-6.71274
-6.7652
-0.304188
-0.343546
-0.358244
-0.357239
-0.334597
-0.291647
-0.246371
-0.196326
-0.130078
-0.0780314
-0.0191497
-0.019317
-0.0108152
-0.0888908
-0.166897
-0.324083
-0.425349
-0.714758
-0.856918
-1.36065
-1.64183
-2.48136
-2.81398
-3.21178
-3.43782
-3.76519
-4.00075
-4.29969
-4.52433
-4.77963
-4.98483
-5.2665
-5.39234
-5.74787
-6.03001
-6.24493
-6.41921
-6.57354
-6.69346
-6.76251
-0.440576
-0.436313
-0.425242
-0.385364
-0.33893
-0.277559
-0.209212
-0.134744
-0.0689391
0.0024124
0.0392699
0.0383181
0.0312127
-0.0261385
-0.0878577
-0.243602
-0.386236
-0.699935
-0.903243
-1.4346
-1.74283
-2.62998
-3.02365
-3.43997
-3.68941
-4.01294
-4.24336
-4.5189
-4.72146
-4.94022
-5.12772
-5.32517
-5.52118
-5.75117
-6.05482
-6.30338
-6.42692
-6.57959
-6.68015
-6.7487
-0.520573
-0.505799
-0.475171
-0.421153
-0.358951
-0.280825
-0.195704
-0.128307
-0.0372597
0.0297701
0.077034
0.077496
0.0749875
0.00498021
-0.0788969
-0.259077
-0.419087
-0.759909
-0.973192
-1.53839
-1.86863
-2.77866
-3.17514
-3.60537
-3.85799
-4.17036
-4.38777
-4.64195
-4.8319
-5.03126
-5.18971
-5.38769
-5.542
-5.73806
-6.14759
-6.34606
-6.47598
-6.58945
-6.66512
-6.73577
-0.620212
-0.592521
-0.536948
-0.478228
-0.391369
-0.301338
-0.209996
-0.120956
-0.0505747
0.0249576
0.0803968
0.125462
0.123749
0.0604711
-0.0201454
-0.199673
-0.367138
-0.692266
-0.995158
-1.51151
-1.88638
-2.77807
-3.17983
-3.56276
-3.82217
-4.12671
-4.3466
-4.60287
-4.79034
-5.01199
-5.17029
-5.35542
-5.53708
-5.73384
-6.25815
-6.36955
-6.46242
-6.56309
-6.64496
-6.68637
-0.657547
-0.645881
-0.586716
-0.552142
-0.469172
-0.361507
-0.29855
-0.230067
-0.123032
0.00506432
0.107202
0.165854
0.197405
0.155355
0.0823367
-0.0797495
-0.250285
-0.626317
-0.863763
-1.41255
-1.75823
-2.61548
-3.00669
-3.37052
-3.64299
-3.95796
-4.20228
-4.48794
-4.71264
-4.94472
-5.12852
-5.30028
-5.47531
-5.64878
-6.1474
-6.32575
-6.38558
-6.4925
-6.56518
-6.62326
-0.728226
-0.711288
-0.649351
-0.618974
-0.511831
-0.467027
-0.357919
-0.28224
-0.140646
0.00449326
0.127195
0.245481
0.32122
0.338614
0.31475
0.196755
0.040904
-0.252144
-0.565076
-0.978612
-1.42678
-2.1124
-2.65314
-3.02477
-3.35494
-3.69117
-3.98666
-4.30742
-4.57826
-4.85467
-5.05797
-5.24192
-5.4257
-5.58761
-6.00806
-6.2823
-6.33004
-6.40967
-6.49576
-6.55078
-0.794476
-0.757112
-0.718022
-0.689159
-0.613966
-0.609703
-0.438996
-0.312905
-0.221937
0.00686449
0.188441
0.370763
0.517079
0.605323
0.66694
0.628645
0.540779
0.322499
-0.00302993
-0.37868
-0.930066
-1.40534
-2.1732
-2.59415
-2.98159
-3.34601
-3.68821
-4.05299
-4.38692
-4.70094
-4.94381
-5.15221
-5.33043
-5.48612
-5.76085
-6.19484
-6.20806
-6.29107
-6.37207
-6.43299
-0.88854
-0.820693
-0.805575
-0.777465
-0.758433
-0.729106
-0.549577
-0.326841
-0.132143
0.122326
0.205634
0.560294
0.7666
0.959749
1.10174
1.16279
1.14841
1.03428
0.760877
0.482674
-0.105726
-0.526615
-1.64077
-2.08717
-2.54969
-2.94324
-3.33528
-3.76299
-4.14926
-4.51602
-4.82768
-5.04864
-5.24766
-5.42266
-5.65351
-6.04757
-6.1489
-6.18043
-6.25134
-6.3159
-0.969044
-0.902774
-0.896634
-0.895821
-0.898832
-0.825891
-0.633787
-0.371284
-0.101976
0.212367
0.513675
0.821021
1.00586
1.34783
1.57385
1.70605
1.74906
1.67889
1.42431
1.1971
0.57716
0.194527
-1.06157
-1.51982
-2.02956
-2.44513
-2.89304
-3.37481
-3.84444
-4.2528
-4.59863
-4.88724
-5.06251
-5.21199
-5.38478
-5.78882
-5.93236
-5.98727
-6.06522
-6.13524
-1.05642
-0.990494
-0.998757
-1.03346
-1.01337
-0.893766
-0.696576
-0.371942
-0.034024
0.352379
0.712409
1.15078
1.51076
1.73663
2.09336
2.3006
2.38914
2.36207
2.11486
1.92381
1.24267
0.842292
-0.391601
-0.862616
-1.40979
-1.85142
-2.37877
-2.93083
-3.45193
-3.95194
-4.39472
-4.78293
-5.08849
-5.2426
-5.42092
-5.52102
-5.79513
-5.81017
-5.83915
-5.93097
-1.15419
-1.08997
-1.12837
-1.15694
-1.12264
-0.974387
-0.685442
-0.346744
0.0637934
0.526643
0.999055
1.50519
1.93524
2.37613
2.62577
2.94806
3.10245
3.10124
2.87917
2.67632
1.99675
1.50985
0.417215
-0.0949757
-0.681902
-1.15862
-1.72407
-2.35717
-2.98706
-3.54435
-4.15594
-4.44971
-4.644
-4.87012
-5.03248
-5.41238
-5.44739
-5.57255
-5.61295
-5.69716
-1.231
-1.18668
-1.21308
-1.22552
-1.17838
-1.03135
-0.675406
-0.252999
0.213612
0.736404
1.28689
1.8977
2.44534
2.94946
3.40378
3.60552
3.89201
3.92698
3.7279
3.5104
2.83731
2.27647
1.38357
0.838204
0.214626
-0.338755
-1.04751
-1.74982
-2.44971
-3.29555
-3.63817
-4.0287
-4.3559
-4.59811
-4.80249
-4.96679
-5.35836
-5.18169
-5.21926
-5.32417
-1.34203
-1.29992
-1.31976
-1.30089
-1.22232
-1.04996
-0.656488
-0.193994
0.337569
0.982259
1.63874
2.33055
2.96018
3.60771
4.12514
4.50213
4.74449
4.83843
4.68687
4.45983
3.81042
3.27239
2.54997
1.96189
1.26438
0.574903
-0.183869
-1.16061
-2.03447
-2.48524
-3.05729
-3.54991
-3.9388
-4.23666
-4.46229
-4.65872
-4.82198
-5.14779
-5.02248
-5.11759
-1.42268
-1.36978
-1.36546
-1.32525
-1.21965
-1.02761
-0.626947
-0.112478
0.51026
1.23632
2.00016
2.81873
3.58908
4.29957
4.94823
5.47348
5.78073
5.87587
5.80519
5.50141
5.05114
4.58515
3.95883
3.24015
2.46009
1.4936
0.437016
-0.255843
-0.927655
-1.70112
-2.39109
-2.98994
-3.4779
-3.84073
-4.08259
-4.25926
-4.34907
-4.47712
-4.48233
-4.51297
-1.44762
-1.41512
-1.39858
-1.33113
-1.20795
-0.990295
-0.563514
-0.00374873
0.686954
1.51254
2.41644
3.37154
4.29536
5.13976
5.87423
6.46011
6.86483
7.0276
7.05987
6.9423
6.64427
6.25599
5.54824
4.73374
3.67523
2.70072
1.89328
1.07914
0.144058
-0.743839
-1.57313
-2.30036
-2.89615
-3.34006
-3.65878
-3.85335
-3.97031
-4.03087
-4.25383
-4.12656
-1.46259
-1.39557
-1.34755
-1.24554
-1.11292
-0.891252
-0.475672
0.123363
0.921396
1.87898
2.94215
4.01852
5.0627
5.99956
6.84862
7.53818
8.19073
8.75759
9.0886
9.11282
8.68695
8.17218
7.34911
6.33442
5.21598
4.30964
3.46036
2.44162
1.35966
0.292793
-0.684018
-1.5209
-2.20379
-2.71122
-3.06607
-3.27216
-3.30105
-3.36013
-3.35439
-3.58624
-1.07099
-1.01018
-0.923523
-0.842446
-0.697917
-0.501725
-0.101386
0.507486
1.39445
2.58835
4.01133
5.51265
6.91867
8.11566
9.16683
9.98946
10.7549
11.2494
11.4196
11.2892
11.0489
10.4348
9.31695
8.18388
7.30638
6.30267
5.06008
3.8673
2.61931
1.42244
0.395082
-0.572188
-1.39157
-2.00527
-2.45919
-2.85541
-2.93214
-2.82567
-2.79705
-2.85816
-0.798611
-0.625171
-0.487053
-0.321388
-0.126768
0.14843
0.403968
0.922606
1.88847
3.23041
4.81481
6.49198
8.07776
9.43529
10.71
11.7742
12.6148
13.1647
13.5784
13.5381
13.0368
12.3144
11.3372
10.2218
9.25148
8.37885
7.24121
5.9794
4.57869
3.09847
1.60367
0.47126
-0.406462
-1.01832
-1.43217
-1.54087
-1.59669
-1.78208
-1.7671
-1.86627
-0.630212
-0.491449
-0.31236
-0.103036
0.117624
0.413643
0.788208
1.25652
2.25037
3.64474
5.35035
7.22149
8.96699
10.5489
12.0604
13.4343
14.5167
15.1993
15.5353
15.4731
15.1108
14.3056
13.2126
12.1364
11.017
10.1838
9.13262
7.94509
6.44187
4.75993
3.16517
1.86621
0.774618
0.00730219
-0.541154
-0.796304
-0.849557
-0.810604
-0.849752
-0.771928
-0.605668
-0.469454
-0.273857
-0.0322246
0.234124
0.557805
0.977665
1.47727
2.48196
3.95708
5.82651
7.85701
9.74026
11.5405
13.2967
14.8252
16.0208
16.7728
17.1113
17.1391
16.837
16.1165
15.0679
13.7653
12.4772
11.331
10.2966
9.25661
8.01457
6.53195
5.14892
3.98493
2.9065
1.95568
1.07988
0.565662
0.253285
0.0530391
-0.102417
-0.201057
-0.553307
-0.405534
-0.218963
0.0324976
0.330636
0.66301
1.0917
1.61983
2.61892
4.1638
6.14397
8.22544
10.2095
12.1657
13.9862
15.583
16.9054
17.8309
18.32
18.3848
18.2022
17.6113
16.5709
15.2233
13.6943
12.262
11.1372
10.0506
8.84003
7.51897
6.07204
4.93127
3.96565
3.29978
2.88008
2.69361
2.52259
2.40536
2.3143
2.25677
-0.464222
-0.298366
-0.117806
0.147564
0.441237
0.819169
1.24882
1.80441
2.78006
4.30331
6.24929
8.3108
10.3348
12.3277
14.2248
15.9346
17.3589
18.455
19.0963
19.2312
19.1739
18.7406
17.7206
16.2855
14.7024
13.1901
11.7352
10.7531
9.56606
8.38236
7.08595
5.91911
4.87337
4.16569
3.63244
3.34545
3.1249
3.01963
2.89382
2.64084
-0.412098
-0.298365
-0.0913593
0.163129
0.445949
0.835665
1.24193
1.79781
2.68436
4.11665
6.01028
8.0339
10.0617
12.06
13.9899
15.7389
17.2201
18.3957
19.2126
19.4847
19.6019
19.3177
18.4129
17.0175
15.5687
14.0398
12.4323
11.1254
10.0728
8.94651
7.71168
6.60375
5.54429
4.81547
4.2426
3.93224
3.67822
3.59609
3.57788
3.35811
-0.296465
-0.222722
-0.0259977
0.224645
0.477427
0.862523
1.24086
1.70678
2.56287
3.91198
5.57121
7.42783
9.36997
11.3595
13.3018
15.0617
16.5965
17.8035
18.8101
19.212
19.5049
19.4233
18.6508
17.4662
16.1076
14.6373
13.0393
11.4541
10.3454
9.33556
8.19853
7.2543
6.30744
5.63643
5.02609
4.66455
4.31942
4.16312
3.96702
3.66225
-0.287546
-0.205705
-0.0431113
0.215019
0.426179
0.760041
1.12121
1.59307
2.3673
3.54339
5.00191
6.64202
8.36875
10.2754
12.1336
13.8942
15.4598
16.8546
17.9912
18.3024
18.613
18.7715
18.4332
17.4598
16.2848
14.9592
13.4742
11.8857
10.4021
9.56971
8.53053
7.62041
6.60562
5.96086
5.38428
5.08702
4.78104
4.65041
4.54454
4.43601
-0.220205
-0.13023
-0.0233816
0.241309
0.395311
0.669043
0.913404
1.44197
2.09362
3.09634
4.32449
5.7353
7.25626
8.87791
10.6189
12.2792
13.7807
15.1538
16.0868
16.404
17.4825
17.7323
17.9414
17.1351
16.1374
14.9504
13.5843
12.028
10.3387
9.56851
8.15973
7.02826
5.97047
5.36359
4.7553
4.44047
4.10363
4.01778
3.92965
3.89472
-0.229552
-0.166988
-0.0372141
0.141119
0.295133
0.462329
0.676041
1.12889
1.69911
2.53283
3.54214
4.7154
5.99478
7.35023
8.88402
10.3634
11.6816
12.8366
13.7282
14.7012
16.3156
16.6051
17.2191
16.7203
15.9014
14.8532
13.6559
12.2113
10.7702
9.81127
8.53159
7.60233
6.72819
6.19685
5.57538
5.24522
4.78759
4.6421
4.43324
4.38915
-0.167134
-0.138812
0.0101068
0.124798
0.240945
0.34247
0.533468
0.861243
1.37266
2.03487
2.83419
3.78676
4.84037
6.00954
7.21609
8.48174
9.60474
10.8115
12.1855
13.2802
15.0257
15.4612
16.2181
15.972
15.3898
14.5965
13.6365
12.3529
11.1541
9.94472
8.89566
8.14429
7.3263
6.83763
6.22919
5.93633
5.46892
5.41577
5.25396
5.35642
-0.222917
-0.187253
-0.115765
0.02597
0.0672238
0.0848851
0.272636
0.529521
0.946371
1.50601
2.13121
2.91067
3.76862
4.74066
5.67453
6.9327
8.0716
9.45176
10.9065
12.0874
13.5162
14.1426
15.1751
14.9662
14.6544
14.1454
13.3835
12.3906
10.8966
10.1546
9.0998
8.50816
7.72448
7.3765
6.72731
6.56459
6.11998
6.1954
6.09069
6.26432
-0.160553
-0.137679
-0.13528
0.0656176
0.0550064
0.0877444
0.149196
0.33868
0.664273
1.11596
1.64122
2.2534
2.97554
3.79049
4.65046
5.82405
7.09412
8.4458
9.94922
10.964
12.1673
12.8797
14.0946
13.9569
13.9595
13.5593
13.2114
11.8108
11.0166
10.0078
9.29209
8.86849
8.04249
7.75654
7.21506
7.13763
6.69046
6.94603
6.8826
7.26968
-0.268396
-0.263275
-0.221813
-0.144654
-0.114698
-0.0945735
-0.0597512
0.0822373
0.357402
0.730716
1.14616
1.72086
2.33649
3.10192
3.93223
4.79143
6.21666
7.61066
8.8233
9.62325
10.845
11.7048
12.9209
12.9107
13.1728
12.8378
12.8603
11.3732
10.8108
9.95126
9.25995
8.95069
8.25825
8.02034
7.43583
7.60808
7.14347
7.56758
7.59247
8.25774
-0.179407
-0.160439
-0.154514
-0.100151
-0.0284844
-0.0295809
-0.0480354
0.0602191
0.229017
0.559154
0.928616
1.40051
1.9604
2.57952
3.28689
4.23216
5.48362
6.56279
7.69324
8.51409
9.68718
10.5937
11.8568
11.9959
12.408
12.1421
12.5745
11.0924
10.4041
10.0262
9.29956
8.99539
8.37501
8.35567
7.70788
7.99437
7.57569
8.29828
8.28985
9.40988
-0.331444
-0.349184
-0.310318
-0.296845
-0.225758
-0.144741
-0.179116
-0.0836728
0.0542402
0.325949
0.602868
0.953485
1.42016
2.17108
2.96676
3.84598
4.73217
5.77536
6.75391
7.55751
8.61802
9.47475
10.9305
11.1634
11.6832
11.496
12.2207
10.8633
9.99044
9.75202
9.16949
8.98634
8.30918
8.45486
7.7931
8.18294
7.65887
8.74876
8.7499
10.4905
-0.258999
-0.201435
-0.209909
-0.142213
-0.119906
0.015562
-0.0614689
0.0828735
0.0901319
0.25052
0.515221
0.987752
1.45508
1.98716
2.66502
3.42043
4.20094
5.14392
6.01676
6.81439
7.75833
8.44761
10.1302
10.5222
11
11.3858
11.807
10.6593
9.68838
9.41859
8.84294
9.03458
8.2619
8.5584
7.96419
8.52973
7.89653
9.45814
9.30156
12.1835
-0.35676
-0.445471
-0.402009
-0.401101
-0.286281
-0.194955
-0.0982389
-0.00162162
0.0819909
0.321957
0.47029
0.756405
1.10751
1.60737
2.22906
2.95465
3.67715
4.52238
5.40677
6.22178
7.12541
7.72975
8.96686
9.89994
10.5975
11.1784
11.4464
10.4568
9.47564
9.17875
8.57501
8.70417
8.10338
8.55441
7.86692
8.67751
7.85404
9.68014
9.82164
13.9961
-0.880186
-0.388131
-0.433384
-0.125022
-0.137289
0.120279
0.0608811
0.29159
0.230926
0.423225
0.545167
0.815707
1.10785
1.53224
2.00568
2.63289
3.29647
4.15349
5.07762
6.01051
6.87715
7.41783
8.3992
9.49691
10.2828
11.0321
11.0945
10.2656
9.29636
8.94851
8.37869
8.5491
8.00587
8.65906
7.99673
9.26553
8.54778
11.2072
11.2091
18.7054
-0.723121
-0.965065
-0.748788
-0.684283
-0.21707
-0.113646
0.0613539
0.226002
0.346795
0.48972
0.562898
0.777865
1.04372
1.44825
1.87358
2.41006
3.02719
3.78323
4.86876
5.85142
6.70858
7.20437
8.00628
9.22189
10.0755
10.9599
10.9353
10.1972
9.20296
8.84882
8.27503
8.42233
7.80748
8.525
7.85277
9.24267
8.46791
12.0445
13.4851
23.4811
-3.34057
-0.525821
-0.817217
-0.301656
-0.137126
0.157152
0.175647
0.377372
0.401834
0.54182
0.642266
0.83175
1.07291
1.44776
1.83113
2.34801
2.91348
3.80085
4.80385
5.87761
6.79813
7.33832
8.11543
9.33557
10.0943
10.9103
10.6757
9.96777
8.96519
8.60192
8.10614
8.44328
7.94438
8.71094
8.22874
10.1045
10.2841
16.1691
21.205
36.4202
-0.131258
-0.251148
-0.311996
-0.343974
-0.339393
-0.323933
-0.287906
-0.256439
-0.205347
-0.19094
-0.140945
-0.177082
-0.183361
-0.270554
-0.328105
-0.507668
-0.594148
-0.917638
-1.06153
-1.56232
-1.77307
-2.532
-2.794
-3.1582
-3.35535
-3.65077
-3.85011
-4.12652
-4.34777
-4.62867
-4.76098
-5.15471
-5.49537
-5.80709
-6.10613
-6.3357
-6.56014
-6.72016
-6.8021
-6.84152
-0.276138
-0.3285
-0.35867
-0.368515
-0.348814
-0.31969
-0.273453
-0.233111
-0.16711
-0.13757
-0.0852282
-0.113972
-0.0932322
-0.153419
-0.207347
-0.369043
-0.470367
-0.778333
-0.91126
-1.42175
-1.7454
-2.45442
-2.77522
-3.13143
-3.33463
-3.64474
-3.85769
-4.14492
-4.38303
-4.65715
-4.89958
-5.16598
-5.46654
-5.74838
-6.05844
-6.28912
-6.49732
-6.64896
-6.76384
-6.82712
-0.37633
-0.395708
-0.39454
-0.384464
-0.351072
-0.31207
-0.252495
-0.200663
-0.150859
-0.0926252
-0.0341638
-0.0345854
-0.0262337
-0.091177
-0.163098
-0.338555
-0.443523
-0.744258
-0.912323
-1.4775
-1.87374
-2.64481
-3.06039
-3.46157
-3.68262
-4.00716
-4.2331
-4.51696
-4.73814
-4.97335
-5.16286
-5.38061
-5.60712
-5.86085
-6.11663
-6.31628
-6.49324
-6.63375
-6.74723
-6.80238
-0.476939
-0.474754
-0.454974
-0.417507
-0.362946
-0.297787
-0.248774
-0.163076
-0.0826634
-0.0138568
0.0369006
0.0468235
0.0351102
-0.0404381
-0.109035
-0.277767
-0.417036
-0.749314
-0.970102
-1.56217
-2.03855
-2.85115
-3.3112
-3.71322
-3.94285
-4.25386
-4.4721
-4.73176
-4.91998
-5.11728
-5.28019
-5.4433
-5.61181
-5.82289
-6.141
-6.37309
-6.56565
-6.64065
-6.74098
-6.79436
-0.552911
-0.545301
-0.500546
-0.450678
-0.385732
-0.301982
-0.23399
-0.148224
-0.0576135
0.0139439
0.0706563
0.0706333
0.0605604
-0.00778268
-0.0983053
-0.281292
-0.450133
-0.805621
-1.06399
-1.61697
-2.1149
-2.93592
-3.40737
-3.7916
-4.0143
-4.29512
-4.54358
-4.82752
-4.99922
-5.1768
-5.31063
-5.46925
-5.62595
-5.83647
-6.22379
-6.4136
-6.55919
-6.65581
-6.73319
-6.77756
-0.644646
-0.605497
-0.572538
-0.503616
-0.39036
-0.339381
-0.247596
-0.157199
-0.0654025
0.0116581
0.0754402
0.115453
0.112732
0.0451954
-0.0438162
-0.217466
-0.389157
-0.748874
-1.03217
-1.57544
-2.11009
-2.89676
-3.36588
-3.73841
-3.97937
-4.25904
-4.47688
-4.70789
-4.89123
-5.10407
-5.25668
-5.46498
-5.5884
-5.83624
-6.29961
-6.44583
-6.55342
-6.63797
-6.70605
-6.7508
-0.684948
-0.66488
-0.624961
-0.573477
-0.45179
-0.407457
-0.341861
-0.253679
-0.136812
-0.00872909
0.0985559
0.155477
0.186117
0.154411
0.110121
-0.0590615
-0.262826
-0.632848
-0.919986
-1.43179
-1.92849
-2.68928
-3.13341
-3.50797
-3.7611
-4.07049
-4.31787
-4.59213
-4.78735
-5.00396
-5.16939
-5.33035
-5.50136
-5.71889
-6.23662
-6.40521
-6.4828
-6.57184
-6.63722
-6.68485
-0.75956
-0.734389
-0.694751
-0.656704
-0.526015
-0.528025
-0.428684
-0.303243
-0.163617
-0.0189779
0.118244
0.23551
0.316515
0.34062
0.334274
0.207671
0.0477917
-0.256491
-0.554638
-0.988626
-1.50486
-2.19817
-2.72181
-3.14012
-3.46292
-3.81029
-4.12383
-4.40809
-4.66269
-4.89061
-5.09971
-5.27151
-5.42285
-5.63289
-6.0838
-6.37489
-6.43697
-6.51516
-6.57575
-6.62423
-0.836505
-0.809609
-0.777935
-0.74583
-0.631293
-0.680337
-0.511225
-0.384555
-0.214718
-0.020526
0.184102
0.36644
0.523182
0.623114
0.694446
0.656574
0.566447
0.337869
0.0202078
-0.383502
-0.915231
-1.51622
-2.19471
-2.69553
-3.09149
-3.48045
-3.82904
-4.16138
-4.46218
-4.74097
-4.98176
-5.27702
-5.43668
-5.58657
-5.82385
-6.25055
-6.31904
-6.38875
-6.45822
-6.50629
-0.957502
-0.906492
-0.902185
-0.838562
-0.776632
-0.834482
-0.627378
-0.415631
-0.196735
0.0500958
0.300336
0.554293
0.789482
0.989504
1.14239
1.20474
1.19348
1.06106
0.805523
0.466305
-0.0922937
-0.67336
-1.63303
-2.19332
-2.67199
-3.10887
-3.49251
-3.86628
-4.24386
-4.68555
-4.97802
-5.17283
-5.39038
-5.54367
-5.83037
-6.13349
-6.25539
-6.30296
-6.34541
-6.39722
-1.04181
-1.00205
-0.992702
-0.967148
-0.952944
-0.904175
-0.719353
-0.467166
-0.22158
0.0866121
0.494303
0.827033
1.12402
1.40664
1.64938
1.77372
1.81997
1.73134
1.49939
1.21568
0.651878
0.0744022
-1.03888
-1.62085
-2.16631
-2.61686
-3.0532
-3.51832
-4.08557
-4.44399
-4.7988
-5.00737
-5.23016
-5.39775
-5.54137
-5.9519
-6.02784
-6.11196
-6.16906
-6.22
-1.14468
-1.10866
-1.11892
-1.14219
-1.08427
-0.926469
-0.810505
-0.476991
-0.117335
0.278088
0.566563
1.14044
1.54137
1.88395
2.20004
2.39675
2.47593
2.41932
2.19092
1.91583
1.32772
0.743528
-0.380123
-0.979889
-1.56619
-2.02904
-2.55596
-3.22223
-3.72509
-4.24035
-4.77015
-5.06611
-5.15535
-5.27164
-5.53464
-5.85117
-5.9452
-5.90807
-5.94408
-6.00886
-1.26694
-1.23524
-1.28347
-1.3104
-1.23659
-1.04252
-0.750223
-0.465159
-0.0639451
0.45123
0.915549
1.4818
1.80931
2.44593
2.81779
3.07546
3.20408
3.16341
2.94639
2.6597
2.06009
1.45432
0.425663
-0.215276
-0.847753
-1.35636
-1.91238
-2.7343
-3.35638
-4.00926
-4.22348
-4.52231
-4.75468
-4.87491
-5.05203
-5.34033
-5.76111
-5.7199
-5.7442
-5.79552
-1.37718
-1.36326
-1.41489
-1.42919
-1.34386
-1.12121
-0.7624
-0.317728
0.170349
0.65213
1.13477
1.86073
2.38955
2.84815
3.51944
3.82887
4.00691
3.98938
3.77889
3.47523
2.87896
2.27044
1.39576
0.734266
0.0368116
-0.553918
-1.63659
-2.19867
-2.95495
-3.32067
-3.77247
-4.19823
-4.49447
-4.71261
-4.82264
-5.00474
-5.25353
-5.33463
-5.24793
-5.39619
-1.50953
-1.48677
-1.51848
-1.50791
-1.42533
-1.23728
-0.797379
-0.313428
0.246529
0.932261
1.62494
2.3583
2.7875
3.57206
4.07221
4.66269
4.89068
4.9008
4.72378
4.40821
3.86518
3.33602
2.60981
1.90298
1.12281
0.220208
-0.651629
-1.49205
-2.09645
-2.63144
-3.24485
-3.72447
-4.10989
-4.3775
-4.5271
-4.65273
-4.89665
-5.2087
-5.24565
-5.17242
-1.59298
-1.55858
-1.56989
-1.52819
-1.42071
-1.17939
-0.796492
-0.249446
0.38121
1.11015
1.9495
2.83183
3.60184
4.19801
4.80099
5.60443
5.89486
5.94173
5.80705
5.51321
5.15791
4.69856
4.01341
3.2098
2.40033
1.20544
0.220292
-0.450306
-1.10048
-1.8962
-2.58845
-3.19311
-3.66577
-4.00895
-4.20595
-4.30869
-4.40128
-4.54266
-4.55128
-4.59229
-1.63222
-1.62758
-1.6219
-1.56374
-1.42165
-1.19221
-0.743165
-0.150887
0.54103
1.34861
2.32927
3.33443
4.30759
5.12663
5.86241
6.45751
7.00507
7.12551
7.14461
7.06326
6.80248
6.3567
5.63985
4.68404
3.41836
2.48107
1.76137
0.893221
-0.0553109
-0.946681
-1.79093
-2.51235
-3.09648
-3.51895
-3.79524
-3.95288
-4.05569
-4.1417
-4.3755
-4.31957
-1.64817
-1.58626
-1.54044
-1.46613
-1.25186
-0.986196
-0.607227
0.00329276
0.823932
1.81342
2.93743
4.08617
5.17438
6.16844
7.01698
7.71564
8.45357
8.9031
9.17529
9.1465
8.78969
8.24379
7.48645
6.50216
5.26096
4.2705
3.27085
2.21123
1.14456
0.0908861
-0.891249
-1.73305
-2.41231
-2.90918
-3.22208
-3.3975
-3.48992
-3.45005
-3.40787
-3.41531
-1.27397
-1.20187
-1.16171
-1.04307
-0.856102
-0.588117
-0.250792
0.363099
1.26512
2.47028
3.91257
5.39705
6.80389
8.05038
9.14097
10.0297
10.8959
11.3727
11.5338
11.3844
10.997
10.3474
9.53305
8.48653
7.35764
6.24516
5.04814
3.82501
2.55904
1.33609
0.192627
-0.792845
-1.60792
-2.19517
-2.60307
-2.83018
-2.93765
-2.8838
-2.87724
-2.87099
-0.879329
-0.803781
-0.737204
-0.581318
-0.376159
-0.161256
0.118827
0.709258
1.73906
3.12628
4.76307
6.49719
8.12889
9.55366
10.8802
12.0272
12.9262
13.5321
13.8369
13.5569
13.1935
12.4662
11.7145
10.5579
9.51396
8.4553
7.22428
5.87576
4.39345
2.91016
1.51154
0.367904
-0.535704
-1.15831
-1.54617
-1.74118
-1.87281
-1.86544
-1.955
-1.99047
-0.787586
-0.625811
-0.493035
-0.306013
-0.018578
0.180317
0.404311
1.07422
2.13752
3.58502
5.34932
7.27368
9.10853
10.7746
12.3552
13.7677
14.8661
15.5968
15.9701
15.8147
15.2131
14.5761
13.6502
12.5563
11.4609
10.4376
9.29125
7.97212
6.3728
4.73657
3.1961
1.90019
0.776157
-0.0696174
-0.650915
-0.897794
-1.01704
-0.920476
-0.926569
-0.970435
-0.785026
-0.594886
-0.404005
-0.172747
0.11708
0.399344
0.740563
1.32966
2.37872
3.90101
5.81774
7.92684
9.90967
11.7869
13.581
15.1751
16.4283
17.2502
17.7234
17.8231
17.2765
16.417
15.3592
14.3271
13.0461
11.8162
10.6265
9.40457
7.94916
6.45069
5.06738
3.92399
2.8807
1.983
1.15643
0.645503
0.342251
0.19357
0.0123705
-0.296984
-0.686291
-0.537021
-0.340123
-0.104331
0.174576
0.531043
0.918121
1.48768
2.51586
4.10608
6.14746
8.32632
10.412
12.4457
14.3679
16.0739
17.443
18.3769
18.989
19.1888
19.0361
18.2136
16.9046
15.5797
14.3284
12.8785
11.5599
10.3026
8.94304
7.52379
6.09217
4.92631
3.93029
3.21854
2.7424
2.52719
2.37703
2.30922
2.25165
2.15929
-0.580973
-0.414039
-0.211956
0.0407571
0.332558
0.782025
1.11862
1.67914
2.67311
4.2392
6.26126
8.4264
10.563
12.6734
14.6743
16.4644
17.9344
19.0273
19.7731
20.1218
20.0981
19.4901
18.2506
16.7401
15.1932
13.6988
12.333
11.041
9.71833
8.44122
7.10715
5.93275
4.89588
4.18383
3.66942
3.37712
3.17103
3.05585
3.00276
2.74812
-0.509326
-0.378139
-0.150273
0.100355
0.380174
0.766956
1.1492
1.69371
2.63757
4.12346
6.05153
8.1551
10.2857
12.4172
14.4496
16.3149
17.9025
19.1736
20.1018
20.5458
20.7462
20.1587
18.9992
17.7499
16.0138
14.3945
12.8095
11.5504
10.2544
9.02998
7.73844
6.61503
5.5597
4.83904
4.26571
3.95825
3.7109
3.62553
3.54871
3.44709
-0.386001
-0.307421
-0.0732012
0.196565
0.458936
0.80848
1.18277
1.67568
2.54355
3.89624
5.62304
7.56851
9.60473
11.6856
13.7275
15.6568
17.3758
18.8016
19.9238
20.4004
20.4655
20.2977
19.3418
18.1977
16.7342
15.0395
13.3659
11.7481
10.6111
9.48834
8.26044
7.29558
6.32547
5.66256
5.05142
4.6914
4.34092
4.11669
3.98187
3.75916
-0.370323
-0.271651
-0.107147
0.151747
0.390889
0.73581
1.09828
1.544
2.28706
3.45776
4.96011
6.68558
8.52163
10.4727
12.4809
14.4015
16.159
17.7046
18.9018
19.2562
19.2638
19.5802
19.1117
18.1496
16.9263
15.3554
13.69
12.0837
10.4137
9.6414
8.36172
7.4415
6.49401
5.8872
5.29724
5.01118
4.68913
4.57057
4.47222
4.4067
-0.29946
-0.173496
-0.0733697
0.180257
0.354244
0.612774
0.944258
1.35476
1.96491
2.94879
4.20516
5.6649
7.25027
8.98454
10.7875
12.5499
14.1853
15.6896
16.7151
17.1436
17.9561
18.4433
18.4268
17.7436
16.7188
15.4339
13.8043
12.2581
10.5177
9.45877
8.07283
7.05178
5.98881
5.37975
4.76109
4.45512
4.05915
3.95833
3.94128
3.88087
-0.289932
-0.184545
-0.0952126
0.0813601
0.234236
0.402639
0.61731
1.01244
1.51918
2.32744
3.34756
4.53454
5.85441
7.32297
8.88877
10.4315
11.8868
13.2122
14.2264
15.1107
16.6227
17.225
17.6799
17.2099
16.4296
15.2884
13.9344
12.4641
10.7253
9.61859
8.45566
7.57116
6.59815
6.04141
5.39943
5.07949
4.5953
4.53914
4.39962
4.39041
-0.203834
-0.12896
-0.0460184
0.0775582
0.176077
0.282548
0.441774
0.742152
1.14686
1.80172
2.57988
3.5208
4.58872
5.79578
7.09426
8.43942
9.72817
10.95
12.2811
13.5862
15.4173
15.9507
16.5066
16.3442
15.8705
15.039
13.923
12.5763
11.0149
9.89307
8.84648
8.11459
7.21121
6.68792
6.03406
5.76434
5.26049
5.32289
5.14747
5.24864
-0.248887
-0.201417
-0.12798
-0.0294297
0.00860458
0.0571235
0.171898
0.377792
0.762055
1.23939
1.84148
2.59687
3.45245
4.44077
5.49675
6.67684
7.92134
9.28815
10.8421
12.2843
13.8095
14.5299
15.3086
15.334
15.1089
14.5749
13.7685
12.5102
10.7632
9.9089
9.22207
8.55895
7.68051
7.30063
6.54681
6.40989
5.8863
6.08754
5.90137
6.1804
-0.173782
-0.147473
-0.100696
0.00425583
-0.00949666
0.0238381
0.0498335
0.205463
0.468698
0.928172
1.3446
1.94549
2.66126
3.49408
4.4269
5.52378
6.7903
8.15532
9.8028
11.2167
12.3579
13.1811
14.0878
14.3136
14.3405
14.0095
13.5282
12.1277
10.7487
9.94846
9.25858
8.94296
8.10631
7.67129
7.10223
6.98308
6.42765
6.79362
6.56095
7.05901
-0.282751
-0.303461
-0.199027
-0.162647
-0.142602
-0.155283
-0.146816
-0.053049
0.151427
0.52991
0.960305
1.44155
2.0357
2.82191
3.69928
4.71433
5.92874
7.23055
8.83418
9.7124
10.9422
11.8693
12.9038
13.2444
13.4799
13.3452
13.085
11.7488
10.646
9.9641
9.2196
9.06069
8.18514
8.05531
7.28353
7.5058
6.80902
7.32188
7.02814
7.83631
-0.181852
-0.172742
-0.17129
-0.0915086
-0.0709056
-0.0800732
-0.128392
-0.0613488
-0.0188132
0.350789
0.723078
1.20649
1.70402
2.37363
3.2119
4.19573
5.26842
6.40002
7.69718
8.56029
9.73782
10.6967
11.8391
12.2774
12.6667
12.7417
12.6748
11.4363
10.3896
9.87083
9.17855
8.98852
8.32624
8.38788
7.64158
7.81811
7.18789
7.9071
7.32376
8.68732
-0.348458
-0.366399
-0.332818
-0.331537
-0.21841
-0.19485
-0.238751
-0.178601
-0.115358
0.0613178
0.424051
0.855441
1.33659
1.96886
2.73497
3.64341
4.60432
5.75641
6.68748
7.54996
8.65908
9.53244
10.8385
11.3648
11.884
12.1263
12.1883
11.1303
10.0694
9.6842
9.05788
8.94255
8.24299
8.4023
7.63578
8.10807
7.18012
8.04951
7.48126
9.39682
-0.235887
-0.221943
-0.246864
-0.174196
-0.172011
0.0118096
-0.120034
-0.00999102
-0.0189164
0.150355
0.316544
0.602839
1.00292
1.4702
2.11707
3.09827
3.97615
4.88563
5.87004
6.74597
7.78212
8.57827
9.91164
10.5981
11.2387
11.6957
11.7477
10.8281
9.76509
9.40759
8.83377
8.87586
8.22334
8.52595
7.75891
8.40209
7.41197
8.67987
7.56648
10.8479
-0.35538
-0.496095
-0.422575
-0.444299
-0.33972
-0.216764
-0.206501
-0.0862255
-0.0563421
0.113079
0.25073
0.511971
0.820959
1.38219
1.847
2.54595
3.42738
4.29271
5.15152
6.08017
7.13021
7.79973
9.04187
9.91027
10.6541
11.2961
11.338
10.5506
9.49012
9.14283
8.54745
8.65088
7.96598
8.44506
7.62951
8.49119
7.44236
9.01217
7.83785
12.8717
-0.806852
-0.36456
-0.448888
-0.153952
-0.186476
0.0526582
-0.0456212
0.144905
0.0746015
0.223465
0.297498
0.55053
0.873826
1.26549
1.71357
2.33962
3.08594
3.88996
4.9208
5.86309
6.82132
7.48686
8.46895
9.43921
10.2763
11.0866
11.057
10.3459
9.29104
8.91814
8.33019
8.4994
7.89518
8.5346
7.83757
9.02607
8.27961
10.631
10.584
18.4299
-0.506847
-0.952073
-0.788039
-0.765036
-0.419201
-0.186633
-0.0979513
0.0805704
0.101485
0.231569
0.285461
0.471498
0.764343
1.22823
1.64111
2.1123
2.83017
3.72938
4.6728
5.7705
6.6862
7.22818
7.86646
9.10068
9.9795
10.9286
10.8742
10.2384
9.1807
8.78941
8.16038
8.36995
7.7053
8.48236
7.76253
9.16828
8.60548
12.1878
14.3154
25.8908
-3.22977
-0.443363
-0.698222
-0.247476
-0.129241
0.11031
0.11021
0.291644
0.272826
0.377075
0.417234
0.582222
0.81063
1.18871
1.54983
2.07931
2.71134
3.59127
4.64192
5.85764
6.8656
7.45326
8.03474
9.17793
10.0115
10.8724
10.6505
9.99358
8.9504
8.52728
7.99554
8.38417
7.88891
8.69956
8.21647
10.1276
10.6713
16.8093
24.2803
42.4388
-0.304067
-0.343049
-0.364645
-0.370874
-0.362405
-0.331551
-0.301822
-0.257457
-0.214836
-0.183773
-0.165377
-0.172824
-0.199724
-0.272753
-0.352895
-0.495066
-0.599051
-0.952852
-1.10017
-1.57917
-1.78015
-2.63188
-2.92629
-3.27749
-3.45272
-3.6947
-3.86094
-4.10894
-4.33726
-4.62622
-4.84072
-5.20988
-5.51072
-5.87915
-6.20789
-6.44019
-6.61848
-6.78145
-6.92595
-6.9372
-0.378526
-0.392382
-0.401205
-0.392667
-0.371575
-0.325612
-0.286745
-0.22868
-0.177938
-0.151441
-0.0995784
-0.0896982
-0.0854502
-0.145325
-0.208144
-0.358013
-0.477112
-0.788801
-0.942889
-1.48888
-1.82298
-2.58413
-2.98742
-3.35209
-3.53102
-3.77727
-3.95506
-4.21859
-4.46098
-4.74906
-5.0101
-5.33428
-5.64396
-5.84086
-6.18852
-6.39216
-6.59157
-6.74273
-6.86238
-6.90939
-0.430967
-0.432009
-0.425006
-0.399147
-0.372759
-0.298181
-0.287656
-0.202166
-0.128656
-0.0694045
-0.0228791
-0.021873
-0.0304544
-0.0981129
-0.189136
-0.349156
-0.466001
-0.780907
-0.973916
-1.6064
-2.0283
-2.88123
-3.34198
-3.76233
-3.96812
-4.23892
-4.41018
-4.67141
-4.85962
-5.05789
-5.30003
-5.53267
-5.76876
-6.03852
-6.32878
-6.4318
-6.61603
-6.73939
-6.84652
-6.89927
-0.504475
-0.491774
-0.475559
-0.433661
-0.379545
-0.309756
-0.245424
-0.151071
-0.0751675
-0.00558243
0.0374713
0.0485739
0.0190961
-0.0608031
-0.143878
-0.294655
-0.458885
-0.811069
-1.0748
-1.75295
-2.26777
-3.10364
-3.61779
-4.03952
-4.25748
-4.52511
-4.69949
-4.98163
-5.17423
-5.33472
-5.43604
-5.59952