/*--------------------------------*- C++ -*----------------------------------*\
| =========                 |                                                 |
| \\      /  F ield         | OpenFOAM: The Open Source CFD Toolbox           |
|  \\    /   O peration     | Version:  v1806                                 |
|   \\  /    A nd           | Web:      www.OpenFOAM.com                      |
|    \\/     M anipulation  |                                                 |
\*---------------------------------------------------------------------------*/
FoamFile
{
    version     2.0;
    format      ascii;
    class       surfaceScalarField;
    location    "0.1185";
    object      phi;
}
// * * * * * * * * * * * * * * * * * * * * * * * * * * * * * * * * * * * * * //

dimensions      [0 3 -1 0 0 0 0];
oriented        oriented;


internalField   nonuniform List<scalar> 
187200
(
8.19447e-06
1.7882e-06
-9.9872e-06
6.18627e-05
-2.76269e-05
-2.60409e-05
8.58108e-05
-1.19305e-05
-1.2017e-05
0.000105335
-1.00565e-05
-9.46774e-06
0.00012169
-7.11548e-06
-9.23895e-06
0.000140147
-7.17589e-06
-1.12807e-05
0.00015787
-4.09911e-06
-1.36235e-05
0.000177237
-2.58063e-06
-1.67863e-05
0.000195437
1.18577e-07
-1.83176e-05
0.000209891
4.5973e-06
-1.90505e-05
0.000223828
3.66908e-06
-1.76057e-05
0.000239825
5.47378e-06
-2.147e-05
0.000243912
1.17959e-05
-1.58822e-05
0.000228569
2.38031e-05
-8.45973e-06
0.000191656
3.61721e-05
7.40681e-07
0.000159208
2.61521e-05
6.29622e-06
0.000115874
2.24808e-05
2.08525e-05
6.91182e-05
3.22794e-05
1.44769e-05
-2.22542e-05
8.95097e-05
1.86318e-06
-0.00017095
0.000139138
9.55837e-06
-0.000445278
0.000230058
4.42706e-05
-0.000643138
0.000234728
-3.68669e-05
-0.000797357
0.000282423
-0.000128204
-0.000848253
0.000303027
-0.000252132
-0.000839716
0.000334148
-0.000342684
-0.000774112
0.000363062
-0.000428667
-0.000667064
0.000389692
-0.00049674
-0.000528362
0.000405943
-0.000544645
-0.000361364
0.000400128
-0.000567127
-0.000191848
0.000383296
-0.000552811
-6.01606e-05
0.000346527
-0.000478214
2.54755e-05
0.000298827
-0.000384463
5.95726e-05
0.000236231
-0.000270328
5.30494e-05
0.000172901
-0.000166378
2.82774e-05
0.000119117
-9.43449e-05
6.43096e-06
7.92967e-05
-5.74503e-05
-5.73155e-06
5.35536e-05
-4.13907e-05
-1.04631e-05
4.0524e-05
-3.57924e-05
-9.72173e-06
3.05285e-05
-3.1269e-05
2.08023e-05
-3.05232e-05
2.21351e-06
2.08679e-05
-2.12928e-05
4.71182e-05
-3.47653e-05
-3.77648e-05
9.13315e-05
-2.64546e-05
-2.96884e-05
0.000124162
-1.66435e-05
-2.62429e-05
0.000148749
-7.1683e-06
-2.45342e-05
0.00016787
2.06556e-06
-2.83613e-05
0.000179579
1.78652e-05
-3.36717e-05
0.000187157
2.92085e-05
-3.93661e-05
0.0001826
5.35052e-05
-4.88287e-05
0.000173565
6.99367e-05
-5.63038e-05
0.000138946
0.00010945
-7.1161e-05
8.40977e-05
0.000150693
-9.037e-05
1.10281e-06
0.00019187
-9.70787e-05
-9.42301e-05
0.000225544
-0.000106409
-0.000205319
0.000279589
-0.000132329
-0.000360666
0.000348184
-0.000166685
-0.000524678
0.000429008
-0.000242515
-0.000697976
0.00050832
-0.00030274
-0.000858147
0.00061901
-0.000369328
-0.00102612
0.000731246
-0.000424139
-0.00119786
0.000857926
-0.000456121
-0.00130651
0.000938825
-0.000595448
-0.00138798
0.0010437
-0.000679806
-0.00139159
0.00108137
-0.00077473
-0.00132103
0.00112568
-0.000862089
-0.00118574
0.0011492
-0.000921426
-0.000999882
0.00115785
-0.000954012
-0.000777456
0.00113566
-0.000952146
-0.000545563
0.00107917
-0.000910934
-0.000322786
0.000998418
-0.000837899
-0.000128455
0.000871182
-0.000718986
3.09583e-05
0.000725689
-0.000586274
0.000116513
0.000574356
-0.00042368
0.0001425
0.00044324
-0.000296326
0.000129635
0.000325093
-0.000193112
9.99437e-05
0.000239799
-0.00013081
6.64768e-05
0.000179539
-9.25175e-05
3.97893e-05
0.000140099
-7.28859e-05
1.48853e-05
0.000110668
-5.5235e-05
7.58455e-05
-4.0157e-05
1.89885e-05
1.48952e-05
-1.30149e-05
5.95962e-05
-3.86473e-05
-3.6724e-05
0.000102155
-2.79513e-05
-4.10612e-05
0.000134145
-6.88953e-06
-4.17435e-05
0.00015229
2.17616e-05
-4.70744e-05
0.000160771
4.97171e-05
-5.61324e-05
0.000153925
8.9065e-05
-6.43527e-05
0.000141663
0.000123038
-8.15666e-05
0.00011904
0.000181546
-0.000105418
6.9839e-05
0.00024681
-0.000127672
-1.1755e-05
0.000330859
-0.000139814
-0.000109449
0.000408012
-0.000159624
-0.000247035
0.000509245
-0.000179787
-0.000417418
0.000615349
-0.000219421
-0.000604084
0.00072603
-0.000259774
-0.000778777
0.000835007
-0.000312132
-0.000925881
0.000948405
-0.000372294
-0.00105343
0.00106652
-0.00043065
-0.0011785
0.0012234
-0.000479317
-0.00131828
0.00138414
-0.00051312
-0.00146157
0.00151999
-0.000518773
-0.00154048
0.00161743
-0.000599703
-0.00158171
0.00171671
-0.000631781
-0.00156163
0.00172962
-0.000668325
-0.0014793
0.0017528
-0.000709456
-0.00134696
0.00173917
-0.000722312
-0.00117781
0.00170072
-0.000712028
-0.000983015
0.00161844
-0.000677569
-0.000775863
0.0015004
-0.000628379
-0.000560343
0.00134784
-0.000564943
-0.000377865
0.0011707
-0.000481996
-0.000221448
0.000984666
-0.000415393
-9.86105e-05
0.00078134
-0.000329822
-1.36068e-05
0.000619164
-0.000260928
2.79858e-05
0.000474289
-0.000190789
4.37137e-05
0.000368605
-0.000144535
4.43994e-05
0.000293065
-0.000114211
3.41854e-05
0.000243994
-9.36804e-05
1.52182e-05
0.000196165
-6.65298e-05
0.000131165
-4.01011e-05
2.23434e-05
1.00415e-05
-1.74887e-05
6.0785e-05
-2.89764e-05
-4.81111e-05
9.9849e-05
-7.83826e-06
-5.91765e-05
0.000122274
3.62804e-05
-6.55951e-05
0.000128125
8.67556e-05
-7.08444e-05
0.000120651
0.000140919
-8.3727e-05
0.000104238
0.000214379
-0.000108901
7.33943e-05
0.000287976
-0.000134095
2.20698e-05
0.000398806
-0.000165936
-5.43326e-05
0.000507807
-0.000184593
-0.000156177
0.000636353
-0.000203649
-0.000298539
0.000768992
-0.000218618
-0.000451881
0.000901442
-0.000238856
-0.000599861
0.00101831
-0.000254983
-0.000738199
0.0011433
-0.00027893
-0.000864954
0.00126982
-0.000308057
-0.000979347
0.00140357
-0.000340776
-0.00107878
0.00152324
-0.000357286
-0.00118247
0.00168829
-0.000361198
-0.00129902
0.00183013
-0.000329432
-0.00143784
0.00192109
-0.000262282
-0.00150981
0.00197583
-0.000286427
-0.00154897
0.00202878
-0.000272907
-0.00153438
0.00198399
-0.000268961
-0.00147075
0.0019661
-0.000276925
-0.0013747
0.00190895
-0.00026583
-0.001255
0.00182863
-0.000247609
-0.00111809
0.00170904
-0.000227511
-0.000970112
0.00155517
-0.000202756
-0.000807585
0.00138392
-0.000198601
-0.000630325
0.00119087
-0.000197425
-0.000453947
0.00100637
-0.000198078
-0.000298435
0.000818684
-0.000192856
-0.000170814
0.000678084
-0.000186542
-8.26595e-05
0.000552616
-0.00016648
-2.58071e-05
0.000455937
-0.000144183
9.97977e-06
0.000386937
-0.000129658
2.11613e-05
0.000336532
-0.000103718
1.61735e-05
0.000274219
-7.30666e-05
0.000184315
-3.6977e-05
2.23069e-05
2.13173e-05
-3.35818e-05
6.1026e-05
5.58828e-06
-7.32828e-05
0.000103753
4.10557e-05
-9.16206e-05
0.000121151
0.000114775
-9.58928e-05
0.000115982
0.000197539
-0.000105615
8.93955e-05
0.000288805
-0.0001213
5.46856e-05
0.000402294
-0.000153206
1.42985e-05
0.000510487
-0.000182124
-2.88443e-05
0.000651233
-0.000209283
-9.58696e-05
0.000795376
-0.000220543
-0.000182751
0.000948728
-0.000225492
-0.000279776
0.0010893
-0.000223286
-0.000384794
0.00122526
-0.0002188
-0.000509764
0.00135839
-0.000215109
-0.000634111
0.00148173
-0.000214089
-0.00074716
0.00159439
-0.000211527
-0.000838773
0.00169811
-0.000202925
-0.000910836
0.00176864
-0.00017334
-0.000996271
0.00186683
-9.31114e-05
-0.00110487
0.00194494
-6.21034e-06
-0.00126259
0.00197288
0.000105939
-0.00134211
0.00193999
0.000115353
-0.00139982
0.00195283
0.000133659
-0.00141566
0.00187575
0.00012408
-0.001398
0.00184371
0.000104738
-0.00135947
0.00177699
9.34307e-05
-0.00130208
0.00169395
7.72904e-05
-0.00123825
0.00158194
6.32686e-05
-0.00114714
0.00144469
1.93751e-05
-0.00102974
0.00129312
-2.65983e-05
-0.000883361
0.00112424
-7.97618e-05
-0.00071492
0.000968629
-0.000130703
-0.000541242
0.000808255
-0.000163248
-0.000374754
0.000689443
-0.000177849
-0.000237208
0.000595637
-0.000180567
-0.00012512
0.000507309
-0.00016346
-4.59284e-05
0.000450606
-0.000142861
6.09834e-07
0.000406471
-0.000116477
1.26507e-05
0.000338591
-7.64139e-05
0.000228776
-3.18109e-05
1.5332e-05
6.80422e-05
-6.20563e-05
6.24607e-05
7.45141e-05
-0.000116054
0.000105322
0.00013591
-0.000137715
0.000121616
0.000236207
-0.000137725
0.000112214
0.000344785
-0.000137843
8.00785e-05
0.000471588
-0.000150647
5.52618e-05
0.000614485
-0.000187374
2.82718e-05
0.000757679
-0.000220202
-9.91763e-06
0.000924138
-0.000234715
-6.71792e-05
0.00107635
-0.000223716
-0.000132377
0.00122047
-0.00020655
-0.000205376
0.00134657
-0.000184269
-0.000284387
0.00146394
-0.000159665
-0.000358419
0.00156282
-0.000130396
-0.000428843
0.00164847
-9.63109e-05
-0.000485534
0.00171038
-5.92952e-05
-0.000547904
0.00175424
6.23873e-06
-0.000630352
0.00177179
7.92963e-05
-0.000729407
0.00179893
0.000166958
-0.000840115
0.00177847
0.000277174
-0.00100771
0.0017946
0.00034587
-0.00111466
0.00169442
0.000352521
-0.00120922
0.00169507
0.000352313
-0.00127417
0.00160312
0.000337578
-0.00130941
0.00156884
0.000310105
-0.0013285
0.00150922
0.000286858
-0.00133269
0.00144592
0.000252217
-0.00132461
0.00136235
0.000211511
-0.00129067
0.00126043
0.000150325
-0.00120774
0.00115194
5.82449e-05
-0.00109354
0.00102903
-1.89848e-05
-0.000928987
0.000911236
-0.000107157
-0.00074779
0.000793164
-0.000166107
-0.000550346
0.000695633
-0.000203634
-0.000368503
0.000625564
-0.00021177
-0.000218798
0.000548159
-0.000190552
-0.000100488
0.000500436
-0.00016814
-2.32791e-05
0.000460257
-0.000130994
8.42967e-06
0.000389703
-8.28198e-05
0.000267429
-3.0224e-05
1.61054e-05
0.000146806
-9.48689e-05
7.71635e-05
0.000181977
-0.00016852
0.000127407
0.000271281
-0.000185615
0.000148425
0.000393038
-0.000177849
0.000139922
0.000528415
-0.000175127
0.000100285
0.000692544
-0.000181317
9.18082e-05
0.000842992
-0.000220029
7.26476e-05
0.00100572
-0.000228878
5.84839e-05
0.00115674
-0.000218439
2.63394e-05
0.00129417
-0.000185677
-1.54585e-05
0.00141384
-0.000151566
-7.1071e-05
0.00151533
-0.000113148
-0.000131622
0.00159658
-7.2088e-05
-0.000189783
0.00164999
-2.90087e-05
-0.000249987
0.00167993
2.87454e-05
-0.00029871
0.00167627
8.28323e-05
-0.000354908
0.0016653
0.000145136
-0.000406205
0.00161137
0.000211716
-0.000500319
0.00158795
0.000305094
-0.0005947
0.0014856
0.000387253
-0.000767504
0.00150476
0.00046265
-0.000907014
0.00136268
0.000471258
-0.00102164
0.00135774
0.000451966
-0.00113686
0.00129348
0.000424852
-0.00122437
0.00127603
0.000380329
-0.00129999
0.00124257
0.000342271
-0.00135929
0.0012134
0.000291825
-0.00139968
0.00116556
0.000237179
-0.0014138
0.00110873
0.000165815
-0.00136529
0.00104299
6.04429e-05
-0.00127963
0.000958227
-1.48621e-05
-0.00113578
0.000866784
-9.93971e-05
-0.000945138
0.000776494
-0.000173976
-0.00071901
0.000683862
-0.000214355
-0.000484104
0.000637763
-0.000247104
-0.000303903
0.000589851
-0.000221891
-0.000147658
0.000543727
-0.000199534
-4.60208e-05
0.000510298
-0.000151676
4.36849e-06
0.000435604
-9.62874e-05
0.000304007
-3.22092e-05
2.44052e-05
0.000250788
-0.000128386
0.000101307
0.000321366
-0.000216292
0.000163161
0.000436819
-0.000227392
0.000187818
0.000571269
-0.000202888
0.00017828
0.000721428
-0.000183474
0.000167529
0.000893107
-0.000189811
0.00018007
0.00104202
-0.000211566
0.000183478
0.00120434
-0.000202031
0.000177634
0.00133422
-0.000171635
0.000146267
0.00145215
-0.000126608
0.000106945
0.00154122
-8.80593e-05
6.07792e-05
0.00160495
-4.34522e-05
1.09303e-05
0.00163799
8.43385e-06
-4.24722e-05
0.00163379
6.96026e-05
-9.20698e-05
0.00160648
0.000123052
-0.000143957
0.00154522
0.000182938
-0.000198198
0.00147974
0.00023981
-0.000251521
0.00137847
0.000286227
-0.000322638
0.00132184
0.000337234
-0.000428612
0.00119053
0.000401049
-0.000570343
0.00119853
0.000447957
-0.000745234
0.00107914
0.000458424
-0.000880266
0.00106387
0.000428898
-0.001038
0.00104712
0.000404097
-0.00116716
0.00104354
0.000361648
-0.00128041
0.00103497
0.000320849
-0.00137899
0.00103127
0.0002807
-0.00145682
0.00101104
0.000232361
-0.00149894
0.000989844
0.00016101
-0.00148474
0.000942784
8.60004e-05
-0.00142339
0.000880719
1.61519e-05
-0.00130023
0.000805305
-6.16806e-05
-0.00110786
0.000735013
-0.000150889
-0.000882755
0.000667432
-0.000208672
-0.000624433
0.000623232
-0.00024379
-0.000396866
0.000614343
-0.000252059
-0.000203843
0.000571973
-0.000221269
-7.19145e-05
0.000551841
-0.000173473
-2.67366e-06
0.000474833
-0.000108469
0.000337439
-3.6103e-05
4.0783e-05
0.000367716
-0.000157711
0.000142087
0.000477775
-0.000257714
0.000231303
0.000614276
-0.000266674
0.000271737
0.000754479
-0.000223645
0.000267526
0.000917377
-0.000191737
0.000270635
0.00107458
-0.000184584
0.000275306
0.0012171
-0.000179752
0.000284803
0.00135304
-0.000158193
0.000282954
0.00146045
-0.000124387
0.000261558
0.00155056
-7.70124e-05
0.000224982
0.00159943
-2.16332e-05
0.000183314
0.00161614
3.04762e-05
0.000129615
0.00160245
8.92431e-05
7.39626e-05
0.00155312
0.000136324
1.98249e-05
0.00147722
0.000183391
-3.62209e-05
0.00137532
0.000225951
-9.39098e-05
0.00127644
0.000260988
-0.000160251
0.00115968
0.000285135
-0.000223776
0.00108102
0.000304341
-0.000339474
0.000968287
0.000337938
-0.00045208
0.000948755
0.000362382
-0.000641055
0.00088554
0.000382577
-0.000801963
0.000860615
0.000364161
-0.000975966
0.000875051
0.00034607
-0.00112895
0.000878337
0.000318182
-0.0012638
0.000888097
0.000281723
-0.00138858
0.000894276
0.000261778
-0.00149045
0.000895989
0.000216916
-0.00156578
0.000879619
0.000185547
-0.00158868
0.000840308
0.00012538
-0.00154578
0.000787237
5.05852e-05
-0.00143802
0.000728526
-3.09804e-05
-0.00125125
0.000667352
-0.000119112
-0.00101237
0.000615141
-0.000186592
-0.000735518
0.000577797
-0.000231416
-0.000477212
0.000602157
-0.00024612
-0.000256645
0.000590739
-0.000239334
-9.4332e-05
0.000579884
-0.000190357
-1.09984e-05
0.000513116
-0.000121618
0.000368753
-4.23101e-05
5.93101e-05
0.000482364
-0.000173958
0.000185379
0.000640388
-0.000288682
0.000301015
0.000791265
-0.000292627
0.000354346
0.000933648
-0.0002325
0.000369217
0.00108278
-0.000180273
0.000372339
0.00122222
-0.000150759
0.000368372
0.00135263
-0.000131561
0.000371691
0.00145865
-0.00010893
0.000368884
0.00153535
-7.20849e-05
0.000360291
0.00157992
-2.07661e-05
0.000330127
0.00160154
2.8049e-05
0.000274177
0.00158238
8.97163e-05
0.000214245
0.00152505
0.000137338
0.00015349
0.0014327
0.000181181
9.10869e-05
0.00132618
0.000213446
2.74547e-05
0.00120185
0.0002371
-3.52988e-05
0.00108954
0.000249648
-0.000106289
0.000977398
0.000253268
-0.000171889
0.000896148
0.000250473
-0.000289275
0.000818852
0.000266822
-0.000399781
0.000783891
0.000275368
-0.000575458
0.000756121
0.000305095
-0.000752588
0.000732524
0.00030522
-0.000921548
0.000747095
0.000296915
-0.00108365
0.000752315
0.00028812
-0.00122579
0.000768082
0.000262153
-0.00136622
0.000777859
0.000256853
-0.0014934
0.000780448
0.000242713
-0.00158885
0.000759462
0.000215612
-0.00163849
0.00072661
0.000163336
-0.00162136
0.000685906
8.42027e-05
-0.00153355
0.000637746
2.97042e-06
-0.00136734
0.000589879
-8.87376e-05
-0.00112868
0.000550378
-0.000173903
-0.00084951
0.000511774
-0.000213145
-0.000553977
0.00053979
-0.000233166
-0.000309641
0.000575888
-0.000229485
-0.000121562
0.000589042
-0.000197237
-2.0363e-05
0.000539115
-0.0001272
0.00039513
-4.67395e-05
7.55111e-05
0.000585345
-0.000178494
0.000230844
0.000791044
-0.00030599
0.000371922
0.000955226
-0.000305039
0.00044489
0.00109273
-0.000232049
0.000475574
0.0012209
-0.000168799
0.000474333
0.00133854
-0.000115073
0.000470205
0.00144259
-8.58378e-05
0.000459195
0.00152008
-5.04254e-05
0.000438524
0.00157109
-1.5072e-05
0.000413911
0.00158828
1.62522e-05
0.000385684
0.00156339
6.63837e-05
0.00034207
0.00150478
0.000121209
0.000277607
0.00142277
0.000166743
0.000204092
0.00130553
0.00020068
0.000132633
0.00117596
0.000221685
6.19228e-05
0.00104529
0.000227272
-6.99694e-06
0.000934218
0.000224247
-8.19742e-05
0.000836254
0.000216122
-0.00015496
0.000763401
0.000205733
-0.000264154
0.000712879
0.000215166
-0.000375162
0.00067464
0.00022026
-0.000526114
0.000655504
0.000251569
-0.000699092
0.000640835
0.000264667
-0.000857135
0.000635704
0.000269433
-0.00101538
0.000639698
0.000270862
-0.00116402
0.000648022
0.000268696
-0.00131529
0.000660904
0.000268219
-0.00145953
0.000652184
0.000272506
-0.00157937
0.000636148
0.000243153
-0.00165481
0.000609053
0.000192998
-0.00167577
0.000570049
0.000136815
-0.00161857
0.000538982
4.15629e-05
-0.00147016
0.000500972
-5.95009e-05
-0.00122294
0.000472872
-0.000169707
-0.000927839
0.000440275
-0.000223605
-0.000618681
0.000467959
-0.000237329
-0.000354545
0.000528161
-0.00021641
-0.00014285
0.000583308
-0.00020596
-2.73938e-05
0.000555355
-0.000131698
0.00042076
-5.30254e-05
8.82475e-05
0.000670342
-0.000173245
0.000269785
0.000923465
-0.000313958
0.000434781
0.00110136
-0.000311131
0.000526315
0.00122652
-0.000225324
0.000568346
0.00133028
-0.000151411
0.000571051
0.00141964
-8.3812e-05
0.000562279
0.0014973
-4.59298e-05
0.000538252
0.00154782
-3.7162e-06
0.000503664
0.00157226
3.34184e-05
0.000459424
0.00155564
7.68819e-05
0.00040931
0.00150943
0.000104071
0.000354224
0.00142226
0.000137606
0.000298149
0.00130549
0.000173347
0.000227516
0.00117336
0.000202808
0.000153925
0.00104056
0.000208987
7.96984e-05
0.000912892
0.000206624
1.0569e-05
0.000809041
0.000194307
-6.32299e-05
0.000726147
0.000183907
-0.000140365
0.000664013
0.000176524
-0.000243707
0.000628567
0.000187654
-0.000349085
0.000586027
0.000193992
-0.000482716
0.000565186
0.000223948
-0.000631291
0.000547652
0.000241757
-0.000773317
0.000524591
0.000253138
-0.000919247
0.000522344
0.000263282
-0.00106519
0.000524305
0.000269655
-0.00122809
0.000525445
0.000298366
-0.00138338
0.000519488
0.000287978
-0.00151899
0.000509911
0.000261851
-0.00162762
0.000493036
0.000224645
-0.00166714
0.000480136
0.000129434
-0.00164227
0.000452723
6.13878e-05
-0.00153451
0.000414406
-2.11886e-05
-0.00133094
0.000388068
-0.000118769
-0.00102959
0.00036751
-0.000228587
-0.000690181
0.000388794
-0.000260244
-0.000389947
0.000452432
-0.000224506
-0.000167452
0.000546009
-0.000185197
-3.54695e-05
0.000558672
-0.000135299
0.000442654
-5.73642e-05
9.84064e-05
0.000728429
-0.000156493
0.000303426
0.00102676
-0.000308318
0.000494315
0.00121492
-0.000304444
0.000605121
0.00132633
-0.00021062
0.000651691
0.00141026
-0.000126559
0.00065851
0.00147244
-5.96176e-05
0.000644546
0.0015182
-6.94233e-06
0.00061154
0.00154155
3.92821e-05
0.000563925
0.00153899
8.08812e-05
0.0005011
0.00150057
0.000117893
0.00043272
0.00142869
0.000149116
0.000362665
0.00132291
0.00016941
0.000294102
0.00119655
0.000177512
0.000227789
0.00105346
0.000186215
0.000157018
0.000921019
0.000190315
8.98368e-05
0.000801354
0.00017872
2.13848e-05
0.000709687
0.000167807
-4.57649e-05
0.000634456
0.000158841
-0.000119552
0.000577883
0.000159918
-0.000213107
0.000546908
0.000175215
-0.000305091
0.000491718
0.000186295
-0.000425171
0.000473145
0.000212121
-0.00054647
0.00044224
0.000226711
-0.000670214
0.00040884
0.000239495
-0.000802605
0.000399511
0.000255225
-0.00094782
0.000392875
0.000276646
-0.00110841
0.000392291
0.000293744
-0.00126912
0.000392071
0.000288126
-0.00142493
0.000392146
0.000273581
-0.00155018
0.000394763
0.000223522
-0.00163652
0.000380345
0.000186127
-0.00165222
0.000355711
0.000112713
-0.00159289
0.000310406
4.46705e-05
-0.00142003
0.000268639
-5.34263e-05
-0.00114451
0.000256727
-0.000164738
-0.000781967
0.000274972
-0.000248724
-0.000439932
0.000370555
-0.000260157
-0.000186643
0.00047799
-0.000185272
-4.39084e-05
0.000546276
-0.000130339
0.00046188
-6.31326e-05
0.000101493
0.000765499
-0.000138562
0.00032534
0.00110197
-0.00029905
0.000540786
0.00129904
-0.000299571
0.000668147
0.00139839
-0.000199421
0.000719368
0.00146112
-0.000102079
0.000726873
0.00150002
-3.50908e-05
0.000705873
0.0015203
1.88975e-05
0.000661112
0.00151251
7.38045e-05
0.00060121
0.00148226
0.000116639
0.000530604
0.00142199
0.000149188
0.000451353
0.001335
0.000172949
0.000363917
0.00121716
0.000193183
0.000281934
0.0010843
0.000194233
0.00021363
0.000942039
0.000179723
0.000153485
0.000814681
0.000166483
9.29168e-05
0.000707422
0.0001545
3.68192e-05
0.00062018
0.000145606
-2.21399e-05
0.000551255
0.000142161
-8.91763e-05
0.000495104
0.000149817
-0.000168209
0.000457681
0.000168261
-0.000251413
0.000392411
0.000182512
-0.00035531
0.000374763
0.000202281
-0.000449043
0.000327569
0.000208404
-0.000554185
0.000293622
0.00022036
-0.000670092
0.000277626
0.000237792
-0.000808074
0.000266254
0.000264603
-0.000960937
0.000270714
0.00027444
-0.00112128
0.000272766
0.000279648
-0.00128251
0.000286902
0.000266472
-0.00143217
0.000283622
0.000260809
-0.00155547
0.000273636
0.000230005
-0.00162393
0.000232963
0.000191213
-0.0016096
0.000179437
0.000116631
-0.00148455
0.000126005
1.75831e-05
-0.00123502
9.84708e-05
-9.12672e-05
-0.000888127
0.000124472
-0.000196394
-0.000497456
0.000235698
-0.000255814
-0.000213345
0.000405759
-0.000211882
-4.81624e-05
0.000514618
-0.000133527
0.000483897
-7.01802e-05
0.000106856
0.000767193
-0.00010855
0.000348453
0.00113503
-0.000274659
0.000582926
0.00134468
-0.000280113
0.000725588
0.00143938
-0.000183649
0.000779532
0.00148309
-7.59174e-05
0.00078119
0.00149748
8.81872e-07
0.000750335
0.00149024
6.09195e-05
0.000699806
0.00145707
0.000105964
0.000632279
0.00140324
0.000146548
0.000552481
0.00132504
0.000176746
0.000464196
0.00122361
0.000199674
0.000371024
0.00110003
0.000210295
0.00028134
0.000967878
0.000206103
0.0002033
0.000835119
0.00018496
0.000147921
0.000715679
0.000154381
0.00010025
0.00061586
0.000139233
5.29058e-05
0.0005385
0.000129025
4.52909e-06
0.00046807
0.000131562
-5.4421e-05
0.0004086
0.000145456
-0.000113193
0.000355266
0.00016119
-0.000194059
0.000296444
0.000176836
-0.000273793
0.000267378
0.000187119
-0.000351557
0.000216824
0.000188509
-0.000439548
0.000184388
0.000197227
-0.000543434
0.000162665
0.000218848
-0.000665579
0.000154109
0.000234292
-0.000805071
0.000159964
0.000250243
-0.000954607
0.00016341
0.000258891
-0.00111455
0.000175276
0.000271569
-0.00127939
0.00017669
0.000271769
-0.00143221
0.00015745
0.000269016
-0.00154733
0.000114613
0.000233467
-0.00159016
5.12374e-05
0.000171028
-0.00152384
-2.3548e-05
8.32314e-05
-0.00131674
-7.46397e-05
-3.39937e-05
-0.000993726
-6.37468e-05
-0.000134792
-0.0005842
5.17546e-05
-0.000225582
-0.000227695
0.000293144
-0.000243889
-5.87096e-05
0.000484499
-0.000138866
0.000495972
-7.0788e-05
0.000106029
0.00074612
-8.4957e-05
0.000357304
0.00113595
-0.000252196
0.000606228
0.00135901
-0.000263248
0.000761225
0.00145149
-0.000167111
0.000821726
0.0014814
-5.8805e-05
0.000818363
0.00146885
3.19918e-05
0.00077956
0.00143792
9.11202e-05
0.000717499
0.00138104
0.000138098
0.000642698
0.00131018
0.000167855
0.00055925
0.0012167
0.000191783
0.000465222
0.0011045
0.000213136
0.000368082
0.000977876
0.000219298
0.000277737
0.000849231
0.000208992
0.000201378
0.000726557
0.000184921
0.000144053
0.000620026
0.000152979
0.000103518
0.000525896
0.000130501
7.2445e-05
0.00044617
0.000123404
3.58382e-05
0.00037984
0.000124838
-1.88579e-05
0.000323349
0.000139948
-6.5955e-05
0.000252119
0.000150246
-0.000133599
0.000201289
0.000162801
-0.000192046
0.00016449
0.000161336
-0.000261303
0.000120052
0.00016603
-0.000335377
8.37018e-05
0.000174762
-0.000426721
6.51553e-05
0.000188855
-0.000533064
5.6265e-05
0.000204188
-0.000647439
5.70191e-05
0.000217321
-0.000782268
6.0395e-05
0.000237845
-0.00093252
6.70937e-05
0.000258435
-0.00109821
6.0077e-05
0.0002823
-0.00126958
4.38774e-05
0.000284951
-0.00141967
-1.74473e-06
0.000266439
-0.00151334
-7.08945e-05
0.000215803
-0.0015068
-0.000165691
0.000135612
-0.00136639
-0.000246096
3.10465e-05
-0.00107489
-0.000270576
-8.46747e-05
-0.000685225
-0.000157251
-0.000180662
-0.000280349
0.000107977
-0.000219707
-6.39804e-05
0.000418759
-0.000150624
0.000501166
-6.91759e-05
0.000120893
0.000645447
-2.02213e-05
0.00038246
0.00107412
-0.000199735
0.000642532
0.00132029
-0.000221361
0.000812614
0.00141328
-0.000131872
0.00087156
0.00143308
-1.06248e-05
0.000858304
0.00140463
7.74779e-05
0.000805288
0.00135285
0.00013809
0.000734165
0.00127589
0.000176272
0.000654299
0.0011908
0.000199248
0.000567798
0.00109026
0.000212939
0.000476614
0.000978263
0.000217419
0.000383394
0.000857656
0.00021344
0.000294949
0.000738091
0.000199585
0.000219955
0.000625674
0.000175877
0.00016207
0.000529174
0.000148738
0.00011979
0.000444489
0.000123687
7.95971e-05
0.000372799
0.000113564
4.58175e-05
0.000295018
0.000118602
1.41802e-05
0.000227403
0.000127585
-2.96266e-05
0.000160814
0.000135113
-8.61686e-05
0.000118855
0.000138977
-0.000128249
6.83822e-05
0.000138189
-0.000182892
2.9415e-05
0.00014528
-0.000250268
-1.03804e-06
0.000152116
-0.000328829
-2.02532e-05
0.000163971
-0.00041485
-3.23127e-05
0.000174599
-0.000516079
-3.6843e-05
0.000195093
-0.00063147
-4.45571e-05
0.000220344
-0.000768287
-4.78297e-05
0.00025174
-0.000926567
-5.94184e-05
0.000277776
-0.0011005
-7.69633e-05
0.00029477
-0.00126808
-0.000124211
0.000290051
-0.0013996
-0.000195552
0.000256176
-0.00144767
-0.000305751
0.000188134
-0.00136811
-0.000414646
8.8984e-05
-0.00113188
-0.000482317
-2.44838e-05
-0.000758415
-0.000404583
-0.000126137
-0.000338338
-0.000132934
-0.000179168
-5.36627e-05
0.000303616
-0.000169532
0.000515617
-6.81105e-05
0.00011549
0.000527622
2.33471e-06
0.000367395
0.00100966
-0.000187453
0.000641497
0.00127042
-0.000224231
0.000827453
0.00136259
-0.000135264
0.000897476
0.00137071
-7.65862e-06
0.000884831
0.00131896
9.83136e-05
0.000832743
0.00124773
0.000157205
0.000752162
0.00116076
0.000195709
0.000656956
0.00107175
0.000214251
0.000558219
0.000965859
0.000223142
0.000463944
0.000850525
0.000222012
0.000376089
0.000734102
0.000211409
0.00029921
0.000622775
0.000192196
0.000233294
0.000522834
0.000168757
0.000180471
0.000438579
0.000143418
0.000144732
0.00035762
0.000122609
0.000124289
0.000282784
0.000110458
9.76265e-05
0.000213019
0.000108662
5.73419e-05
0.000154786
0.000112902
1.39545e-05
9.22004e-05
0.000112002
-2.5172e-05
4.32637e-05
0.000114718
-6.82317e-05
-5.28932e-06
0.000116731
-0.000121658
-4.32265e-05
0.000126067
-0.000178449
-8.05189e-05
0.000136271
-0.000242567
-0.000102119
0.000145984
-0.00031364
-0.000121458
0.00016022
-0.000394244
-0.00013685
0.00018061
-0.000489496
-0.000156031
0.000206728
-0.000607983
-0.00016384
0.000234498
-0.000750662
-0.000180726
0.000263986
-0.000918331
-0.000197484
0.00028819
-0.00109441
-0.000247071
0.000298944
-0.00125494
-0.000319174
0.000284145
-0.00135577
-0.000439894
0.000234977
-0.00133977
-0.00057977
0.000149119
-0.0011644
-0.000704789
4.71029e-05
-0.000820949
-0.000683436
-6.45963e-05
-0.000410857
-0.000409914
-0.000133113
-6.86865e-05
9.80941e-05
-0.000136651
0.000480355
-3.34248e-05
0.000147842
0.000312265
6.75144e-05
0.000374471
0.000878242
-9.5207e-05
0.000650478
0.00115656
-0.000162142
0.000839838
0.00125222
-7.89902e-05
0.000916995
0.00125398
3.95751e-05
0.000897512
0.00120221
0.000136234
0.000832231
0.00111938
0.000193637
0.000743266
0.00102117
0.000228556
0.000656203
0.000917652
0.000241164
0.000574783
0.000809627
0.000237651
0.000494424
0.00070795
0.000222934
0.000413282
0.000612941
0.000202304
0.000339075
0.000520836
0.000176145
0.000275996
0.000435931
0.000149982
0.000231253
0.00035821
0.000125113
0.000194905
0.00029056
0.000103408
0.000164181
0.000228481
8.50283e-05
0.000126523
0.000164484
8.61933e-05
8.94214e-05
9.92181e-05
9.26694e-05
5.4392e-05
3.37338e-05
9.34959e-05
2.55684e-05
-2.47907e-05
9.68779e-05
-1.15153e-05
-6.76072e-05
9.94007e-05
-5.90836e-05
-0.00010616
0.000110501
-0.000116536
-0.000145486
0.000122419
-0.000174439
-0.000179288
0.000135073
-0.000236384
-0.000209925
0.000150412
-0.000310164
-0.000233163
0.000170094
-0.000396249
-0.000265481
0.000195535
-0.000497594
-0.000289302
0.000226807
-0.000613932
-0.000326203
0.000261813
-0.000759361
-0.000346763
0.000294707
-0.000922657
-0.000406712
0.000322939
-0.00109512
-0.000477731
0.000331021
-0.0012343
-0.000605835
0.000305117
-0.00127496
-0.000783308
0.000244196
-0.00116616
-0.00096761
0.000154021
-0.000869417
-0.00101834
3.81618e-05
-0.000436125
-0.000779629
-6.35762e-05
-8.55303e-05
-0.000161593
-9.09092e-05
0.000390261
4.56393e-06
0.000118579
0.000163115
3.05717e-05
0.000325215
0.000787973
-0.000116369
0.000602338
0.00106212
-0.00018269
0.000802328
0.00115698
-0.000104752
0.00089985
0.00114041
1.60501e-05
0.000901658
0.00107421
0.000126192
0.000858752
0.000976756
0.000185526
0.000783776
0.000880305
0.000215838
0.000694912
0.000790576
0.000215938
0.00059794
0.000702927
0.000203672
0.000505584
0.000614693
0.000185614
0.000421779
0.000531512
0.000165234
0.000351495
0.000448759
0.00014236
0.000292972
0.000372958
0.000121495
0.000246403
0.000302071
0.000102708
0.000207889
0.000239331
8.97431e-05
0.000180342
0.000182458
7.35701e-05
0.000157214
0.000123446
6.41662e-05
0.00013366
5.57854e-05
6.6987e-05
0.000108383
-1.27302e-05
7.17415e-05
7.14193e-05
-6.72533e-05
7.94269e-05
3.96063e-05
-0.000117717
8.19224e-05
-7.76812e-07
-0.000159446
9.36684e-05
-5.02782e-05
-0.000203089
0.000107105
-0.000107259
-0.000243024
0.000120718
-0.000162822
-0.000286763
0.0001324
-0.000219581
-0.000321857
0.000145454
-0.000284537
-0.000367278
0.000166753
-0.000367687
-0.000401129
0.000194978
-0.000475267
-0.000450377
0.000231755
-0.000606644
-0.000493038
0.000277653
-0.00076171
-0.000575174
0.000323531
-0.000940305
-0.000662461
0.000363323
-0.00110388
-0.000822951
0.000380688
-0.00121295
-0.00101969
0.000345461
-0.00117949
-0.00126464
0.000263566
-0.000981993
-0.00137072
0.000154878
-0.00055208
-0.00123449
2.49464e-05
-0.000144012
-0.00054975
-1.99134e-05
0.000208566
3.76852e-05
7.96402e-05
5.31528e-05
3.03216e-05
0.00031037
0.000662751
-0.000105509
0.000580578
0.000965239
-0.000173325
0.000798857
0.00106868
-0.000129977
0.000908503
0.00105593
-2.51647e-05
0.000916958
0.000991021
7.47353e-05
0.000851541
0.000889588
0.000152584
0.000760596
0.000791879
0.000179371