/*--------------------------------*- C++ -*----------------------------------*\
| =========                 |                                                 |
| \\      /  F ield         | OpenFOAM: The Open Source CFD Toolbox           |
|  \\    /   O peration     | Version:  v1806                                 |
|   \\  /    A nd           | Web:      www.OpenFOAM.com                      |
|    \\/     M anipulation  |                                                 |
\*---------------------------------------------------------------------------*/
FoamFile
{
    version     2.0;
    format      ascii;
    class       volVectorField;
    location    "0.1185";
    object      U;
}
// * * * * * * * * * * * * * * * * * * * * * * * * * * * * * * * * * * * * * //

dimensions      [0 1 -1 0 0 0 0];


internalField   nonuniform List<vector> 
64000
(
(-0.0120077 -0.0140218 -0.0103825)
(0.0164869 -0.0133055 -0.00765661)
(0.0223011 -0.00437628 0.000104045)
(0.0272016 -0.00355608 0.00132445)
(0.0283629 -0.00263857 0.00161435)
(0.0293428 -0.00321118 0.00207242)
(0.0299416 -0.00417663 0.00193746)
(0.0283301 -0.00502635 0.00256379)
(0.0288656 -0.0062736 0.0028954)
(0.0243782 -0.00647405 0.00434982)
(0.0202457 -0.0080121 0.00237321)
(0.0112284 -0.00830661 0.00818862)
(0.00152284 -0.0122004 0.00685579)
(-0.018256 -0.018406 0.00464421)
(-0.0407875 -0.0197587 0.0042342)
(-0.0739496 -0.0209056 0.00340107)
(-0.0923658 -0.00513143 0.000662329)
(-0.134924 -0.00638996 -0.00297293)
(-0.124661 -0.0103407 0.00209595)
(-0.185058 -0.0267273 -0.0107558)
(-0.152667 -0.0198103 -0.0162112)
(-0.0656331 -0.0227866 -0.0359612)
(-0.088861 -0.00507218 -0.0211034)
(-0.0881091 -0.00226448 -0.0354001)
(-0.110897 0.00384635 -0.0462666)
(-0.104371 0.0117243 -0.0569137)
(-0.0950761 0.0222695 -0.0615301)
(-0.0586385 0.0330191 -0.0585213)
(-0.0282488 0.0409054 -0.0538192)
(0.0170552 0.0541587 -0.0381516)
(0.0646227 0.0489608 -0.0329544)
(0.101366 0.0393479 -0.025282)
(0.115823 0.0291767 -0.0120394)
(0.11275 0.0150678 -0.00488889)
(0.0970762 0.00629052 0.00162367)
(0.0768917 -0.00181264 0.00414009)
(0.0563251 -0.0057884 0.00576476)
(0.035012 -0.00545637 0.00677977)
(0.0189473 -0.00393924 0.00674272)
(0.00334747 -0.0024489 0.00451648)
(-0.00858125 0.00443219 -0.00640004)
(0.00747806 -0.0171919 -0.00646471)
(0.0223156 -0.0108549 -0.00257123)
(0.0339172 -0.00761731 -0.000858409)
(0.0403742 -0.003283 -0.00154409)
(0.0417622 -0.00154263 -0.00169299)
(0.0414815 0.00175308 -0.00375103)
(0.0357035 0.00322794 -0.00288231)
(0.0303034 0.00599115 -0.00826817)
(0.014386 0.0127151 -0.00356358)
(-0.00490325 0.0195411 -0.00792116)
(-0.0372786 0.0281516 0.000143006)
(-0.079574 0.0376449 -0.00371867)
(-0.128838 0.0539061 -0.00670234)
(-0.182046 0.0691431 -0.0118395)
(-0.236817 0.0783995 -0.0170335)
(-0.299578 0.0868163 -0.0430137)
(-0.399729 0.088334 -0.0596111)
(-0.438769 0.0955085 -0.0776357)
(-0.526583 0.0982503 -0.0941421)
(-0.47129 0.125831 -0.0863992)
(-0.352529 0.142396 -0.123303)
(-0.358658 0.190566 -0.129332)
(-0.345653 0.211788 -0.14223)
(-0.342443 0.235678 -0.154508)
(-0.302797 0.256634 -0.161773)
(-0.258255 0.277822 -0.163646)
(-0.18611 0.293588 -0.152341)
(-0.114793 0.30057 -0.132726)
(-0.0443041 0.306895 -0.108935)
(0.0196513 0.29112 -0.0736112)
(0.0857927 0.259256 -0.0455985)
(0.121126 0.208848 -0.0374316)
(0.133312 0.158327 -0.0249681)
(0.126597 0.108391 -0.0114929)
(0.106205 0.0687642 -0.00405138)
(0.0850376 0.0406183 0.00033108)
(0.0591547 0.0257032 0.00122134)
(0.0354792 0.0161173 0.00229982)
(0.00899185 0.00824391 0.00220539)
(-0.0006324 -0.00177364 0.00147684)
(0.0143307 -0.0218505 -0.00242957)
(0.0301266 -0.0164298 -0.00317602)
(0.0415431 -0.00535674 -0.00415554)
(0.0449006 0.00300075 -0.00607648)
(0.0435755 0.0129536 -0.00747546)
(0.0376578 0.0265361 -0.00896013)
(0.0229147 0.0387631 -0.0106622)
(0.00979561 0.0620138 -0.00266829)
(-0.0175349 0.0817928 -0.0040598)
(-0.0536763 0.108772 -0.00817586)
(-0.102231 0.136907 -0.0125325)
(-0.153002 0.17311 -0.0174554)
(-0.223927 0.201509 -0.0311994)
(-0.310126 0.2229 -0.0375174)
(-0.404839 0.237966 -0.0437943)
(-0.47939 0.244525 -0.0612742)
(-0.563877 0.259832 -0.0803655)
(-0.594768 0.293331 -0.0982002)
(-0.668474 0.331281 -0.114199)
(-0.597452 0.367908 -0.0977523)
(-0.451033 0.40392 -0.123536)
(-0.434937 0.46009 -0.120484)
(-0.410554 0.489064 -0.121627)
(-0.398658 0.520701 -0.125732)
(-0.354183 0.541102 -0.125154)
(-0.308886 0.555591 -0.12065)
(-0.242539 0.557816 -0.105167)
(-0.18041 0.54825 -0.0823953)
(-0.115208 0.52755 -0.0590782)
(-0.0617599 0.498119 -0.0385415)
(-0.0187971 0.447699 -0.0272904)
(0.0149045 0.375057 -0.014179)
(0.0404715 0.301928 -0.00717639)
(0.0509064 0.224503 -0.00936858)
(0.0552326 0.161515 -0.00969086)
(0.0539671 0.1144 -0.00579113)
(0.043494 0.0779126 -0.00389173)
(0.0306757 0.0518412 -0.000506152)
(0.00924756 0.0264742 0.0018401)
(0.0009786 -0.00661939 0.00228237)
(0.0169187 -0.0231381 -0.00153092)
(0.0358076 -0.0110788 -0.00423871)
(0.0426813 0.0047795 -0.00751164)
(0.0412829 0.0275305 -0.00808709)
(0.0382667 0.0503654 -0.00943661)
(0.0256522 0.0830923 -0.00887411)
(0.0088618 0.113796 -0.00470643)
(-0.0158183 0.158161 -0.0107442)
(-0.0590833 0.195365 -0.0126406)
(-0.103512 0.238777 -0.0177814)
(-0.160844 0.276131 -0.0236625)
(-0.235815 0.306161 -0.0295867)
(-0.324376 0.321763 -0.030152)
(-0.40264 0.343478 -0.033522)
(-0.477776 0.365912 -0.0379029)
(-0.537302 0.398286 -0.054311)
(-0.608016 0.427984 -0.0646445)
(-0.62531 0.474737 -0.0750927)
(-0.689183 0.525016 -0.0774939)
(-0.60562 0.554965 -0.0378694)
(-0.43736 0.58374 -0.0445116)
(-0.408551 0.622198 -0.034954)
(-0.383543 0.626768 -0.0280757)
(-0.372575 0.63962 -0.0271513)
(-0.336863 0.638381 -0.0230534)
(-0.303272 0.630628 -0.0195834)
(-0.25324 0.610052 -0.0114502)
(-0.208525 0.583504 0.000917397)
(-0.163407 0.549102 0.00826854)
(-0.134745 0.507602 0.0128813)
(-0.108931 0.461434 0.0115049)
(-0.0850474 0.403606 0.00568202)
(-0.06039 0.340584 -0.00189813)
(-0.0367072 0.266364 -0.0051537)
(-0.0101976 0.200505 -0.00976793)
(0.0073284 0.146665 -0.008757)
(0.0142804 0.110727 -0.00706162)
(0.0201829 0.0773395 -0.00256873)
(0.0076305 0.0387139 0.00170157)
(0.000705489 -0.00713907 0.00062278)
(0.0215493 -0.0127906 -0.00349671)
(0.0423148 0.00388419 -0.00848794)
(0.0507255 0.03592 -0.0086666)
(0.0486865 0.0720544 -0.0090552)
(0.0420654 0.115987 -0.014452)
(0.0245489 0.170873 -0.0120543)
(-0.00168321 0.224487 -0.005922)
(-0.0325615 0.279993 -0.00878985)
(-0.0827562 0.326428 -0.0110818)
(-0.137736 0.364335 -0.0145974)
(-0.210183 0.387038 -0.0169494)
(-0.281716 0.406168 -0.0175688)
(-0.348656 0.430078 -0.0202646)
(-0.410797 0.460012 -0.022893)
(-0.476982 0.492534 -0.0238627)
(-0.523782 0.523905 -0.0293964)
(-0.577759 0.554561 -0.0282259)
(-0.573822 0.614625 -0.0209928)
(-0.622443 0.665735 -0.0281462)
(-0.541002 0.691814 0.0133956)
(-0.366447 0.70216 0.0187941)
(-0.334736 0.710461 0.0338589)
(-0.319095 0.67889 0.0373625)
(-0.32107 0.662856 0.0365276)
(-0.304502 0.634891 0.0415364)
(-0.2905 0.603094 0.0434843)
(-0.259193 0.564374 0.0480596)
(-0.234936 0.522365 0.0413182)
(-0.209124 0.481209 0.0324956)
(-0.190951 0.435652 0.0221072)
(-0.180404 0.402191 0.0144927)
(-0.170964 0.364505 0.00763864)
(-0.157058 0.333971 -0.00384781)
(-0.134681 0.277131 -0.0131898)
(-0.0919879 0.207407 -0.0140072)
(-0.043828 0.159837 -0.0125472)
(-0.0113257 0.129809 -0.0107429)
(0.00627392 0.0957504 -0.00495002)
(0.00481596 0.0481654 0.00174192)
(0.00422705 -0.000605196 -0.00022638)
(0.0258461 0.00439607 -0.00671787)
(0.0549879 0.0315699 -0.0077348)
(0.0648044 0.081805 -0.00962628)
(0.0600828 0.137549 -0.0148542)
(0.0587283 0.199167 -0.0173849)
(0.0383236 0.272357 -0.0141845)
(0.00567275 0.323628 -0.00499996)
(-0.039308 0.368164 -0.00795647)
(-0.105527 0.401279 -0.0100447)
(-0.170353 0.429938 -0.0123207)
(-0.23176 0.455829 -0.0119608)
(-0.284805 0.487161 -0.010521)
(-0.338802 0.517322 -0.0071405)
(-0.381743 0.544221 -0.00187292)
(-0.42947 0.573003 0.00373899)
(-0.458019 0.603168 0.00770411)
(-0.481121 0.635219 0.010692)
(-0.466468 0.685349 0.00760553)
(-0.506642 0.72931 0.010365)
(-0.429451 0.74757 0.0480987)
(-0.275585 0.709169 0.0571984)
(-0.262385 0.687126 0.0708602)
(-0.268593 0.623672 0.0785441)
(-0.283826 0.585922 0.0788522)
(-0.286759 0.54217 0.077077)
(-0.288508 0.500825 0.074306)
(-0.277108 0.45746 0.0670551)
(-0.265058 0.410753 0.0644772)
(-0.252812 0.371157 0.0428727)
(-0.244171 0.327647 0.0306829)
(-0.232238 0.296509 0.0154467)
(-0.21788 0.270814 0.00453614)
(-0.216336 0.259813 -0.0059126)
(-0.219594 0.238213 -0.0178374)
(-0.164665 0.190435 -0.0140834)
(-0.0849985 0.158584 -0.0141794)
(-0.0347267 0.133323 -0.0109937)
(-0.00170334 0.101944 -0.00584668)
(0.00347626 0.0505714 0.00272919)
(0.00460988 0.0053417 -0.00170916)
(0.0350503 0.0199009 -0.00987448)
(0.0762352 0.0598303 -0.0108793)
(0.0975465 0.115495 -0.0132518)
(0.0928577 0.18106 -0.0193047)
(0.0894057 0.253647 -0.0208592)
(0.0505472 0.313547 -0.0154662)
(-0.0101125 0.345034 -0.00142956)
(-0.0576419 0.385072 -0.00702235)
(-0.112147 0.419941 -0.0072226)
(-0.155727 0.460195 -0.00714064)
(-0.201787 0.500658 -0.00487346)
(-0.242544 0.53826 -0.000887225)
(-0.283876 0.569533 0.00329666)
(-0.316527 0.600842 0.0114725)
(-0.347351 0.624952 0.0164327)
(-0.358984 0.652886 0.0246334)
(-0.378324 0.668595 0.0275938)
(-0.348158 0.688013 0.0317371)
(-0.368104 0.698961 0.0178567)
(-0.352663 0.719922 0.0449887)
(-0.22847 0.613378 0.0602418)
(-0.209743 0.576516 0.0688873)
(-0.232727 0.509565 0.0774839)
(-0.25924 0.473667 0.0761452)
(-0.279776 0.435185 0.0744248)
(-0.297572 0.403177 0.0702164)
(-0.303206 0.368608 0.0616795)
(-0.304267 0.332776 0.0471641)
(-0.304546 0.298405 0.0296775)
(-0.302026 0.265537 0.0155691)
(-0.293235 0.236993 0.00159689)
(-0.27696 0.21606 -0.00535416)
(-0.263421 0.201222 -0.0122741)
(-0.266572 0.210103 -0.0196262)
(-0.215298 0.188968 -0.0201005)
(-0.120002 0.163529 -0.0203462)
(-0.050087 0.142592 -0.0156608)
(-0.00700642 0.110223 -0.00927283)
(0.00351149 0.0548222 0.00125164)
(0.00595665 0.0129327 -0.00406858)
(0.0427509 0.0393284 -0.0137308)
(0.0944913 0.0874214 -0.013867)
(0.118214 0.143417 -0.0119986)
(0.121348 0.202555 -0.0136516)
(0.104576 0.273532 -0.015144)
(0.0441073 0.301573 -0.00442537)
(-0.000584113 0.347577 0.00153068)
(-0.0302607 0.391344 -0.00252298)
(-0.0772633 0.442735 -0.000594164)
(-0.114709 0.484192 5.30864e-05)
(-0.152905 0.519671 0.00607496)
(-0.18492 0.54838 0.0119551)
(-0.211991 0.571524 0.0205205)
(-0.230644 0.593194 0.0247485)
(-0.253186 0.604392 0.0299067)
(-0.261843 0.614652 0.0337227)
(-0.275096 0.606662 0.0335329)
(-0.263653 0.611415 0.0312233)
(-0.269135 0.57008 0.0179576)
(-0.298396 0.593031 0.022578)
(-0.222386 0.488861 0.0429892)
(-0.183123 0.44175 0.045772)
(-0.216587 0.396229 0.0571457)
(-0.250125 0.370369 0.0591142)
(-0.283777 0.345204 0.0600786)
(-0.311612 0.323831 0.0607638)
(-0.330006 0.298483 0.0515106)
(-0.342708 0.27358 0.0396103)
(-0.349776 0.244395 0.0158595)
(-0.351971 0.213546 0.00514482)
(-0.341499 0.189032 -0.00450134)
(-0.325363 0.176141 -0.0125077)
(-0.300488 0.165095 -0.0147414)
(-0.304613 0.181966 -0.0234437)
(-0.262835 0.190211 -0.0196276)
(-0.155098 0.167012 -0.0206816)
(-0.068854 0.149534 -0.0153081)
(-0.011962 0.115108 -0.00878926)
(0.00400294 0.056513 0.00234231)
(0.00440649 0.0279538 -0.00668118)
(0.0509831 0.070983 -0.0172929)
(0.11462 0.126517 -0.0188705)
(0.144375 0.182083 -0.0134849)
(0.151458 0.243053 -0.0157006)
(0.116041 0.290796 -0.013906)
(0.0630627 0.32618 -0.00547889)
(0.0282423 0.380966 0.00216869)
(0.00121777 0.416257 0.00691598)
(-0.0312186 0.455761 0.00663618)
(-0.0669931 0.488553 0.0109709)
(-0.0967862 0.511915 0.0154522)
(-0.118572 0.528609 0.0245799)
(-0.137225 0.536595 0.0307675)
(-0.153601 0.53585 0.0340056)
(-0.171536 0.524883 0.0346909)
(-0.183623 0.513399 0.0338205)
(-0.199341 0.487929 0.0295129)
(-0.213302 0.473337 0.0227848)
(-0.214009 0.427427 0.0119507)
(-0.262017 0.434378 -0.00141064)
(-0.238449 0.381316 0.0183381)
(-0.183602 0.330091 0.023988)
(-0.210946 0.312238 0.0346788)
(-0.249323 0.296861 0.041128)
(-0.290211 0.282237 0.0457889)
(-0.326925 0.268721 0.0504073)
(-0.35374 0.249052 0.0440131)
(-0.376322 0.229164 0.0264513)
(-0.39422 0.197705 0.00769697)
(-0.396763 0.174125 -0.00244953)
(-0.383256 0.151103 -0.00787396)
(-0.36785 0.137268 -0.012274)
(-0.33564 0.136718 -0.022245)
(-0.320357 0.146384 -0.0259622)
(-0.291274 0.182917 -0.0290096)
(-0.19141 0.168848 -0.0237087)
(-0.0849133 0.157757 -0.0222211)
(-0.0174009 0.123095 -0.0114618)
(0.0048893 0.0612977 0.000402106)
(0.00631652 0.0446227 -0.00879952)
(0.0599111 0.108755 -0.0245148)
(0.133164 0.168258 -0.0236644)
(0.170424 0.222341 -0.015527)
(0.168431 0.275198 -0.0165659)
(0.134628 0.306111 -0.0162333)
(0.0944291 0.353704 -0.00525411)
(0.062553 0.396042 0.00579225)
(0.0342723 0.431686 0.0124759)
(0.0104074 0.454599 0.0227484)
(-0.0139759 0.474491 0.0197099)
(-0.0416828 0.483797 0.0296671)
(-0.0619225 0.48667 0.0354298)
(-0.0801332 0.473736 0.0411375)
(-0.0959439 0.451579 0.0425057)
(-0.115502 0.4222 0.0397612)
(-0.134132 0.393688 0.0340258)
(-0.153885 0.359532 0.026574)
(-0.179666 0.336292 0.017195)
(-0.184824 0.306498 0.00926746)
(-0.2352 0.300324 -0.0105295)
(-0.245209 0.288613 0.00282486)
(-0.187033 0.258794 0.0117023)
(-0.202806 0.256006 0.0199956)
(-0.244961 0.24514 0.0309229)
(-0.289495 0.237836 0.038583)
(-0.331003 0.223464 0.0471095)
(-0.366226 0.210179 0.0384229)
(-0.397548 0.184571 0.0279328)
(-0.413647 0.159253 0.0124296)
(-0.421458 0.133299 0.0122372)
(-0.41603 0.110143 0.0177334)
(-0.395915 0.0907934 0.0129371)
(-0.366352 0.0905766 0.00928452)
(-0.342041 0.101947 -0.012132)
(-0.313999 0.148335 -0.0239225)
(-0.221411 0.161044 -0.0227848)
(-0.104657 0.153808 -0.0183656)
(-0.0236916 0.126753 -0.0104474)
(0.00564441 0.0621911 0.00178521)
(0.00733864 0.0680391 -0.0110486)
(0.0689259 0.152375 -0.0301582)
(0.151594 0.215053 -0.0295028)
(0.192872 0.264677 -0.0183413)
(0.187418 0.300983 -0.0129993)
(0.159515 0.335169 -0.0151365)
(0.132115 0.37443 -0.00451395)
(0.10066 0.409275 0.00241512)
(0.07639 0.434871 0.0103457)
(0.0493544 0.452706 0.0251633)
(0.0239219 0.453935 0.0343501)
(0.00615209 0.449933 0.0438056)
(-0.011974 0.43466 0.0456385)
(-0.0359128 0.406733 0.047175)
(-0.0572807 0.375065 0.0471312)
(-0.0789986 0.335671 0.0420491)
(-0.103278 0.303423 0.0330621)
(-0.128073 0.272364 0.0228809)
(-0.158722 0.250406 0.0125301)
(-0.169187 0.234565 0.00414651)
(-0.215565 0.225539 -0.013793)
(-0.230949 0.226606 -0.00356742)
(-0.17655 0.222111 0.00560855)
(-0.190193 0.217095 0.0129441)
(-0.230694 0.207842 0.0257413)
(-0.278539 0.198126 0.0345288)
(-0.324538 0.187313 0.042623)
(-0.363416 0.168681 0.0380052)
(-0.399226 0.146931 0.0277009)
(-0.424961 0.119167 0.0344311)
(-0.441278 0.0860164 0.0356334)
(-0.443401 0.0599793 0.0193593)
(-0.429163 0.045242 0.0142998)
(-0.393339 0.0419944 0.0041987)
(-0.351292 0.0537606 0.000661187)
(-0.323389 0.097267 -0.0203822)
(-0.245589 0.136706 -0.0255649)
(-0.121932 0.147576 -0.0202119)
(-0.0272506 0.127102 -0.0118352)
(0.00506848 0.064287 0.000377968)
(0.00877544 0.0878273 -0.011489)
(0.0750209 0.192142 -0.0337811)
(0.165382 0.257547 -0.0323108)
(0.205729 0.295739 -0.0172618)
(0.205652 0.323855 -0.0112316)
(0.188951 0.356257 -0.00882161)
(0.165106 0.386385 -0.00583725)
(0.137133 0.408546 0.00567172)
(0.110793 0.426346 0.0117344)
(0.0856698 0.43025 0.0217529)
(0.0640894 0.428641 0.0305999)
(0.0401579 0.412211 0.0496826)
(0.0163349 0.383001 0.0529419)
(-0.00227423 0.34465 0.0534031)
(-0.0264032 0.306798 0.0464135)
(-0.053773 0.270239 0.0408842)
(-0.0787387 0.239794 0.0295933)
(-0.10643 0.216195 0.0186032)
(-0.137813 0.200553 0.00870222)
(-0.152499 0.195394 0.000541112)
(-0.197289 0.187776 -0.0147863)
(-0.205775 0.190939 -0.00505591)
(-0.155957 0.195805 0.00148441)
(-0.168927 0.183375 0.00905051)
(-0.207616 0.172038 0.0214044)
(-0.252684 0.158294 0.0308153)
(-0.300721 0.146644 0.0376639)
(-0.343008 0.127323 0.0326433)
(-0.383249 0.103993 0.0460094)
(-0.418358 0.0719016 0.0520541)
(-0.442055 0.0420799 0.0449614)
(-0.445988 0.0153269 0.0534253)
(-0.440397 -0.00760432 0.0398967)
(-0.420571 -0.0122481 0.0369863)
(-0.382775 -0.00454346 0.0263086)
(-0.341809 0.0413312 0.0105853)
(-0.258549 0.0942213 -0.0198091)
(-0.13808 0.129496 -0.0218731)
(-0.0343557 0.121186 -0.011076)
(0.00668192 0.0625768 0.000506612)
(0.00913071 0.108112 -0.0100122)
(0.0799381 0.231477 -0.0355308)
(0.171074 0.297382 -0.0344014)
(0.21764 0.326238 -0.0173624)
(0.228581 0.349955 -0.00532402)
(0.2171 0.374076 -0.000394526)
(0.194436 0.39399 0.00313854)
(0.168706 0.406628 0.00417272)
(0.145929 0.413238 0.0153456)
(0.120699 0.410923 0.0243296)
(0.0962193 0.39822 0.0333963)
(0.0704096 0.372525 0.040285)
(0.0451163 0.338707 0.0496064)
(0.0179609 0.297297 0.0534979)
(-0.00454727 0.253325 0.0469756)
(-0.0295963 0.220198 0.0368448)
(-0.0586575 0.194456 0.0258788)
(-0.0857379 0.176056 0.0145959)
(-0.114512 0.165198 0.00658012)
(-0.130578 0.164566 -0.00115845)
(-0.171395 0.156863 -0.0124227)
(-0.168228 0.163658 -0.00373403)
(-0.125551 0.167366 0.000537059)
(-0.142219 0.148741 0.00724586)
(-0.174711 0.133121 0.0192509)
(-0.21895 0.118045 0.0278869)
(-0.263889 0.101962 0.0320426)
(-0.308775 0.0835943 0.0468985)
(-0.356097 0.0560648 0.0574976)
(-0.396508 0.0288466 0.0583247)
(-0.426315 -0.00390063 0.0706373)
(-0.457216 -0.0422712 0.050445)
(-0.465402 -0.082425 0.0359081)
(-0.447374 -0.102904 0.0113327)
(-0.400958 -0.0926579 0.00418496)
(-0.359464 -0.0452439 0.00395921)
(-0.282623 0.0420223 0.00511567)
(-0.152478 0.0939481 -0.0247351)
(-0.0394053 0.107863 -0.0101063)
(0.00597304 0.0594012 -0.000353707)
(0.00872087 0.117048 -0.00900712)
(0.077953 0.256252 -0.0378954)
(0.17114 0.324861 -0.0382174)
(0.224203 0.351357 -0.0195959)
(0.246232 0.366043 -0.00171869)
(0.24089 0.378936 0.0067715)
(0.218767 0.389128 0.012671)
(0.193692 0.394893 0.0148019)
(0.171413 0.395202 0.0179645)
(0.147959 0.385682 0.0215445)
(0.12353 0.365468 0.0304896)
(0.0942495 0.333903 0.0382156)
(0.0642892 0.296903 0.0401485)
(0.0358903 0.254597 0.0439307)
(0.011005 0.216725 0.0439706)
(-0.0111703 0.179871 0.0333012)
(-0.0364855 0.161215 0.0212848)
(-0.0628988 0.144859 0.0115324)
(-0.0863887 0.135869 0.00502447)
(-0.102558 0.137662 -0.0018155)
(-0.135411 0.125345 -0.00921826)
(-0.122344 0.141332 -0.000894753)
(-0.0918301 0.134628 -0.00102548)
(-0.110257 0.111849 0.00660653)
(-0.13683 0.0936562 0.0154601)
(-0.174984 0.0733223 0.0240107)
(-0.217865 0.0584706 0.0348992)
(-0.263629 0.0368573 0.0501418)
(-0.310533 0.0158285 0.0565697)
(-0.35696 -0.0162881 0.0691336)
(-0.414985 -0.0592212 0.0537249)
(-0.459186 -0.109551 0.0436621)
(-0.477403 -0.151591 0.0283313)
(-0.464469 -0.183477 0.0147877)
(-0.423123 -0.185701 -0.00800644)
(-0.360015 -0.151664 -0.00660871)
(-0.288334 -0.0473921 -0.00379781)
(-0.177847 0.0522001 -0.0123321)
(-0.0452547 0.0893432 -0.0175854)
(0.00839634 0.0559654 0.000682182)
(0.00740162 0.124017 -0.00632749)
(0.0768159 0.277119 -0.0368479)
(0.170911 0.350722 -0.0395211)
(0.230394 0.374358 -0.0203745)
(0.259659 0.380927 0.000633412)
(0.258791 0.38071 0.014395)
(0.240899 0.382934 0.0237731)
(0.219195 0.382796 0.0260003)
(0.197953 0.378435 0.0286083)
(0.172108 0.363261 0.0291159)
(0.14474 0.338084 0.0299927)
(0.116023 0.302733 0.0274909)
(0.0852449 0.263389 0.0309205)
(0.0543029 0.22197 0.0312643)
(0.0258702 0.185868 0.034113)
(0.00613926 0.153831 0.029581)
(-0.0131668 0.129364 0.0162529)
(-0.0391851 0.117581 0.00833557)
(-0.0538527 0.109867 0.00399592)
(-0.0714466 0.10786 -0.00320112)
(-0.0892858 0.0967211 -0.00398619)
(-0.0720044 0.119053 0.000654508)
(-0.0616654 0.0982536 0.000929218)
(-0.0784667 0.0756745 0.00603766)
(-0.100692 0.052984 0.0139423)
(-0.132667 0.0332837 0.0208114)
(-0.168242 0.01668 0.0389027)
(-0.209439 -0.00300527 0.0467702)
(-0.260643 -0.0295617 0.0586319)
(-0.326121 -0.0693865 0.0515859)
(-0.387142 -0.116285 0.0473896)
(-0.439334 -0.1649 0.0365455)
(-0.473219 -0.213735 0.0239518)
(-0.476772 -0.254623 0.00734689)
(-0.442622 -0.274087 -0.0116901)
(-0.375838 -0.247044 -0.0193001)
(-0.28634 -0.165068 -0.0160736)
(-0.181497 -0.0158621 0.00365978)
(-0.0586521 0.0570682 -0.0175809)
(0.00614487 0.0464211 -0.000571281)
(0.00496434 0.108288 -0.00650765)
(0.0700068 0.274098 -0.0370764)
(0.164454 0.353807 -0.039006)
(0.228746 0.37865 -0.0195172)
(0.265361 0.380203 0.00408699)
(0.273086 0.376049 0.0175893)
(0.261728 0.373432 0.0246809)
(0.240166 0.365927 0.02836)
(0.216835 0.353078 0.0300811)
(0.190463 0.333854 0.0304357)
(0.162544 0.306926 0.0293992)
(0.130882 0.272772 0.0249583)
(0.0984213 0.233264 0.0202894)
(0.0681793 0.193708 0.0151765)
(0.0423185 0.159595 0.0173411)
(0.0193593 0.13356 0.018421)
(0.00584634 0.109854 0.0120354)
(-0.007481 0.0933609 0.0043282)
(-0.0214434 0.0851967 0.000725956)
(-0.0357464 0.0771634 -0.00435613)
(-0.0364222 0.0828295 0.000491645)
(-0.0284388 0.0845194 0.00141615)
(-0.0363695 0.0622271 0.00372169)
(-0.0498583 0.0386388 0.00632848)
(-0.0670998 0.0168398 0.0115715)
(-0.0900055 -0.00255249 0.0224123)
(-0.121679 -0.0233025 0.031617)
(-0.165074 -0.0504032 0.0432202)
(-0.221494 -0.0843191 0.043514)
(-0.281009 -0.123902 0.0446201)
(-0.343564 -0.166786 0.0402393)
(-0.403081 -0.219232 0.0345098)
(-0.446918 -0.273924 0.0231656)
(-0.466977 -0.326616 0.00838976)
(-0.447538 -0.359308 -0.0108603)
(-0.390412 -0.350563 -0.0242734)
(-0.288297 -0.274879 -0.0271892)
(-0.187912 -0.125907 -0.0159375)
(-0.0684914 0.0191654 -0.0125782)
(0.00754635 0.0344268 -0.00407172)
(0.00642108 0.108254 1.95609e-06)
(0.0701612 0.280225 -0.0291976)
(0.162628 0.364197 -0.0337849)
(0.232771 0.386705 -0.0135538)
(0.278839 0.383117 0.0110615)
(0.294883 0.370921 0.0187625)
(0.284262 0.361604 0.0276424)
(0.260884 0.347156 0.029159)
(0.237354 0.332189 0.0287937)
(0.210807 0.309016 0.0261544)
(0.182175 0.279634 0.0224844)
(0.150451 0.242135 0.0168933)
(0.11663 0.20274 0.0100726)
(0.0857442 0.163706 0.00619711)
(0.0610816 0.130697 0.00143215)
(0.0423609 0.104339 0.00481143)
(0.0261296 0.0861714 0.00195631)
(0.01409 0.0710225 -0.00157983)
(0.0106408 0.0681765 -0.00355862)
(0.0114672 0.0622869 -0.00304583)
(0.0068795 0.0665801 0.000389373)
(-0.000822431 0.0489731 0.00349517)
(-0.011851 0.028433 0.00553866)
(-0.0249727 0.00535083 0.00776129)
(-0.038145 -0.0146444 0.012398)
(-0.0607098 -0.0386747 0.0215259)
(-0.0932942 -0.0652878 0.0294193)
(-0.134812 -0.0953494 0.0320813)
(-0.18399 -0.12506 0.0354319)
(-0.240357 -0.160811 0.0358908)
(-0.30173 -0.203538 0.0360082)
(-0.361225 -0.25666 0.032601)
(-0.41104 -0.315947 0.0249647)
(-0.441986 -0.38 0.0114597)
(-0.437399 -0.428572 -0.00685311)
(-0.391332 -0.44364 -0.0235808)
(-0.297641 -0.382485 -0.0351441)
(-0.178069 -0.240592 -0.0266994)
(-0.0614571 -0.0454984 -0.00855156)
(-0.0028904 0.0169382 -0.00249665)
(-0.00378855 0.0808511 -0.0108148)
(0.0492579 0.261768 -0.0357321)
(0.144011 0.356186 -0.0417415)
(0.223057 0.382339 -0.0201306)
(0.279924 0.379783 -5.10749e-05)
(0.308314 0.360592 0.0131078)
(0.306878 0.343537 0.0206342)
(0.284387 0.321817 0.0222435)
(0.257841 0.300378 0.0200655)
(0.226073 0.279183 0.0165616)
(0.193264 0.255032 0.0125345)
(0.158156 0.225837 0.008812)
(0.125034 0.190949 0.00452268)
(0.0962594 0.15373 0.000383346)
(0.0752514 0.121507 -0.00244513)
(0.0598867 0.0963448 -0.00172571)
(0.0537558 0.0845572 -0.00319055)
(0.0555935 0.0756445 -0.00502922)
(0.0524016 0.0694296 -0.00663493)
(0.0471123 0.0535656 -0.00428928)
(0.0362288 0.0360289 -0.00236029)
(0.0206575 0.0147358 0.0013271)
(0.00772652 -0.00564957 0.00491773)
(-0.00359083 -0.0275192 0.0077245)
(-0.0180742 -0.0504543 0.0102459)
(-0.0411666 -0.0752469 0.014702)
(-0.0690488 -0.0999037 0.0182285)
(-0.102859 -0.128972 0.0213015)
(-0.147204 -0.160396 0.0230446)
(-0.199276 -0.200652 0.0252139)
(-0.255988 -0.244249 0.0267218)
(-0.31415 -0.300153 0.0264083)
(-0.366972 -0.362457 0.0218087)
(-0.406498 -0.435582 0.0119142)
(-0.416407 -0.497663 -0.00535644)
(-0.383457 -0.52906 -0.0208054)
(-0.299423 -0.486988 -0.0442381)
(-0.186797 -0.35966 -0.0393251)
(-0.061345 -0.140033 -0.00993954)
(0.0023234 -0.00264737 0.000798619)
(-0.00326179 0.144357 0.000824792)
(0.0449672 0.340769 -0.0132899)
(0.132187 0.439644 -0.0230059)
(0.213878 0.462224 -0.00470714)
(0.279921 0.452261 0.00174098)
(0.315137 0.419558 0.0164593)
(0.318097 0.387033 0.0231624)
(0.295695 0.363463 0.025623)
(0.276247 0.354225 0.0225887)
(0.253261 0.342437 0.0169466)
(0.222556 0.322304 0.00996138)
(0.183906 0.292015 0.00364857)
(0.142634 0.252767 -0.00117837)
(0.11074 0.210569 -0.00398733)
(0.0925812 0.172693 -0.00685994)
(0.0895822 0.139594 -0.00605683)
(0.0864973 0.114432 -0.00376174)
(0.0792364 0.0893598 -0.00900606)
(0.069657 0.0622803 -0.0129495)
(0.0596765 0.0344672 -0.00842782)
(0.0493448 0.0085371 -0.00357695)
(0.0377878 -0.0153295 0.00200998)
(0.0256673 -0.0340367 0.00527614)
(0.0107593 -0.0571512 0.00639412)
(-0.00254951 -0.0822182 0.00803608)
(-0.0218465 -0.108019 0.00833206)
(-0.0502383 -0.129555 0.00857843)
(-0.0861582 -0.156904 0.00917481)
(-0.129313 -0.183169 0.011793)
(-0.175022 -0.21686 0.0157492)
(-0.223441 -0.256463 0.019763)
(-0.273202 -0.312808 0.0217984)
(-0.323547 -0.380371 0.0204066)
(-0.366377 -0.464359 0.01303)
(-0.382174 -0.546779 -0.00275348)
(-0.361153 -0.612301 -0.0245756)
(-0.301902 -0.611535 -0.0528363)
(-0.19312 -0.481156 -0.0524086)
(-0.0512424 -0.262997 -0.0260095)
(0.00883436 -0.0529427 -0.00297762)
(-0.0178267 0.216161 -0.0161944)
(0.0156169 0.454021 -0.0351614)
(0.10055 0.564042 -0.0428008)
(0.184 0.601313 -0.0262905)
(0.25326 0.591349 -0.0171564)
(0.298455 0.556583 0.00273467)
(0.324107 0.50985 0.0107088)
(0.331904 0.475308 0.0109891)
(0.319603 0.450579 0.0029351)
(0.279432 0.417836 -0.00354226)
(0.231985 0.376838 -0.00813354)
(0.180953 0.329598 -0.0105797)
(0.137134 0.27874 -0.0121287)
(0.108202 0.234204 -0.0135382)
(0.0924659 0.193273 -0.0153794)
(0.0856474 0.154313 -0.0152997)
(0.0851585 0.112395 -0.013316)
(0.0837473 0.0779366 -0.00780246)
(0.0764255 0.04422 -0.00983146)
(0.0711583 0.017236 -0.00800936)
(0.062482 -0.00775329 -0.00591462)
(0.0524369 -0.030463 3.16e-05)
(0.0394573 -0.0514286 0.00149647)
(0.0221418 -0.0748926 0.00418664)
(0.00715363 -0.1009 0.0068537)
(-0.00819434 -0.132931 0.0079296)
(-0.0306147 -0.160299 0.00546654)
(-0.0579066 -0.189648 0.0030547)
(-0.0921411 -0.217412 -0.00075149)
(-0.134826 -0.25445 -0.00399387)
(-0.185191 -0.294614 -0.00486835)
(-0.236812 -0.352818 -0.00397439)
(-0.286552 -0.417743 -0.00207011)
(-0.33343 -0.508611 -0.00388839)
(-0.368241 -0.603911 -0.0142262)
(-0.372998 -0.704946 -0.0285528)
(-0.300907 -0.734017 -0.0510913)
(-0.217337 -0.632499 -0.0716841)
(-0.0797474 -0.355993 -0.0300666)
(0.0171925 -0.0926731 -0.00106333)
(-0.00140252 0.1823 0.00617486)
(0.0314022 0.42309 -0.0314683)
(0.10166 0.547185 -0.0433243)
(0.184646 0.60176 -0.0390105)
(0.252886 0.602338 -0.0304658)
(0.298141 0.578294 -0.0165502)
(0.321388 0.533191 -0.00666161)
(0.321723 0.485772 -0.00153326)
(0.304253 0.433562 -0.00517412)
(0.266293 0.386954 -0.00674067)
(0.222187 0.341189 -0.00841784)
(0.175269 0.295912 -0.00896599)
(0.137369 0.252188 -0.0102664)
(0.114422 0.213418 -0.0116177)
(0.0998864 0.176128 -0.0129823)
(0.09332 0.13982 -0.0128903)
(0.091807 0.104812 -0.0119237)
(0.0903583 0.0669118 -0.0108631)
(0.0856936 0.0363691 -0.00690173)
(0.0817587 0.00817049 -0.00548244)
(0.0735124 -0.0170734 -0.00555603)
(0.0643676 -0.0413375 -0.00507252)
(0.0505934 -0.060462 -0.00260585)
(0.0309699 -0.0816214 0.00137738)
(0.0108679 -0.102947 0.00571294)
(-0.00623339 -0.132282 0.0101952)
(-0.0258931 -0.160477 0.00993988)
(-0.0525449 -0.192402 0.00801919)
(-0.0881966 -0.222335 0.00476139)
(-0.123624 -0.266101 0.00275493)
(-0.162479 -0.314842 0.000571731)
(-0.199694 -0.386881 -0.00155288)
(-0.242553 -0.474248 -0.00572886)
(-0.286062 -0.600471 -0.0102266)
(-0.326158 -0.73158 -0.0157577)
(-0.341446 -0.856264 -0.0244823)
(-0.295663 -0.912536 -0.0439271)
(-0.191925 -0.861681 -0.0596719)
(-0.0722585 -0.558426 -0.0579565)
(-0.00527605 -0.181514 0.0129033)
(-0.0035477 0.19719 0.00068739)
(0.025489 0.412553 -0.029205)
(0.0877413 0.53508 -0.0401115)
(0.161539 0.587501 -0.0377271)
(0.226806 0.589425 -0.0214458)
(0.275093 0.562103 -0.0140415)
(0.306199 0.516666 -0.00368429)
(0.313268 0.470013 0.00132359)
(0.300523 0.420904 -0.000502196)
(0.266128 0.377163 -0.00223943)
(0.21954 0.333776 -0.00425413)
(0.172691 0.290439 -0.00586576)
(0.137851 0.250857 -0.00846965)
(0.116771 0.212616 -0.0104289)
(0.103345 0.176256 -0.0114621)
(0.0979771 0.140533 -0.0110741)
(0.0939296 0.105763 -0.0112703)
(0.0940924 0.067158 -0.0092121)
(0.0931052 0.0326502 -0.00979126)
(0.0899207 0.00350487 -0.00749111)
(0.0825293 -0.0207809 -0.00653565)
(0.0768327 -0.0455412 -0.00683184)
(0.0662201 -0.0638353 -0.0066103)
(0.0470167 -0.0822385 -0.00422197)
(0.0253071 -0.0990641 0.000448246)
(0.00597944 -0.120151 0.00580806)
(-0.013938 -0.14222 0.00865511)
(-0.0347526 -0.168099 0.0100064)
(-0.0681162 -0.187977 0.00805092)
(-0.109569 -0.214082 0.00750217)
(-0.158292 -0.246834 0.00946)
(-0.208805 -0.306492 0.0124363)
(-0.266576 -0.386745 0.0157928)
(-0.312741 -0.513324 0.0176587)
(-0.330581 -0.667067 0.011287)
(-0.331634 -0.838293 0.00319)
(-0.29185 -0.960995 -0.0137413)
(-0.197092 -0.982772 -0.041262)
(-0.048534 -0.757104 -0.0511306)
(0.0238158 -0.314582 -0.0125223)
(0.000110518 0.181694 -0.000621999)
(0.0307934 0.379672 -0.0227545)
(0.0868845 0.507722 -0.0344888)
(0.154945 0.565484 -0.0331647)
(0.216099 0.57824 -0.0215374)
(0.259968 0.555867 -0.0116683)
(0.292352 0.513487 -0.00134639)
(0.29933 0.463859 0.00370236)
(0.286148 0.411598 0.00213317)
(0.255363 0.36244 -0.000263842)
(0.212138 0.317154 -0.00298467)
(0.171033 0.276294 -0.00523744)
(0.140927 0.240817 -0.00809197)
(0.123311 0.20581 -0.0096996)
(0.112111 0.173351 -0.0109204)
(0.106848 0.139697 -0.0111055)
(0.101072 0.105723 -0.0105047)
(0.0969763 0.0696912 -0.0106663)
(0.0979283 0.0318153 -0.0092741)
(0.100388 -0.000190389 -0.0103229)
(0.0934423 -0.0215479 -0.0106486)
(0.0883908 -0.0447752 -0.00926364)
(0.080205 -0.063483 -0.0070361)
(0.0623553 -0.0821343 -0.006058)
(0.0408461 -0.0983694 -0.00387459)