/*--------------------------------*- C++ -*----------------------------------*\
| =========                 |                                                 |
| \\      /  F ield         | OpenFOAM: The Open Source CFD Toolbox           |
|  \\    /   O peration     | Version:  v1806                                 |
|   \\  /    A nd           | Web:      www.OpenFOAM.com                      |
|    \\/     M anipulation  |                                                 |
\*---------------------------------------------------------------------------*/
FoamFile
{
    version     2.0;
    format      ascii;
    class       vectorField;
    location    "0.1255";
    object      currentcloudofpoints;
}
// * * * * * * * * * * * * * * * * * * * * * * * * * * * * * * * * * * * * * //


2409
(
(1.23997 1.53232 1.43533)
(0.772565 1.14864 0.95365)
(1.17829 1.30079 1.03877)
(1.49139 1.56627 0.846482)
(1.33007 1.76171 1.20742)
(1.16835 1.36664 0.981726)
(1.49368 1.31869 1.29838)
(0.500251 1.15949 0.575341)
(1.55722 0.976128 0.99616)
(0.709537 1.04052 0.604214)
(1.1649 1.19938 1.48244)
(1.41251 1.1717 1.44299)
(1.64587 1.26705 1.37092)
(1.34687 1.58081 1.28168)
(1.43879 1.17271 1.26468)
(1.32921 1.21398 1.36417)
(1.44494 1.14603 1.43809)
(1.20121 1.54497 0.877219)
(1.65837 1.31484 1.38062)
(1.5066 1.19238 1.45889)
(0.544522 1.18877 1.1189)
(0.582246 1.47468 1.15708)
(1.4393 1.34214 1.52666)
(1.4019 1.53876 1.07706)
(0.575671 1.26159 1.053)
(0.683513 1.0641 1.52659)
(0.438877 1.06242 1.21533)
(0.837207 1.38311 1.63646)
(1.09231 1.21284 1.43614)
(1.10563 1.36582 0.746052)
(1.35512 1.12237 0.708891)
(1.46513 1.35499 0.601867)
(1.28341 1.19527 0.713513)
(1.06483 1.25931 0.88772)
(1.23349 1.18575 0.608501)
(1.54748 1.17547 0.755695)
(1.45363 1.36399 0.601753)
(1.44864 1.27315 0.602202)
(0.922253 1.26073 0.394288)
(0.573288 1.13402 0.607005)
(1.00834 1.2618 0.949829)
(0.925118 0.87659 0.844158)
(1.37709 1.41832 0.735785)
(1.33356 1.25999 0.668316)
(0.669436 1.06597 0.643237)
(0.693808 1.3099 0.601835)
(0.639738 1.3264 0.610329)
(1.44187 1.56527 1.08418)
(1.27923 1.30884 1.52082)
(1.23135 1.41018 1.59514)
(1.09675 1.25262 0.999008)
(1.46485 1.59144 1.18801)
(1.44319 1.50744 1.44872)
(1.15445 1.23333 1.4107)
(1.62003 1.27721 1.09055)
(1.06121 1.35265 1.4137)
(1.12733 1.0119 0.972248)
(1.30973 1.6249 0.554182)
(1.23808 1.79851 0.817848)
(1.13595 1.57176 0.506583)
(1.30298 1.54212 0.924)
(1.38953 1.19604 0.814067)
(0.97887 1.39735 1.02532)
(1.05306 1.19941 0.94108)
(1.50013 1.32963 0.649904)
(1.02808 0.789631 1.17938)
(1.35112 1.50456 1.15274)
(1.33168 1.44268 1.3762)
(1.18941 1.42508 0.839324)
(1.23606 1.46683 1.3156)
(0.558895 1.20685 1.06153)
(1.42857 1.5508 1.03757)
(1.0807 1.08184 1.14349)
(1.10159 1.71188 0.749828)
(1.22552 1.43262 0.975595)
(1.74629 1.28366 1.22659)
(1.72315 1.11984 1.26053)
(1.33362 1.21532 1.16393)
(1.18457 1.21723 1.00562)
(1.69586 1.46076 1.31758)
(1.72013 1.0915 1.23453)
(1.80007 1.32204 1.18435)
(1.2355 1.2576 1.07563)
(0.508179 1.19771 1.33545)
(0.392527 1.36732 1.27753)
(0.64159 1.16761 1.56562)
(1.16352 1.41816 1.62437)
(1.01271 1.10163 1.62823)
(0.972742 1.02214 1.53264)
(1.48609 1.1602 1.5302)
(0.585539 1.26427 1.45595)
(0.372643 1.25016 1.35432)
(0.470638 1.48422 1.34762)
(0.825013 1.577 1.40126)
(1.0095 1.05545 1.54905)
(0.992968 1.31792 1.2872)
(1.13972 1.6267 1.38811)
(1.15578 1.24627 1.48291)
(1.02252 1.10357 1.38634)
(1.29062 1.15214 1.60737)
(1.28011 1.1912 1.54364)
(1.4304 1.13473 1.30579)
(1.41273 1.16763 1.33011)
(1.4406 1.07163 1.13293)
(1.5407 0.998935 1.1068)
(1.37931 1.13688 1.59699)
(1.27047 1.087 1.49468)
(1.29424 1.16335 1.58678)
(1.39331 1.11722 1.33359)
(1.42647 1.14225 1.32327)
(1.3871 1.14257 1.13534)
(1.49352 1.03372 1.12784)
(1.55541 0.974413 1.05732)
(0.88346 0.88629 0.705407)
(0.576416 1.41092 1.00115)
(0.520516 1.29263 0.453434)
(0.640221 1.61821 0.830122)
(0.822431 1.2402 0.817073)
(1.1076 1.06563 0.409343)
(1.02028 1.04279 0.382663)
(0.972556 1.12155 0.945929)
(1.10878 1.25253 0.381521)
(0.949488 1.50001 0.847868)
(1.10795 1.04008 1.10326)
(1.03281 0.917374 0.520001)
(1.06289 1.03778 0.77093)
(1.13995 1.05612 0.434089)
(1.02771 1.20167 0.385027)
(1.5335 0.999215 0.885669)
(1.4459 1.05671 0.849932)
(1.31154 1.14279 0.830723)
(1.14116 1.42226 0.725186)
(1.21436 1.15864 0.734641)
(1.30124 1.15907 0.733511)
(1.12445 1.17407 0.533734)
(1.54664 0.981963 0.937565)
(1.49124 1.03175 0.860372)
(1.38026 1.09322 0.840407)
(1.03696 1.20932 0.855957)
(1.17959 1.12791 0.723086)
(1.2025 1.15439 0.723842)
(1.25191 1.15133 0.728647)
(1.20214 1.17248 0.403814)
(1.42574 1.62473 1.31163)
(1.20699 1.59113 1.38679)
(0.91783 1.42542 1.06507)
(1.20221 1.53437 1.0662)
(0.665449 1.31165 1.19824)
(0.859038 0.877529 1.12832)
(1.45622 1.18834 1.1933)
(1.37523 1.79033 1.17101)
(1.07485 1.38413 1.01319)
(1.33252 1.28223 0.569725)
(1.14377 1.39316 1.12216)
(1.25663 1.58777 1.03134)
(1.1101 1.36124 1.63897)
(0.979575 1.134 1.54274)
(1.56306 1.19209 1.22759)
(1.40017 1.70232 0.606933)
(1.30343 1.65907 0.690293)
(1.4486 1.60901 0.805132)
(1.42764 1.46884 0.853117)
(1.14177 1.52202 0.648164)
(1.09765 0.948032 0.699993)
(0.797854 1.41652 0.381485)
(1.11887 1.68647 0.992445)
(1.29521 1.71891 0.699394)
(1.28354 1.64615 0.723435)
(1.40032 1.59963 0.820728)
(1.07285 1.49207 0.669729)
(1.08122 1.51095 0.418223)
(1.20763 1.16546 0.405877)
(1.21815 1.18682 0.407472)
(0.769247 1.09032 0.586634)
(1.15813 1.38764 0.834898)
(1.1238 1.54722 1.37089)
(1.31229 1.59731 0.853312)
(1.4662 1.21342 1.37546)
(1.05343 1.59352 1.20765)
(1.13758 1.03824 1.16986)
(0.995935 1.70366 0.801019)
(0.946283 1.48304 0.829114)
(1.19289 1.70678 0.845691)
(0.706111 1.32857 0.456295)
(1.62423 1.48647 1.34794)
(1.51305 1.19653 1.30982)
(1.14883 1.25558 0.965957)
(1.10974 1.06965 1.16705)
(0.958786 1.36958 0.975943)
(1.34151 1.39593 1.1516)
(1.38716 1.4294 0.982913)
(1.65255 1.30162 1.04539)
(1.65386 1.21026 1.12561)
(1.60063 1.21562 1.09948)
(1.55916 1.09881 1.01476)
(1.53182 1.25593 1.40611)
(1.0832 1.33788 1.48213)
(1.67776 1.38857 1.32222)
(1.3732 1.43055 0.995726)
(1.71339 1.10311 1.1504)
(1.62428 1.23842 1.11016)
(1.55951 1.14831 1.03611)
(1.56348 1.03003 1.00008)
(1.14468 1.53115 0.517803)
(1.15429 1.16592 0.61097)
(1.32142 1.1864 0.692052)
(1.29399 1.08899 1.35083)
(1.38724 1.72063 1.1735)
(1.19342 1.12782 1.4538)
(0.869815 1.0948 0.92296)
(0.697186 1.19807 0.48287)
(0.608646 1.44802 0.767766)
(1.24457 1.29287 0.955357)
(1.20335 1.37122 0.982226)
(1.45135 1.0799 0.992643)
(1.54229 1.53638 1.03168)
(1.5707 1.58967 1.15294)
(1.52765 1.7668 1.08023)
(1.67416 1.08941 1.29768)
(1.08732 1.54019 1.34524)
(1.52877 1.13521 1.19756)
(1.58567 1.04921 1.15475)
(1.59853 1.04874 1.31169)
(1.16649 1.77627 1.37167)
(1.64124 1.3696 1.01464)
(1.70916 1.49318 1.09847)
(1.22403 1.31748 0.740703)
(1.74881 1.25839 1.06133)
(1.69728 1.03887 1.2426)
(1.29172 1.29052 0.777614)
(1.63926 1.19171 1.17607)
(1.60858 1.09462 1.30088)
(1.71303 1.06292 1.18073)
(1.18158 1.81674 1.1634)
(1.21857 1.10882 1.45404)
(1.16569 1.25985 1.19963)
(1.40423 1.42829 1.02299)
(1.43975 1.11697 1.16578)
(1.53965 1.64931 1.15723)
(1.07994 1.41224 1.0439)
(1.59108 1.67154 1.03669)
(1.54718 1.24754 1.2311)
(1.6576 1.35106 1.25782)
(1.18503 1.82773 1.08685)
(1.2259 1.11824 1.4796)
(1.57699 1.08036 1.08254)
(1.5123 1.70032 1.03774)
(0.999314 1.63805 0.659589)
(1.62171 1.28055 1.29665)
(1.6698 1.29506 0.981626)
(1.80408 1.39172 1.18556)
(1.22554 1.09827 1.44097)
(1.26185 1.21692 1.53455)
(1.25635 1.16129 1.54753)
(1.1133 1.14185 1.48999)
(1.10965 1.1495 1.4435)
(1.43416 1.14044 1.25931)
(1.43103 1.17792 1.20688)
(1.48421 1.25667 1.21177)
(1.44944 1.18902 1.2008)
(1.47724 1.20208 1.21873)
(1.63476 1.15837 1.32846)
(1.45794 1.1959 1.20442)
(1.41152 1.18319 1.17851)
(1.59117 1.23085 1.28466)
(1.40507 1.16992 1.17378)
(1.41742 1.12208 1.13206)
(1.50686 1.21075 1.17009)
(1.50168 1.05073 1.1481)
(1.55357 1.04707 1.12307)
(1.48714 1.05172 1.18341)
(1.56635 1.02534 1.09201)
(1.56917 1.01141 1.03714)
(1.5856 1.09107 1.12123)
(1.56596 1.08774 1.04909)
(1.51257 1.55749 1.24518)
(1.43014 1.62151 1.23378)
(1.18365 1.79543 1.09618)
(1.46658 1.65464 1.21235)
(1.43269 1.73809 1.21992)
(1.33488 1.70624 1.10684)
(1.36008 1.77326 1.08978)
(1.40316 1.72004 1.22617)
(1.69238 1.47776 1.06175)
(1.68538 1.3062 1.00088)
(1.14907 1.62764 1.48421)
(1.7565 1.0979 1.21767)
(1.67929 1.28641 1.0753)
(1.77722 1.45598 1.22756)
(1.65421 1.222 1.17733)
(1.66359 1.16412 1.17302)
(1.74361 1.10691 1.25416)
(1.57745 1.13874 1.07753)
(1.62179 1.20228 1.13494)
(1.65035 1.15672 1.17923)
(1.60113 1.13421 1.11524)
(1.33977 1.76364 1.2356)
(1.31176 1.75245 1.1124)
(1.28861 1.69745 1.04066)
(1.59271 1.56993 1.0955)
(1.54639 1.77439 1.12393)
(1.34022 1.7498 1.10555)
(1.51427 1.50474 1.08892)
(1.71789 1.36514 0.961777)
(1.58592 1.42202 1.07855)
(1.41369 1.40167 1.54171)
(1.61427 1.18632 1.30763)
(1.64106 1.29604 1.43061)
(1.24005 1.23451 1.52987)
(1.59145 1.16205 1.27473)
(1.73285 1.29192 1.08326)
(1.42695 1.47103 0.982155)
(1.17432 1.40417 1.07696)
(1.06246 1.134 1.17254)
(1.0599 1.55656 1.41856)
(1.04156 1.10939 1.12323)
(1.66871 1.46706 1.04)
(1.6944 1.13564 1.29778)
(1.70274 1.05587 1.25741)
(1.61619 1.35769 1.12215)
(1.72088 1.42167 1.07261)
(1.65271 1.2006 1.32565)
(1.70378 1.38004 1.22642)
(1.63591 1.05946 1.29963)
(1.6797 1.04837 1.2668)
(1.64499 1.04741 1.29083)
(1.70255 1.04513 1.20649)
(1.65948 1.41262 1.25478)
(1.60143 1.57348 1.3972)
(1.24116 1.80037 1.18733)
(1.26942 1.82299 1.18081)
(1.33548 1.7819 1.28283)
(1.1475 1.75594 1.05279)
(1.1647 1.7708 1.08719)
(0.922248 1.39787 0.975045)
(1.07451 1.45103 1.29939)
(1.18064 1.51966 1.26516)
(0.996802 1.32806 0.980391)
(1.17328 1.62797 1.14274)
(1.32101 1.31665 0.588163)
(1.2277 1.39171 1.17137)
(0.874149 1.43066 1.01488)
(1.20857 1.22362 0.661665)
(0.99878 1.46454 1.12143)
(0.887905 1.43359 1.07114)
(1.12853 1.55808 0.797222)
(1.07515 1.48783 1.51207)
(1.05767 1.32888 0.990072)
(1.18039 1.12284 1.4965)
(1.45631 1.16503 1.19708)
(1.48819 1.18696 1.19805)
(1.25976 1.1209 1.51008)
(1.21507 1.2129 0.998197)
(1.27301 1.65261 1.29881)
(0.991304 1.43156 1.10145)
(1.35041 1.76874 1.11762)
(1.53013 1.635 1.08838)
(1.4226 1.27344 1.29037)
(1.57628 1.4264 1.07412)
(1.61434 1.09922 1.14818)
(1.0376 1.11974 1.11144)
(1.01845 1.07971 1.10698)
(0.907082 1.64145 1.24397)
(0.848139 1.51616 1.17149)
(1.66539 1.60158 1.08194)
(1.63156 1.0285 1.19675)
(1.57556 1.02216 1.23228)
(1.50183 1.04547 1.22768)
(1.6519 1.06913 1.17024)
(1.59161 1.05306 1.27757)
(1.64427 1.41496 1.13923)
(1.58196 1.1725 1.19339)
(1.24153 1.77062 1.27096)
(1.57011 1.56009 1.36474)
(1.3912 1.42708 1.09477)
(1.59839 1.36879 1.32446)
(1.75812 1.29534 1.06346)
(1.62416 1.33197 1.07281)
(1.3744 1.40384 1.22444)
(1.61172 1.12082 1.2567)
(1.08007 1.24081 1.56554)
(0.596914 1.50854 1.35762)
(1.11461 1.1472 1.07284)
(0.539524 1.36656 1.33816)
(0.635352 1.50884 1.45925)
(1.09064 1.40784 1.60626)
(0.492833 0.929347 1.28969)
(1.29989 1.34989 0.621283)
(1.23167 1.07045 1.57112)
(1.27375 1.32094 1.5142)
(0.610178 1.26695 1.41144)
(0.960224 1.33672 0.978171)
(0.835141 1.24553 1.48129)
(0.799167 1.2762 1.14899)
(1.12931 1.50712 1.56946)
(0.842093 1.52627 1.03179)
(0.360362 1.35074 1.27)
(1.06082 1.18963 1.62393)
(0.329434 1.0989 1.09114)
(0.716282 1.19015 1.62455)
(1.09955 1.24746 1.60615)
(1.01935 1.68771 1.38279)
(1.12497 1.44827 1.60642)
(0.814196 1.26451 1.42307)
(0.564842 1.27757 1.40225)
(1.31946 1.61176 1.06271)
(1.29268 1.41206 1.14111)
(0.597898 1.52289 1.39806)
(0.92355 1.1438 1.45053)
(0.972272 1.0471 1.32107)
(0.493651 1.35427 1.37684)
(0.769138 1.07313 1.46321)
(1.06077 1.0015 1.09867)
(1.38183 1.07046 1.48951)
(0.804153 1.28832 0.890774)
(0.828541 1.35208 1.13335)
(1.37445 1.49393 1.38796)
(0.440931 0.916147 1.15364)
(0.41317 1.04651 1.13608)
(0.696558 1.21022 1.38682)
(0.821984 1.35731 1.33311)
(0.315248 1.12814 0.959595)
(0.416932 1.36353 1.31836)
(0.387442 1.3802 1.25492)
(0.637223 1.07862 1.29157)
(0.300901 1.24788 1.06254)
(0.317521 1.09457 1.05164)
(0.388901 1.37409 1.26435)
(1.00923 1.03371 1.57231)
(1.52433 1.54419 1.03817)
(1.10107 1.16685 1.67231)
(1.06666 1.09245 1.52821)
(0.876819 1.14245 1.10774)
(1.57726 1.14831 1.22029)
(1.52301 1.08654 1.2125)
(1.19436 1.46043 1.62916)
(0.889594 1.62819 1.15661)
(0.831629 1.57189 1.13736)
(0.695781 1.50149 1.47617)
(0.876258 1.66905 0.998265)
(0.930665 1.59136 1.22043)
(0.636771 1.37511 1.34991)
(0.582453 1.42422 1.31761)
(1.25325 1.64315 1.39108)
(0.802694 1.51456 1.588)
(0.680587 1.41242 1.22792)
(1.04543 1.6233 1.2)
(0.814683 1.22892 1.23719)
(0.592053 1.05394 1.2587)
(0.332253 1.15231 1.14269)
(0.528261 1.37937 1.46075)
(0.551917 1.3042 1.45103)
(1.21076 1.45315 0.841485)
(0.822774 1.22243 0.738408)
(0.73839 1.53888 1.47279)
(1.25637 1.45111 1.24033)
(0.903057 1.68961 0.972653)
(1.19028 1.5727 1.37345)
(1.34019 1.52774 0.774577)
(1.10007 1.37349 1.00207)
(1.04646 1.23859 1.57584)
(1.02768 1.29439 1.42445)
(1.49164 1.648 1.02668)
(1.12904 1.46072 1.59086)
(1.16395 1.54012 1.40827)
(1.1099 1.4404 1.60299)
(1.08285 1.46684 1.59259)
(1.12261 1.32069 1.58134)
(1.05375 1.42773 1.58258)
(0.69297 1.35159 1.38506)
(1.04459 1.16157 1.66739)
(0.714717 1.30187 1.21305)
(1.02068 1.18692 1.60983)
(0.959099 1.04171 1.31828)
(1.04479 1.19438 1.602)
(1.08891 1.21668 1.59347)
(1.04409 1.19703 1.60905)
(0.98472 1.12891 1.48857)
(1.07631 1.24973 1.60509)
(1.28837 1.63568 1.33597)
(1.21409 1.54998 1.06011)
(1.16946 1.35766 1.60714)
(1.16468 1.45007 1.59922)
(1.15308 1.40127 1.61351)
(1.12782 1.35652 1.61539)
(0.871877 1.47216 1.01677)
(1.2317 1.63364 1.35835)
(1.01095 1.10527 1.52433)
(0.893539 1.08884 1.10296)
(1.04142 1.33792 1.15721)
(0.961395 1.04477 1.32119)
(1.2036 1.15075 1.50124)
(0.991093 1.1561 1.27622)
(1.14251 1.20496 1.62539)
(0.869846 1.34241 1.15224)
(1.10945 1.40085 1.62925)
(1.26655 1.5491 1.2818)
(0.580093 1.31776 1.27164)
(0.881333 1.4528 1.57508)
(1.13176 0.874442 1.11882)
(0.595443 1.31906 1.12889)
(1.20342 1.45853 1.39951)
(1.23331 1.21562 0.983995)
(0.648445 1.23034 1.37699)
(1.28598 1.33951 0.638775)
(1.18298 1.77816 1.1439)
(1.42847 1.62199 1.30205)
(1.30447 1.44151 1.33379)
(1.05753 1.71191 1.25309)
(1.10528 1.2976 1.58881)
(1.03721 1.1771 1.52569)
(0.65333 1.44998 1.23841)
(0.766995 1.34354 1.62433)
(0.970731 1.64681 1.1882)
(0.915371 0.948222 0.668697)
(0.835084 1.67014 1.20128)
(0.935554 1.25312 1.13833)
(1.1049 1.79531 1.32869)
(1.43644 1.63322 1.16273)
(1.35339 1.45519 0.693816)
(1.24535 1.48215 1.3027)
(0.624135 1.29869 1.09966)
(0.788795 1.4484 1.62693)
(0.79262 1.31066 1.45967)
(1.31023 1.31702 1.26658)
(0.787483 1.36403 1.09071)
(0.960854 1.34723 1.40668)
(0.960365 1.38858 1.36466)
(1.13334 1.35647 0.757139)
(0.789746 1.3904 1.55497)
(0.953576 1.34073 1.63277)
(0.763908 1.18885 1.46823)
(0.776957 1.27181 1.44627)
(0.836362 1.58396 1.54715)
(0.980115 1.09442 1.44576)
(1.11245 1.3237 1.60783)
(0.647224 1.44259 1.22097)
(1.20406 1.0833 1.18062)
(0.921614 1.22599 1.19421)
(0.979238 1.40718 0.918985)
(1.18078 1.68114 1.36509)
(0.517238 1.48484 1.33665)
(0.63441 1.35505 1.42405)
(0.583969 1.49908 1.38723)
(1.1257 1.34672 1.21975)
(0.869457 1.31999 0.871322)
(0.70394 1.21253 1.62549)
(0.875825 1.15343 1.21929)
(0.616283 1.19708 1.56797)
(0.441819 1.53745 0.807118)
(1.07409 1.59134 0.811555)
(1.00062 0.947557 0.735388)
(0.445132 1.36917 0.648896)
(1.34386 1.54025 0.880834)
(1.1361 1.65716 0.76921)
(1.13336 1.71615 0.876765)
(1.0062 1.36754 0.411014)
(0.544365 1.16498 0.491923)
(1.46253 1.53097 0.895376)
(1.41366 1.5047 0.92809)
(0.948539 1.72692 0.661796)
(0.878606 1.63607 0.753554)
(0.41557 1.48114 0.81438)
(0.475812 1.19595 0.54182)
(1.2585 1.78043 0.687285)
(0.796984 1.37472 0.408584)
(0.471094 1.29918 0.656452)
(1.10534 1.09914 0.831489)
(0.774655 1.23316 0.525722)
(0.638335 1.55361 0.836283)
(0.440784 1.51777 0.606726)
(0.731144 1.50411 0.857721)
(0.961311 1.18267 0.855714)
(1.24569 1.68261 0.831542)
(0.88992 1.26562 0.589202)
(0.518711 1.13693 0.54325)
(1.20577 1.1537 0.958741)
(1.02414 1.55043 0.482358)
(0.693304 1.63723 0.930626)
(0.911848 1.33104 0.342611)
(1.25151 1.39568 0.577922)
(1.38139 1.74235 0.610325)
(0.846895 1.3817 0.406381)
(0.915408 1.57975 0.478399)
(1.30656 1.33858 0.388831)
(0.493292 1.49898 0.945826)
(0.447082 1.35604 0.741616)
(0.746614 1.06713 0.610608)
(0.922492 1.03377 0.774951)
(0.843281 1.09793 0.921402)
(0.691412 1.47989 0.925936)
(1.10323 1.47313 0.702874)
(0.486688 1.4095 0.673955)
(0.589462 1.61967 0.651374)
(0.899652 1.31683 0.459363)
(1.02141 1.37501 0.466712)
(0.899474 1.37824 0.707476)
(0.998704 1.52008 0.568076)
(0.669447 1.32512 0.889892)
(0.951241 1.49027 0.559685)
(1.02757 1.5215 0.415002)
(0.855519 1.26851 0.517592)
(0.678234 1.59573 0.769723)
(0.9198 1.60095 0.631087)
(1.15316 1.64085 0.738145)
(0.784317 1.57244 0.822585)
(0.883971 1.39257 0.350125)
(1.04551 1.23886 0.356101)
(1.19397 1.10953 0.582345)
(1.02373 0.929466 0.671036)
(1.25154 1.66185 0.789966)
(1.15086 1.70311 0.60413)
(1.1198 1.70501 0.575107)
(1.26779 1.76556 0.643267)
(1.25924 1.78349 0.724752)
(1.04138 1.35039 0.959724)
(1.34942 1.47504 0.840993)
(1.25615 1.63804 0.784739)
(1.28351 1.67166 0.701706)
(1.2603 1.56886 0.845281)
(1.43066 1.65311 0.80589)
(1.44047 1.80504 0.721221)
(1.00142 0.913804 0.547143)
(0.919298 1.07004 0.420576)
(1.04198 1.51619 0.52272)
(1.03865 1.49576 0.591688)
(1.03628 1.21388 0.343676)
(0.575773 1.51215 0.671427)
(0.725896 1.29987 0.644433)
(1.04027 1.02848 0.854632)
(1.11025 0.893826 1.13502)
(0.681229 1.20596 0.513411)
(1.09021 1.10622 0.546292)
(0.877049 1.55742 0.51393)
(0.972932 1.00896 0.428363)
(0.459689 1.47767 0.903145)
(1.1316 1.67041 0.638514)
(0.972074 1.51726 0.694955)
(0.96384 1.76869 0.807551)
(1.25131 1.76376 0.655266)
(0.773041 1.48996 0.865712)
(1.00053 1.47405 0.68418)
(1.15507 1.66808 0.620359)
(0.806045 1.56873 0.761144)
(0.78209 1.30609 0.548747)
(0.816758 1.6306 1.02064)
(0.533984 1.48654 1.02469)
(0.51287 1.64444 0.756587)
(0.934933 1.38703 0.339581)
(1.0003 1.55258 0.523236)
(1.00715 1.28001 0.404772)
(1.33795 1.36736 0.855951)
(0.918793 0.883278 1.05272)
(1.18906 1.06665 0.512176)
(1.05224 1.81304 0.659567)
(1.17964 1.7637 0.727888)
(0.934473 1.68511 0.62105)
(1.38663 1.54067 0.721037)
(1.15734 1.70034 0.923352)
(1.31528 1.56633 0.766839)
(1.05573 1.47964 0.430162)
(1.15466 1.53644 0.683316)
(0.751637 1.14879 0.476135)
(0.9954 1.62271 0.603543)
(1.05863 1.404 0.556534)
(0.992028 1.49979 0.899755)
(1.1382 1.75609 0.846654)
(1.05163 1.32117 0.892409)
(1.00216 1.37688 0.595093)
(0.906591 1.57575 0.518526)
(0.778392 1.58314 0.777829)
(0.926515 1.49166 0.592088)
(1.02644 1.42658 0.616315)
(0.433528 1.4243 0.671393)
(0.498345 1.39844 0.741323)
(0.99634 0.904536 0.717098)
(0.506846 1.46775 0.765919)
(0.521317 1.44143 0.75067)
(0.693084 1.51627 0.832776)
(0.624683 1.09107 0.550517)
(0.729763 1.38468 0.621904)
(1.06221 1.05093 1.18077)
(0.910949 1.39027 0.962667)
(0.523748 1.4849 0.720924)
(0.560656 1.4743 1.02008)
(1.10877 0.963184 1.10931)
(0.537611 1.23289 0.892907)
(0.598798 1.3289 0.657168)
(1.51984 1.57946 0.694417)
(1.16243 1.61859 0.98525)
(0.99047 1.25088 0.915212)
(0.804117 0.844176 0.666347)
(0.98991 1.00264 0.845568)
(1.02309 0.878953 0.795328)
(0.905088 1.23375 0.619311)
(1.17588 1.38545 0.742174)
(1.19134 1.40903 0.734876)
(0.680673 1.26907 0.487991)
(1.21956 1.34132 1.22728)
(0.897084 1.45366 0.543873)
(0.917087 1.26689 0.953189)
(1.10289 1.37307 0.771592)
(1.10138 1.36841 0.788008)
(0.94924 1.26377 0.912206)
(1.17556 1.67165 0.839923)
(1.24467 1.77203 0.605348)
(0.990931 1.50681 0.49007)
(1.34437 1.64939 0.817528)
(0.653957 1.45521 0.986826)
(0.673058 0.989023 0.546493)
(0.735505 1.23677 0.46578)
(0.704187 1.24641 0.566714)
(0.778233 1.55878 0.733106)
(0.568902 1.49629 0.92189)
(1.64335 1.6771 0.672263)
(1.47049 1.84011 0.793567)
(1.66892 1.07135 0.773807)
(0.734978 1.33369 0.848776)
(1.3763 1.64211 0.777908)
(1.56685 1.04574 0.835314)
(1.37469 1.18856 0.822214)
(1.52633 1.18163 0.654259)
(1.51774 1.84343 0.879616)
(1.55261 1.81701 0.83022)
(1.26345 1.73754 0.757388)
(1.65302 1.26488 0.727553)
(1.57276 1.31087 0.640665)
(1.5036 1.28524 0.572189)
(1.54226 1.39761 0.737925)
(1.20217 1.17609 0.624094)
(1.51427 1.09005 0.780468)
(0.631367 1.47764 0.796322)
(1.25176 1.43997 0.791915)
(1.59041 1.1222 0.949876)
(1.59779 1.2271 0.899878)
(1.61426 1.10362 0.713626)
(1.09704 1.18254 0.79834)
(1.33602 1.66278 0.684507)
(1.49819 1.48127 0.824097)
(1.68388 1.26745 0.663012)
(1.19499 1.20534 0.781983)
(1.19741 1.14456 0.776978)
(1.27298 1.79901 0.975898)
(1.57653 1.02953 0.924543)
(0.976292 1.0965 0.746473)
(1.70749 1.39721 0.716023)
(1.60639 1.22914 0.853626)
(1.47113 1.2076 0.904389)
(1.29877 1.66767 0.691209)
(1.40041 1.6695 0.959759)
(1.568 1.05382 0.967825)
(1.56497 1.0033 0.960111)
(1.56184 1.00504 0.898915)
(1.62613 1.81125 0.815126)
(1.48743 1.83132 0.739305)
(1.64881 1.7797 0.789714)
(1.56031 1.65826 0.887268)
(1.63953 1.65406 0.672919)
(1.67889 1.61466 0.677847)
(1.68602 1.71286 0.871956)
(1.66967 1.55765 0.882528)
(1.66444 1.44123 0.755619)
(1.67322 1.55166 0.651661)
(1.70242 1.42709 0.709132)
(1.64594 1.39689 0.72472)
(1.32629 1.13719 0.542463)
(1.395 1.23002 0.746609)
(1.28456 1.79686 0.997082)
(0.966156 1.40425 0.867216)
(1.30487 1.75801 1.02469)
(1.51903 1.38358 0.702033)
(1.6043 1.20641 0.732069)
(1.25297 1.38552 0.701136)
(1.60859 1.21809 0.739373)
(1.68217 1.28328 0.701283)
(1.70998 1.31311 0.797027)
(1.50662 1.28286 0.932058)
(1.46515 1.2694 0.924701)
(1.74296 1.29926 0.772905)
(1.52975 1.2755 0.946736)
(1.57704 1.24113 1.01779)
(1.56424 1.24398 0.883575)
(1.56822 1.16743 1.00597)
(1.56842 1.09126 0.972628)
(1.59513 1.17916 0.947814)
(1.58064 1.06143 0.92718)
(0.839089 0.856018 0.612018)
(1.19921 1.27039 0.34052)
(1.03489 1.13585 0.577767)
(1.27818 1.71042 0.830867)
(1.34482 1.76854 0.674851)
(1.17164 1.75493 1.01547)
(1.42919 1.64992 0.648061)
(1.30372 1.78749 0.65003)
(1.30161 1.66114 0.732784)
(1.24961 1.69204 1.10943)
(1.27029 1.69495 0.976319)
(1.39057 1.84456 0.865542)
(1.28471 1.63512 0.842161)
(1.60142 1.05472 0.820077)
(1.57719 1.06913 0.766319)
(1.53127 1.06444 0.797828)
(1.45772 1.08055 0.83005)
(1.50291 1.04924 0.833094)
(1.59096 1.06097 0.884215)
(1.57188 1.03746 0.876435)
(1.62784 1.08514 0.885637)
(1.54513 1.02551 0.858288)
(1.26757 1.7032 0.722175)
(1.45126 1.67688 0.778678)
(1.40926 1.57626 0.70408)
(1.28933 1.73867 0.689517)
(1.05581 1.58901 0.644343)
(1.11195 1.61415 0.665765)
(1.48019 1.7094 0.77518)
(1.4717 1.67298 0.985031)
(1.04262 1.58311 0.649706)
(1.25971 1.66428 0.593631)
(1.21028 1.10321 0.527874)
(1.09152 1.20098 0.612182)
(1.4278 1.1974 0.854652)
(1.14357 1.22307 0.614718)
(1.34715 1.1585 0.77426)
(1.7147 1.55271 0.842171)
(1.51465 1.70031 0.910361)
(1.22525 1.48257 0.56471)
(1.53448 1.31728 0.609278)
(1.44113 1.23801 0.806932)
(1.1491 1.24876 0.962797)
(1.4781 1.57867 0.846308)
(1.20632 1.46616 0.556099)
(1.34282 1.62081 0.878158)
(1.52529 1.71809 0.936668)
(1.69501 1.54111 0.87546)
(1.10602 1.80395 0.598329)
(1.47739 1.78396 0.686258)
(1.3093 1.06058 0.688824)
(1.27019 1.70123 0.738423)
(1.35524 1.15838 0.810356)
(1.23067 1.1614 0.792253)
(1.3234 1.1699 0.722186)
(1.35693 1.13911 0.485751)
(1.36624 1.17712 0.822857)
(1.25235 1.14728 0.704432)
(1.30446 1.18677 0.759453)
(1.431 1.1753 0.804535)
(1.4655 1.17366 0.756284)
(1.35539 1.18119 0.776667)
(1.32372 1.06035 0.675931)
(1.60318 1.18508 0.86775)
(1.25223 1.07413 0.742896)
(1.53093 1.76926 0.984884)
(1.55883 1.36302 0.639433)
(1.27157 1.73103 0.72941)
(1.73886 1.22696 0.829175)
(1.60502 1.24566 0.615541)
(1.64969 1.13669 0.689674)
(1.59696 1.17098 0.887928)
(1.62209 1.19783 0.622447)
(1.57232 1.32576 0.72865)
(1.68698 1.33339 0.695578)
(1.53736 1.19793 0.915102)
(1.50904 1.13397 0.819359)
(1.56831 1.10245 0.798285)
(1.37976 1.18069 0.855591)
(1.41792 1.1243 0.845616)
(1.61355 1.09962 0.694772)
(1.25429 1.16034 0.571365)
(1.3836 1.24704 0.872818)
(1.17512 1.15566 0.786575)
(1.35829 1.20627 0.851035)
(1.09888 1.19317 0.827848)
(1.68066 1.11895 0.859335)
(1.72408 1.15516 0.802913)
(1.72617 1.18563 0.82686)
(1.69094 1.11949 0.70939)
(1.04484 1.20454 0.775751)
(1.39404 1.16676 0.748651)
(1.22352 1.16968 0.608019)
(0.778118 1.41852 0.913212)
(0.900958 1.12774 0.606706)
(0.920858 1.25324 1.09075)
(1.33146 1.53155 1.31046)
(1.20446 1.52305 1.48603)
(1.19416 1.22281 1.10033)
(1.17448 1.27052 1.23415)
(1.25866 1.32215 1.33206)
(1.42445 1.6853 1.06183)
(1.31132 1.71423 1.18883)
(1.09752 0.873318 1.25891)
(1.3093 1.58744 1.04381)
(1.45598 1.42208 1.53459)
(1.06832 0.855405 1.26552)
(1.06568 1.19692 1.02561)
(1.01634 1.08239 0.988763)
(1.17341 1.23982 0.846273)
(0.977057 1.22556 1.10737)
(1.6254 1.44488 1.4267)
(1.32039 1.2539 1.62532)
(0.616494 1.53603 1.16147)
(0.610957 1.39538 1.26754)
(0.785391 1.07111 1.57622)
(1.39746 1.47974 1.26866)
(0.630812 0.897009 1.2049)
(1.21607 1.12739 1.23411)
(1.14848 1.07476 1.3438)
(1.18009 1.04627 1.29587)
(1.16014 0.898403 1.23298)
(0.560089 1.57867 1.25604)
(0.641345 1.28405 1.20806)
(1.21205 1.09459 1.12066)
(1.19114 0.900126 1.10417)
(0.543457 1.39756 1.39825)
(1.34341 1.28735 1.19484)
(1.00061 1.37376 1.20119)
(1.26641 1.43689 1.33082)
(1.29467 1.39933 1.35785)
(0.962134 1.40728 1.22697)
(1.26491 1.39822 1.62088)
(1.19087 1.11195 1.37749)
(1.28314 1.30317 1.54602)
(1.14297 1.06484 1.1574)
(1.28213 1.35846 1.38409)
(1.36862 1.45543 1.31721)
(0.719544 1.25647 1.34628)
(1.39995 1.66171 1.20329)
(1.13346 1.28405 1.48488)
(1.26161 1.15768 1.21758)
(1.4932 1.43956 1.00354)
(1.52632 1.29027 1.50687)
(0.98576 0.859106 1.04364)
(0.778339 1.54076 1.49361)
(0.547355 1.40927 1.34316)
(1.4206 1.64613 1.05163)
(1.24907 1.53228 1.28389)
(1.25675 1.55469 1.25899)
(0.997886 1.30522 1.13354)
(1.29467 1.33554 1.39703)
(1.34727 1.33425 1.51729)
(1.39527 1.6342 1.09315)
(1.3377 1.30924 1.52635)
(0.934413 1.44732 1.57419)
(0.890654 1.39954 0.805621)
(1.36869 1.60721 1.24048)
(1.41091 1.5861 1.23269)
(1.34772 1.34845 1.53891)
(1.07177 1.31829 0.947031)
(1.18551 0.876325 1.15889)
(1.20717 1.29371 1.38715)
(1.20336 1.48319 1.25967)
(1.12193 1.2102 1.13944)
(1.40859 1.42529 0.963633)
(1.67546 1.52493 0.993264)
(1.68873 1.46926 1.2922)
(1.69806 1.2036 1.00936)
(1.66545 1.30093 1.07888)
(1.53104 1.30359 1.43192)
(1.53283 1.46002 0.958703)
(1.7613 1.39771 1.17271)
(1.57748 1.32628 1.47513)
(1.32879 1.22939 1.2769)
(1.79545 1.23812 1.07218)
(1.50899 1.28743 1.39233)
(1.37964 1.43181 1.06326)
(1.21419 1.27225 1.19799)
(1.4248 1.47086 1.46916)
(1.68344 1.16391 1.28882)
(1.78379 1.28444 1.17642)
(1.7086 1.38751 1.28144)
(1.80324 1.40346 1.09884)
(1.7036 1.27209 1.05471)
(1.38213 1.32611 0.974695)
(1.72933 1.20776 1.06813)
(1.29677 1.35208 0.873466)
(1.69419 1.43685 0.980099)
(1.3625 1.36804 0.94355)
(1.34861 1.3994 0.972359)
(1.69783 1.29217 1.06113)
(1.00974 1.1847 1.0464)
(0.947452 1.23997 1.10672)
(1.18501 1.17107 0.732474)
(1.40463 1.16857 0.626356)
(1.19968 1.44196 0.612189)
(1.66281 1.43412 0.992851)
(1.36509 1.22939 1.30841)
(1.77189 1.17713 1.20751)
(1.35722 1.21923 1.34447)
(1.27274 1.22476 1.24614)
(1.50533 1.29708 1.44062)
(1.53094 1.19214 1.39731)
(1.28754 1.70581 1.26805)
(1.32231 1.35414 1.00512)
(1.73195 1.20114 1.02584)
(1.48911 1.31413 1.47219)
(1.42417 1.50941 1.38212)
(1.53033 1.57861 1.05037)
(1.38956 1.42091 1.56339)
(1.59064 1.51627 1.40035)
(1.38306 1.73811 1.10747)
(1.47953 1.30066 1.44809)
(1.36555 1.30726 1.18787)
(1.45435 1.15616 1.35187)
(1.55588 1.50659 1.39838)
(1.52279 1.38205 0.953029)
(1.74493 1.16566 1.056)
(1.68856 1.1552 1.04717)
(0.762637 1.37324 0.813984)
(1.66323 1.48279 1.37812)
(1.54227 1.22073 1.41038)
(1.23615 1.41467 1.54733)
(1.40013 1.43769 0.954777)
(1.37959 1.43183 1.04587)
(1.55473 1.39859 1.48452)
(1.55006 1.27856 1.26961)
(1.31409 1.2229 1.23228)
(1.79948 1.29368 1.18334)
(1.80223 1.31425 1.18308)
(1.48006 1.29654 0.991491)
(1.65907 1.15388 1.04768)
(1.69546 1.11113 1.27203)
(1.77131 1.33503 1.16612)
(1.81068 1.43632 1.15381)
(1.79381 1.35479 1.1805)
(1.42672 1.31837 0.907287)
(1.80007 1.17301 1.15772)
(1.47431 1.29649 0.861024)
(1.44074 1.19215 0.688353)
(1.6743 1.16784 0.717676)
(1.76467 1.12566 1.20779)
(0.720625 1.05331 0.521128)
(1.3159 1.30818 0.876445)
(1.19445 1.56584 0.534276)
(1.47807 1.24817 1.31558)
(1.68723 1.27107 1.15149)
(1.43907 1.22903 0.695997)
(1.70185 1.18191 1.20798)
(1.15973 1.34325 0.862364)
(1.45762 1.19359 0.757874)
(1.11566 1.24175 0.948069)
(1.19951 1.25346 0.902669)
(1.1467 1.2381 0.913485)
(1.25569 1.06245 0.65022)
(1.05724 1.14974 0.999762)
(1.01883 1.67824 0.635962)
(0.998024 1.09695 1.03306)
(1.1309 1.35012 0.344233)
(1.15868 1.06077 0.858183)
(1.50425 1.53212 0.865679)
(1.33925 1.23962 0.786714)
(1.45202 1.39609 0.585635)
(1.24645 1.28705 0.795813)
(1.59593 1.68476 0.876875)
(1.55298 1.68456 0.877357)
(1.46126 1.21595 0.817595)
(0.584533 1.41932 0.665975)
(1.46969 1.49919 0.685365)
(1.04419 1.6921 0.614702)
(0.890492 1.45555 0.843049)
(0.88385 1.30171 0.800423)
(1.43229 1.40053 0.578172)
(1.60613 1.23814 0.657865)
(1.35816 1.11107 0.702673)
(1.46082 1.24551 0.706028)
(1.51182 1.4942 0.828523)
(1.45561 1.25634 0.566294)
(1.56957 1.20841 0.77994)
(1.54078 1.25378 0.785794)
(1.63716 1.22132 1.0722)
(1.24654 1.44816 0.783948)
(1.58587 1.2891 1.00169)
(1.52134 1.21096 0.829237)
(1.70218 1.39676 0.871855)
(1.21111 1.22345 0.711533)
(1.69562 1.33605 0.828228)
(1.23109 1.45401 0.811596)
(1.34195 1.45998 0.991885)
(1.80075 1.37788 1.14124)
(1.79329 1.16603 1.18043)
(1.2661 1.34722 0.991756)
(1.26274 1.35908 0.929878)
(1.44479 1.29261 0.83385)
(1.70776 1.1041 1.20614)
(1.73195 1.09473 1.19178)
(1.2859 1.31322 0.867111)
(1.59444 1.24859 0.679139)
(1.36555 1.23554 1.13561)
(1.77595 1.28181 1.19982)
(1.74113 1.25245 1.24884)
(1.69633 1.13581 1.18351)
(1.22061 1.36098 0.996902)
(1.60079 1.27019 1.0578)
(0.792139 1.28924 0.379117)
(0.652012 1.36154 0.571075)
(1.23632 1.53711 0.980848)
(0.864347 1.36002 0.586367)
(1.46289 1.50153 0.738677)
(1.22289 1.33058 0.380515)
(0.704405 1.18372 0.61803)
(1.30092 1.53617 0.811971)
(0.452409 1.49746 0.590892)
(1.35932 1.49631 0.666318)
(1.26669 1.47791 0.445619)
(1.41794 1.55122 0.959502)
(1.30096 1.44266 0.630701)