/*--------------------------------*- C++ -*----------------------------------*\
| =========                 |                                                 |
| \\      /  F ield         | OpenFOAM: The Open Source CFD Toolbox           |
|  \\    /   O peration     | Version:  v1806                                 |
|   \\  /    A nd           | Web:      www.OpenFOAM.com                      |
|    \\/     M anipulation  |                                                 |
\*---------------------------------------------------------------------------*/
FoamFile
{
    version     2.0;
    format      ascii;
    class       surfaceScalarField;
    location    "0.0865";
    object      phi;
}
// * * * * * * * * * * * * * * * * * * * * * * * * * * * * * * * * * * * * * //

dimensions      [0 3 -1 0 0 0 0];
oriented        oriented;


internalField   nonuniform List<scalar> 
187200
(
7.39565e-06
2.54647e-06
-9.94353e-06
5.27587e-05
-2.28972e-05
-2.24658e-05
7.51059e-05
-1.04765e-05
-1.18706e-05
9.43546e-05
-9.48699e-06
-9.76159e-06
0.000110012
-5.8783e-06
-9.77836e-06
0.00012703
-5.07466e-06
-1.19434e-05
0.000142189
-8.19131e-07
-1.43401e-05
0.000159029
5.61208e-07
-1.74003e-05
0.000172476
5.20321e-06
-1.8651e-05
0.000184782
6.66454e-06
-1.89707e-05
0.000196843
7.68866e-06
-1.97491e-05
0.000204999
1.26139e-05
-2.07702e-05
0.000196915
2.19358e-05
-1.3853e-05
0.000169514
3.60971e-05
-8.69595e-06
0.000125191
4.47701e-05
-4.47822e-07
8.71007e-05
2.93045e-05
8.78518e-06
3.43903e-05
3.19437e-05
2.07663e-05
-1.70298e-05
4.5436e-05
5.98406e-06
-0.000113821
9.92313e-05
-2.4397e-06
-0.000249371
0.000138549
-2.99899e-06
-0.000506169
0.000228213
2.85846e-05
-0.000693264
0.000236364
-4.92693e-05
-0.000827639
0.000283093
-0.000148719
-0.000873081
0.000308147
-0.000262705
-0.000858002
0.000338857
-0.000353935
-0.000788946
0.000367465
-0.000436522
-0.000678302
0.000392527
-0.00050317
-0.000538577
0.000408352
-0.000548077
-0.000372152
0.000401807
-0.000568231
-0.000206408
0.000385794
-0.000551538
-7.28678e-05
0.00034443
-0.00047797
1.46722e-05
0.000298662
-0.000386203
4.97252e-05
0.000237124
-0.000272177
4.49674e-05
0.000174495
-0.000169737
2.26859e-05
0.000120601
-9.83199e-05
2.56941e-06
8.09678e-05
-6.0851e-05
-7.8119e-06
5.50708e-05
-4.46896e-05
-1.15989e-05
4.26114e-05
-3.88246e-05
-1.02118e-05
3.29768e-05
-3.43637e-05
2.31857e-05
-3.33982e-05
3.71196e-06
1.70816e-05
-1.82471e-05
4.50517e-05
-3.22785e-05
-3.19583e-05
8.68843e-05
-2.48374e-05
-2.74715e-05
0.000117735
-1.44072e-05
-2.59307e-05
0.000139927
-3.27831e-06
-2.47914e-05
0.000156802
6.98737e-06
-2.89361e-05
0.000164675
2.64007e-05
-3.50926e-05
0.000168423
3.79987e-05
-4.11856e-05
0.000161983
6.31086e-05
-5.14658e-05
0.000145181
8.17081e-05
-5.82409e-05
0.000103682
0.000124715
-7.55282e-05
4.03381e-05
0.000166299
-9.03415e-05
-4.40971e-05
0.000203087
-9.67167e-05
-0.000146118
0.000245738
-0.000107621
-0.000269273
0.000300565
-0.00013264
-0.000449633
0.000374297
-0.000164633
-0.000624506
0.000450227
-0.000243411
-0.000809153
0.000532414
-0.000302332
-0.000974124
0.000635579
-0.000371377
-0.00113321
0.000737679
-0.000440042
-0.00129025
0.000865236
-0.000479982
-0.00139064
0.000941338
-0.000604591
-0.00145264
0.00104729
-0.000702189
-0.0014455
0.00109022
-0.000789217
-0.00136582
0.00113474
-0.000875563
-0.00122391
0.00115848
-0.000932925
-0.00103182
0.00116509
-0.000964643
-0.000804201
0.00114272
-0.000961988
-0.000566098
0.0010845
-0.000920793
-0.000337857
0.00100425
-0.000846694
-0.000143419
0.000878414
-0.000728423
1.60406e-05
0.000734605
-0.000595402
0.000105345
0.000580227
-0.000432408
0.00013269
0.000451835
-0.000304685
0.00012181
0.000332872
-0.00020139
9.41119e-05
0.000246922
-0.000138256
6.28322e-05
0.000185395
-9.90446e-05
3.82609e-05
0.000145525
-7.83433e-05
1.42459e-05
0.000115962
-5.89701e-05
8.03687e-05
-4.29377e-05
1.89716e-05
1.06359e-05
-1.25259e-05
5.78996e-05
-3.61373e-05
-3.50694e-05
9.89025e-05
-2.53896e-05
-4.04506e-05
0.000128765
-2.61123e-06
-4.16579e-05
0.000144559
2.85877e-05
-4.76605e-05
0.000150018
5.85411e-05
-5.70119e-05
0.000141442
0.00010005
-6.50726e-05
0.000124815
0.000137513
-8.28879e-05
9.71337e-05
0.000198337
-0.000107547
4.08847e-05
0.000265994
-0.000128037
-4.24922e-05
0.000348694
-0.000140602
-0.000147151
0.000433206
-0.000162249
-0.000302401
0.000537335
-0.000178999
-0.000479183
0.000645063
-0.000222545
-0.000676312
0.000754378
-0.000256685
-0.000859183
0.000864917
-0.000307749
-0.00101846
0.00097399
-0.000364485
-0.00116011
0.00109535
-0.000421282
-0.0012927
0.00124084
-0.000472669
-0.00142452
0.00138892
-0.000519422
-0.00155279
0.00152741
-0.000533901
-0.00162341
0.00161223
-0.000600271
-0.00164775
0.00171833
-0.000646705
-0.00161759
0.0017365
-0.000676442
-0.00152678
0.00175911
-0.000715172
-0.00138857
0.00174669
-0.000726434
-0.00121316
0.00170661
-0.00071693
-0.00101261
0.00162638
-0.000684211
-0.000799831
0.00150803
-0.000636315
-0.000579757
0.00135856
-0.000574383
-0.000389072
0.001181
-0.000493274
-0.000227988
0.000999441
-0.000425919
-0.000108232
0.000798303
-0.000337832
-2.48087e-05
0.000636801
-0.000268389
1.94911e-05
0.000488146
-0.000199574
3.58466e-05
0.000382855
-0.000152289
3.84258e-05
0.000304344
-0.000121528
3.08295e-05
0.000253516
-0.000100395
1.39139e-05
0.000204859
-7.19824e-05
0.000137282
-4.29999e-05
2.12371e-05
7.14813e-06
-1.77494e-05
5.94869e-05
-2.72779e-05
-4.71094e-05
9.95519e-05
-6.38388e-06
-5.90706e-05
0.000121187
4.18113e-05
-6.60579e-05
0.000125673
9.59284e-05
-7.18263e-05
0.000114833
0.000154359
-8.49766e-05
9.50126e-05
0.000229314
-0.000109443
5.79785e-05
0.000309817
-0.00013527
2.10785e-06
0.000421227
-0.000167019
-8.04281e-05
0.000535066
-0.000186536
-0.000198432
0.000668749
-0.000202052
-0.000343405
0.000799406
-0.000221228
-0.000503018
0.00093128
-0.000234332
-0.000656984
0.00105015
-0.000251124
-0.000807284
0.00117784
-0.00027316
-0.000947691
0.00130613
-0.000300809
-0.00107601
0.00143197
-0.000329659
-0.00118892
0.00155492
-0.00034666
-0.00129486
0.00169893
-0.000352157
-0.00140041
0.0018308
-0.000336331
-0.00152062
0.00192893
-0.000281309
-0.00158599
0.00196853
-0.000290934
-0.0016086
0.00203022
-0.000289282
-0.0015873
0.00199258
-0.000277381
-0.00151663
0.00197057
-0.000282131
-0.00141485
0.00191439
-0.000269472
-0.00128899
0.0018325
-0.00025176
-0.0011466
0.00171628
-0.000232283
-0.000992595
0.00156441
-0.000210379
-0.000825239
0.00139743
-0.000206229
-0.000646005
0.00120684
-0.000205073
-0.000468711
0.00102583
-0.000203688
-0.000311334
0.000838868
-0.000197943
-0.00018496
0.000701424
-0.000190998
-9.63061e-05
0.000571006
-0.000171514
-3.56412e-05
0.000472454
-0.000150264
2.7461e-06
0.000401331
-0.000135376
1.732e-05
0.00034918
-0.000110239
1.51785e-05
0.000285994
-7.89935e-05
0.000193149
-4.06892e-05
2.16455e-05
2.14685e-05
-3.59659e-05
6.09673e-05
9.24721e-06
-7.58467e-05
0.000103646
4.28061e-05
-9.18684e-05
0.000121927
0.000121759
-9.82288e-05
0.000117484
0.000206476
-0.000106105
8.9212e-05
0.000303696
-0.000121066
4.73491e-05
0.000423168
-0.000151991
4.36338e-06
0.000534661
-0.000181859
-4.26115e-05
0.000677661
-0.00020946
-0.000115318
0.000827552
-0.00021978
-0.000209392
0.000984468
-0.000221645
-0.000315621
0.00112408
-0.000218449
-0.000442648
0.00126834
-0.000210034
-0.00058069
0.00139804
-0.000209846
-0.000717982
0.00151921
-0.000204081
-0.000839529
0.00162803
-0.00020035
-0.000941982
0.00172219
-0.000187776
-0.00101702
0.00178773
-0.000157767
-0.00110689
0.00187954
-9.07452e-05
-0.00120379
0.00194936
-2.16524e-05
-0.00134244
0.00198952
7.80606e-05
-0.00141549
0.00194043
0.000101139
-0.00145547
0.00195736
0.000112847
-0.00146562
0.00188751
0.000115213
-0.00143978
0.00184763
9.70945e-05
-0.00139498
0.00178264
8.69543e-05
-0.0013313
0.0016962
7.26143e-05
-0.00126113
0.0015878
5.83085e-05
-0.00116504
0.00145131
1.7015e-05
-0.0010442
0.00130473
-2.81432e-05
-0.000896086
0.00113899
-8.02699e-05
-0.000728361
0.000987624
-0.000129515
-0.000559377
0.000830441
-0.000160557
-0.000393887
0.000714587
-0.000178653
-0.000255061
0.000616208
-0.000184029
-0.000140114
0.000525765
-0.000168257
-5.74044e-05
0.000467528
-0.000148906
-6.6441e-06
0.000421411
-0.000122991
8.84981e-06
0.000353446
-8.29455e-05
0.000238563
-3.65642e-05
1.46521e-05
6.99562e-05
-6.31395e-05
6.33126e-05
7.73446e-05
-0.000116757
0.00010731
0.00013753
-0.000138721
0.0001261
0.000241519
-0.00013855
0.000115751
0.000355268
-0.000138443
8.42244e-05
0.000484816
-0.000149594
5.49861e-05
0.000637464
-0.000185058
2.37051e-05
0.000782804
-0.000216862
-2.31722e-05
0.000953497
-0.000228959
-8.65384e-05
0.0011083
-0.000217384
-0.000159118
0.0012559
-0.000198855
-0.000241971
0.00138291
-0.000175973
-0.000327966
0.00150327
-0.000148936
-0.000409776
0.00159922
-0.000119367
-0.000491411
0.00168592
-8.50742e-05
-0.000558809
0.00174372
-4.82913e-05
-0.000644148
0.00178752
2.0017e-05
-0.000746085
0.00180394
8.57228e-05
-0.000847702
0.00181613
0.00016502
-0.00094355
0.0017943
0.000250915
-0.00108649
0.00181645
0.000316005
-0.00119068
0.00171582
0.000328804
-0.00126573
0.00170537
0.000327038
-0.00132284
0.00162317
0.00032145
-0.00134914
0.00157591
0.000298022
-0.00136168
0.00151689
0.000278287
-0.00135938
0.00144822
0.000245682
-0.00134619
0.00136776
0.000206849
-0.0013075
0.00126649
0.000146132
-0.00122203
0.00116205
5.72144e-05
-0.00110605
0.00104131
-1.8293e-05
-0.000941658
0.000927328
-0.000104098
-0.000763556
0.000813034
-0.000160696
-0.000567358
0.000717315
-0.000198927
-0.000387489
0.000647777
-0.000211438
-0.000234683
0.00056717
-0.000194212
-0.000112836
0.000519935
-0.000174255
-3.27132e-05
0.000478661
-0.000137373
5.19027e-06
0.000405765
-9.02227e-05
0.000279104
-3.53502e-05
1.75707e-05
0.000147458
-9.50723e-05
8.21399e-05
0.00018262
-0.000169844
0.00013211
0.000272702
-0.000185143
0.000153857
0.000395884
-0.000176111
0.000145177
0.000535012
-0.000171064
9.95886e-05
0.000704366
-0.000173962
9.00929e-05
0.000858495
-0.000211536
6.93945e-05
0.00102414
-0.000220641
5.02161e-05
0.00118148
-0.0002088
1.12917e-05
0.00132212
-0.000174897
-3.97591e-05
0.0014472
-0.000140252
-0.000104972
0.00155034
-0.000102217
-0.000174367
0.00163563
-6.29669e-05
-0.00024478
0.00168819
-1.85612e-05
-0.000315499
0.00171892
3.77184e-05
-0.000376668
0.0017168
8.80847e-05
-0.000442825
0.00170444
0.000149236
-0.000509105
0.00165381
0.000216414
-0.000610371
0.00162119
0.000296211
-0.000715915
0.00153413
0.000365708
-0.000856624
0.0015319
0.000425256
-0.000998517
0.00141457
0.000443139
-0.00108653
0.00137041
0.000422979
-0.00119099
0.00132295
0.000404689
-0.00126644
0.00128767
0.000363697
-0.00133361
0.00125514
0.00032892
-0.00138476
0.00121764
0.000281737
-0.00141865
0.00117207
0.00022957
-0.00142747
0.00111422
0.000161085
-0.00137681
0.0010508
6.05982e-05
-0.00128923
0.00096901
-1.52861e-05
-0.00114691
0.000881688
-9.66729e-05
-0.000959902
0.000795534
-0.000169511
-0.000736941
0.000704163
-0.000209808
-0.000504094
0.000662015
-0.000247085
-0.000321092
0.000611467
-0.000227298
-0.000160616
0.000565624
-0.000206166
-5.49145e-05
0.00053224
-0.00015928
5.01031e-07
0.000454983
-0.000104635
0.00031798
-3.83755e-05
2.74872e-05
0.000248173
-0.000128202
0.000109684
0.000317949
-0.000217526
0.000174513
0.000435444
-0.000227571
0.000200569
0.000571248
-0.000201419
0.000193586
0.000723038
-0.000181043
0.000178102
0.000900582
-0.000180732
0.000185526
0.00105235
-0.000201282
0.000183131
0.0012202
-0.000193661
0.000169929
0.00135689
-0.00016221
0.000131104
0.00147736
-0.000116415
8.44036e-05
0.00157269
-7.87861e-05
2.84426e-05
0.00163671
-3.04052e-05
-3.23062e-05
0.00167332
2.30635e-05
-9.64276e-05
0.00167188
8.04357e-05
-0.000158151
0.00164777
0.000132875
-0.000221912
0.00159154
0.000189021
-0.000287175
0.00152629
0.000243413
-0.000357298
0.0014376
0.000286329
-0.000445882
0.00137105
0.000338723
-0.000553103
0.00126093
0.000380423
-0.000673002
0.00123054
0.000421258
-0.000844969
0.00115836
0.000428178
-0.000958968
0.00108032
0.000404084
-0.00110011
0.00108402
0.000380069
-0.00121564
0.00106082
0.000342378
-0.00131776
0.00105303
0.000304231
-0.00140448
0.00104019
0.000264164
-0.00147346
0.00101931
0.000221737
-0.00151027
0.000994503
0.00015653
-0.00149306
0.000950526
8.30628e-05
-0.00142974
0.000891936
1.37521e-05
-0.00130775
0.000821181
-6.14877e-05
-0.00111828
0.000755406
-0.000149334
-0.000898908
0.000689971
-0.000205183
-0.000642955
0.000649973
-0.000243911
-0.000413957
0.00064113
-0.00025866
-0.000216763
0.000597687
-0.000229257
-8.03167e-05
0.00057826
-0.000182466
-6.56216e-06
0.00049843
-0.000117202
0.000354372
-4.29541e-05
4.5713e-05
0.000359935
-0.000157475
0.000152207
0.000471669
-0.000260214
0.000245606
0.000610451
-0.000268405
0.00028936
0.00075209
-0.000224596
0.000285583
0.000916373
-0.000189558
0.000283208
0.00107896
-0.000175997
0.000281598
0.00122349
-0.000169526
0.000284657
0.00136714
-0.00015
0.000280336
0.00147662
-0.00011541
0.000251022
0.00157114
-6.44632e-05
0.000207475
0.00162655
-1.03161e-05
0.000154887
0.00164621
4.30839e-05
8.91984e-05
0.00163969
9.93191e-05
2.1119e-05
0.00159322
0.000146736
-4.60603e-05
0.00152326
0.000191688
-0.000116173
0.00142833
0.000233323
-0.000188367
0.00133188
0.000266598
-0.000263
0.00122396
0.000288273
-0.000340657
0.00114018
0.000308527
-0.000456953
0.00104457
0.000332654
-0.000568601
0.000990938
0.000351253
-0.000739423
0.000971739
0.000357443
-0.000890655
0.000887493
0.000344063
-0.00104371
0.000917406
0.000319669
-0.00118358
0.000903369
0.000297325
-0.00130422
0.000911404
0.000262263
-0.00141547
0.000907625
0.000243829
-0.0015066
0.000906739
0.000203697
-0.00157374
0.000887896
0.000173746
-0.0015933
0.000852629
0.000117457
-0.0015493
0.000801872
4.60656e-05
-0.00144186
0.000746076
-3.23363e-05
-0.00125732
0.000687587
-0.000116725
-0.00102447
0.000640158
-0.00018303
-0.00075098
0.00060849
-0.000232013
-0.000493107
0.000635924
-0.000252667
-0.000269142
0.000621533
-0.00024781
-0.000102244
0.000611556
-0.000200193
-1.48534e-05
0.000542338
-0.000131299
0.000389338
-4.98207e-05
6.40778e-05
0.000469097
-0.000173239
0.000196333
0.000630785
-0.000291371
0.000316228
0.000785806
-0.00029525
0.000374112
0.000928427
-0.000234221
0.000389573
0.00108069
-0.000179777
0.000389304
0.00122332
-0.000144092
0.000379759
0.00135636
-0.00012333
0.000376432
0.00146863
-9.81672e-05
0.000367976
0.00154835
-6.3278e-05
0.000351841
0.0015978
-1.05205e-05
0.00031684
0.00162473
3.68269e-05
0.000248543
0.00161356
0.000100949
0.000178521
0.00156233
0.000147383
0.000104151
0.00147783
0.000189755
2.82518e-05
0.00137746
0.000221695
-5.0261e-05
0.00126218
0.00024466
-0.000128687
0.00115349
0.000256817
-0.000209241
0.00104691
0.000257603
-0.000293267
0.000966948
0.000257257
-0.000409873
0.00089884
0.000262337
-0.000535711
0.000845068
0.000271707
-0.000683461
0.000839362
0.000280128
-0.000855694
0.000774451
0.000285275
-0.000999148
0.000792225
0.000268634
-0.00114755
0.000786667
0.000265102
-0.0012717
0.000797728
0.000237829
-0.00139601
0.000797579
0.000234355
-0.00150865
0.000797272
0.000222107
-0.00159508
0.000773789
0.000200534
-0.00164038
0.000742674
0.000155254
-0.00162338
0.000703977
8.08933e-05
-0.00153507
0.000661142
-3.37078e-06
-0.00137166
0.000617168
-9.29955e-05
-0.00113893
0.000580477
-0.000173043
-0.000864772
0.000546175
-0.000211846
-0.000570284
0.000579914
-0.000238479
-0.000320727
0.000616405
-0.00024443
-0.000128285
0.000626845
-0.00020773
-2.35267e-05
0.000575514
-0.000137935
0.000420217
-5.44055e-05
8.04987e-05
0.000567883
-0.000179285
0.000242401
0.000779782
-0.000310899
0.000389251
0.000948409
-0.000309454
0.000465889
0.00108687
-0.000235083
0.000497537
0.00121768
-0.000168636
0.00049603
0.00133628
-0.000111459
0.000486548
0.00144485
-7.90057e-05
0.000470752
0.00152776
-4.33287e-05
0.000444772
0.00158351
-9.17946e-06
0.000409982
0.00160597
2.66139e-05
0.000375047
0.00158545
7.4207e-05
0.0003197
0.00153652
0.000132383
0.000245236
0.00146352
0.000173269
0.00015677
0.00135631
0.000209995
7.06031e-05
0.00123606
0.000227573
-1.68272e-05
0.00111458
0.000235035
-0.00010368
0.00100845
0.000231896
-0.000192147
0.000912446
0.000222931
-0.000287453
0.000846382
0.000215873
-0.000393252
0.000793385
0.000211254
-0.000514753
0.000752046
0.000214523
-0.000634466
0.000733153
0.000225922
-0.000805772
0.000703257
0.000242498
-0.000943543
0.000689491
0.000240506
-0.00108605
0.000683875
0.000245299
-0.00121556
0.00068544
0.000241794
-0.00134779
0.000688624
0.000241188
-0.00147651
0.000676553
0.000249438
-0.00158627
0.000657403
0.000226144
-0.00165528
0.000631936
0.000179748
-0.0016751
0.00059637
0.00012743
-0.00161807
0.000570217
3.3896e-05
-0.00147256
0.000533394
-6.17393e-05
-0.00122953
0.000508109
-0.000170663
-0.000940275
0.000479743
-0.00022282
-0.000633155
0.000509489
-0.000236695
-0.000367239
0.000575033
-0.000224544
-0.000150249
0.000629394
-0.000219538
-3.01729e-05
0.000598788
-0.00014335
0.000451433
-6.13889e-05
9.33218e-05
0.000649134
-0.000174574
0.000282061
0.000910168
-0.000319126
0.000453774
0.00109239
-0.000315696
0.00054882
0.00121935
-0.000227524
0.000592504
0.00132536
-0.00015137
0.000595547
0.00141618
-8.29409e-05
0.00058418
0.00149658
-4.03591e-05
0.000556793
0.00155228
2.86225e-06
0.000517313
0.00158254
4.04488e-05
0.000464856
0.00157294
8.54874e-05
0.000408212
0.00153513
0.000106972
0.000341067
0.00145748
0.000146185
0.000271433
0.00134977
0.000183388
0.000187432
0.00123173
0.000208578
9.70896e-05
0.00110948
0.000216919
4.38485e-06
0.000994112
0.00021317
-8.564e-05
0.000896115
0.00020236
-0.000179493
0.000814605
0.000191695
-0.000281526
0.000763083
0.000185331
-0.000381508
0.000714151
0.000179217
-0.000491812
0.000679899
0.000182451
-0.000594658
0.000642051
0.000193949
-0.000742631
0.000633425
0.000217806
-0.000868058
0.000593343
0.000221574
-0.000998686
0.000577361
0.000237143
-0.00112345
0.000571869
0.000238332
-0.00126465
0.000563201
0.000266623
-0.00140423
0.00055355
0.000262589
-0.00152855
0.000539962
0.000241761
-0.00162974
0.00052384
0.000209282
-0.00166884
0.000511506
0.000123966
-0.00164504
0.00049208
5.43349e-05
-0.00153854
0.000459362
-3.24713e-05
-0.00133592
0.000433723
-0.000128228
-0.00104018
0.000418404
-0.000234397
-0.000702457
0.00043104
-0.00025928
-0.00040127
0.000502267
-0.000228419
-0.000173538
0.000600086
-0.000198425
-3.76161e-05
0.000609444
-0.000146577
0.000478388
-6.45708e-05
0.000103813
0.000706245
-0.000160924
0.000316076
0.00101423
-0.00031633
0.000513786
0.00120668
-0.000311994
0.000628856
0.00131916
-0.00021488
0.000678739
0.00140455
-0.000129073
0.000687012
0.00146914
-6.12362e-05
0.000673441
0.0015182
-8.05364e-06
0.000639166
0.00154483
4.17278e-05
0.000587702
0.00154806
8.5952e-05
0.000520151
0.00151964
0.00012085
0.000444643
0.00145821
0.000152421
0.000362401
0.00136677
0.000172952
0.000280506
0.00125013
0.000181529
0.000194913
0.00112223
0.000195096
0.00010667
0.00100223
0.000195494
1.65501e-05
0.00089546
0.000188772
-7.19487e-05
0.000808426
0.000176188
-0.000164695
0.000737464
0.000169887
-0.000261168
0.000692843
0.000166714
-0.000358642
0.000644678
0.000166948
-0.000454403
0.0006051
0.00017056
-0.000548215
0.000557243
0.00017862
-0.000665497
0.000552075
0.000198632
-0.000769649
0.00049424
0.000203253
-0.00088399
0.00047133
0.000220372
-0.00100793
0.000453532
0.000242276
-0.00114838
0.000444273
0.000259379
-0.00129313
0.000436688
0.000261613
-0.00143632
0.000430936
0.000252213
-0.00155286
0.000431981
0.000208402
-0.00163844
0.00043043
0.000166658
-0.00165041
0.000406875
9.7177e-05
-0.0015908
0.000365575
3.41746e-05
-0.0014229
0.000328095
-6.22711e-05
-0.00114854
0.000316269
-0.000172227
-0.000795785
0.000338799
-0.000260515
-0.000452064
0.00042191
-0.000263365
-0.00019598
0.000536607
-0.000192604
-4.53552e-05
0.000605527
-0.000146708
0.000504066
-7.10328e-05
0.000107565
0.000743197
-0.000144517
0.000338585
0.00109057
-0.000307356
0.000560693
0.00129218
-0.000307608
0.000693362
0.00139169
-0.000205198
0.000749495
0.00145558
-0.000107162
0.000757448
0.00149621
-3.50166e-05
0.000739389
0.0015211
1.51648e-05
0.000694621
0.00151804
7.15557e-05
0.000634652
0.00149621
0.000111811
0.000562049
0.00144458
0.000147662
0.000474999
0.00136936
0.000175903
0.000379173
0.00126706
0.000195536
0.000282522
0.00114912
0.000197661
0.000198474
0.00102259
0.000183681
0.000113408
0.000908784
0.000178509
3.07791e-05
0.000812755
0.000165335
-5.49653e-05
0.000736019
0.000158152
-0.000145729
0.00067221
0.000156019
-0.000230571
0.000622641
0.000155044
-0.000319834
0.000572858
0.000161083
-0.000399588
0.000521982
0.000162873
-0.000489933
0.000478791
0.000168797
-0.000570291
0.000456414
0.00017602
-0.000658086
0.000397073
0.000184961
-0.000760832
0.000369451
0.000204626
-0.000874024
0.000340079
0.000226645
-0.00100602
0.000331526
0.000244745
-0.00114839
0.000326434
0.000252626
-0.00129513
0.000335389
0.000242279
-0.00144328
0.000345404
0.000234729
-0.00155461
0.000335684
0.00020608
-0.00162101
0.000297487
0.000175787
-0.00160715
0.000245486
0.000106222
-0.00148579
0.000194742
1.19974e-05
-0.0012394
0.000168767
-9.88906e-05
-0.000891964
0.000197866
-0.000206505
-0.00050912
0.000309954
-0.000270887
-0.000218338
0.0004681
-0.000222275
-4.97776e-05
0.000584478
-0.00014751
0.000530755
-7.64639e-05
0.000112994
0.000748176
-0.000117973
0.000361634
0.00112867
-0.000286747
0.00060332
0.00134254
-0.000292052
0.00075281
0.00143641
-0.000194209
0.000814157
0.00148067
-8.6432e-05
0.000819757
0.00149594
-5.33437e-06
0.000794472
0.0014928
5.35767e-05
0.000748225
0.00146806
9.6232e-05
0.00068266
0.00142473
0.000137048
0.000601638
0.00135893
0.000166675
0.000508121
0.00127149
0.000191387
0.000404868
0.00116358
0.000206735
0.000298243
0.00104783
0.000207912
0.000203756
0.000930406
0.000186674
0.000118251
0.000827855
0.000166434
4.11078e-05
0.000736269
0.000153629
-3.47991e-05
0.00066737
0.000144556
-0.00011776
0.000606219
0.000148953
-0.000192862
0.000549465
0.000148278
-0.000271244
0.000497824
0.000153416
-0.000344128
0.000441502
0.000153364
-0.000417467
0.000397816
0.000154313
-0.000474086
0.000362662
0.00015037
-0.000547431
0.000309956
0.000160462
-0.000634165
0.000281623
0.000174562
-0.000733929
0.000243143
0.0001967
-0.000850271
0.000232058
0.000215809
-0.000983096
0.000235085
0.000224173
-0.00113592
0.000252963
0.000235253
-0.0012841
0.000255916
0.000237662
-0.00142739
0.000236327
0.000242652
-0.00153744
0.000194353
0.000213186
-0.00158045
0.000130414
0.000158073
-0.00151809
5.77945e-05
7.45895e-05
-0.00131875
7.12493e-06
-3.76922e-05
-0.00100175
2.06479e-05
-0.000139782
-0.000593838
0.000139223
-0.000237185
-0.000246883
0.000375749
-0.000254605
-6.0379e-05
0.000542808
-0.000144833
0.000548008
-7.76293e-05
0.000113377
0.000729673
-9.48741e-05
0.00037139
0.00113397
-0.000263311
0.00062715
0.00136108
-0.000274301
0.000789969
0.00145221
-0.000178618
0.000858964
0.00148314
-7.14652e-05
0.000860495
0.00147321
2.12017e-05
0.000829599
0.00144878
7.49167e-05
0.000773585
0.00140137
0.000122702
0.000702793
0.00134256
0.000152957
0.000620461
0.00126462
0.000176642
0.000523277
0.00116744
0.000201235
0.000418336
0.00106074
0.00020778
0.000313305
0.000948015
0.000204851
0.000215414
0.000840805
0.000187493
0.000134172
0.000745725
0.000163372
6.03624e-05
0.000662895
0.000147183
-7.90991e-06
0.000595788
0.000139854
-8.11263e-05
0.000539317
0.000140118
-0.000151633
0.000480073
0.000139899
-0.000213505
0.000418487
0.00014121
-0.00028011
0.000366902
0.000141204
-0.000339228
0.000325413
0.000131521
-0.000390816
0.000285354
0.000128896
-0.000447369
0.000236256
0.000130252
-0.00051797
0.000205877
0.000146347
-0.00060675
0.000167632
0.000164291
-0.000702236
0.00014934
0.000178203
-0.000827161
0.000161591
0.000198419
-0.000959424
0.000165372
0.000219854
-0.00111056
0.000156432
0.000250618
-0.00126837
0.000136094
0.000258048
-0.00140896
8.91707e-05
0.000245772
-0.00149914
1.9347e-05
0.000201242
-0.00149384
-7.45599e-05
0.000127055
-0.00135838
-0.000154619
2.62878e-05
-0.00107284
-0.00017893
-8.5969e-05
-0.000680049
-6.83196e-05
-0.000185245
-0.000279836
0.000207245
-0.000231709
-6.46169e-05
0.000490012
-0.000162424
0.000559585
-7.61942e-05
0.000125397
0.000639596
-3.53204e-05
0.000393967
0.0010843
-0.000218894
0.00066244
0.00133377
-0.000241155
0.000843553
0.00142352
-0.000152424
0.000915362
0.00144409
-3.27624e-05
0.000911786
0.00141894
5.78497e-05
0.00087076
0.00137414
0.00011567
0.000810883
0.00130888
0.000152364
0.000738073
0.00123968
0.000175695
0.000653583
0.001157
0.000192108
0.000559226
0.001064
0.000197799
0.000454267
0.000960129
0.000205566
0.000348449
0.000857419
0.000196414
0.000248768
0.000758975
0.00018151
0.000163236
0.000671609
0.000159648
8.43899e-05
0.000597789
0.000143952
1.38062e-05
0.000532715
0.000133657
-4.34459e-05
0.000466379
0.00013019
-9.71744e-05
0.000407945
0.000125856
-0.000158648
0.000356944
0.000123017
-0.000221028
0.000310543
0.000118738
-0.000270976
0.000263863
0.000111497
-0.000315996
0.000221825
0.000108549
-0.000365302
0.000177606
0.000107956
-0.000417951
0.000141099
0.000117427
-0.000492429
0.000105986
0.000136123
-0.000576464
8.05628e-05
0.000152812
-0.000676504
8.4184e-05
0.000177448
-0.000797755
7.42107e-05
0.000212412
-0.000942268
5.99048e-05
0.000241041
-0.00110383
3.52297e-05
0.000262422
-0.00126124
-1.68225e-05
0.000263405
-0.00138643
-9.30023e-05
0.000237542
-0.00143367
-0.000204074
0.000176759
-0.00136017
-0.000312265
8.41442e-05
-0.0011365
-0.000376186
-2.64149e-05
-0.000775334
-0.000301832
-0.000127655
-0.00034713
-3.50984e-05
-0.000185859
-6.665e-05
0.000392527
-0.000182994
0.000558754
-6.58204e-05
0.000120185
0.000530844
-1.14324e-05
0.000377119
0.00103014
-0.000202776
0.000657071
0.00129314
-0.000239326
0.000853206
0.00138395
-0.000156571
0.000937524
0.00139386
-3.40852e-05
0.00093598
0.00134981
7.067e-05
0.000898458
0.0012848
0.000126866
0.000830098
0.00121364
0.000163597
0.000744272
0.00113931
0.000186199
0.000652952
0.0010492
0.000199118
0.000558114
0.000953902
0.000204932
0.000460109
0.000857347
0.000200787
0.000362902
0.000762446
0.000192181
0.000272566
0.000677898
0.000171414
0.000194987
0.00059744
0.000151749
0.000127086
0.000528345
0.000137345
6.43502e-05
0.000465742
0.000129708
-3.39821e-06
0.000409791
0.000124336
-6.30373e-05
0.000354733
0.000112852
-0.000116277
0.00030407
0.000106114
-0.000166497
0.00025965
0.000101113
-0.000210696
0.000213487
9.45743e-05
-0.000254217
0.000172604
9.27415e-05
-0.000296633
0.000130064
8.99576e-05
-0.000343307
8.88818e-05
9.88917e-05
-0.000402932
4.9908e-05
0.000115704
-0.000476574
1.61358e-05
0.000138068
-0.000556391
-5.02689e-06
0.000169029
-0.000656344
-2.81181e-05
0.000202281
-0.000776794
-5.55915e-05
0.000235946
-0.000923298
-8.11424e-05
0.000262876
-0.00108421
-0.000132008
0.0002761
-0.00123576
-0.000205521
0.000264068
-0.00133203
-0.000326122
0.000218313
-0.00131893
-0.000465869
0.000140504
-0.00114847
-0.000591318
4.4672e-05
-0.000812281
-0.000569026
-6.89928e-05
-0.000400334
-0.00030111
-0.000145935
-6.51456e-05
0.000210632
-0.000153293
0.000540726
-4.71173e-05
0.000149947
0.00033156
4.93371e-05
0.0003865
0.000913541
-0.000119958
0.000672213
0.00119197
-0.000184544
0.000873262
0.00128922
-0.000106312
0.000966802
0.00129102
9.29352e-06
0.000961001
0.00124714
0.000108467
0.000913159
0.00117222
0.000160421
0.000843847
0.00108821
0.000194741
0.0007733
0.00100329
0.000206559
0.000699105
0.000914248
0.000209148
0.000617446
0.000831669
0.000203892
0.000526497
0.000752627
0.00019567
0.000431216
0.000676604
0.000181123
0.000337683
0.000607951
0.000163481
0.000255418
0.000544653
0.000135052
0.000179326
0.000486838
0.000117599
0.000107664
0.000426667
0.000110737
3.42309e-05
0.000370076
0.000113147
-2.78892e-05
0.000315574
0.000101278
-7.8163e-05
0.000264617
8.9727e-05
-0.000122408
0.000216397
8.74976e-05
-0.000161422
0.000172473
8.00283e-05
-0.000199862
0.000131307
7.9736e-05
-0.000235958
8.95366e-05
7.66231e-05
-0.000281043
4.85114e-05
8.54551e-05
-0.00032866
1.87813e-06
9.56465e-05
-0.000388303
-3.77783e-05
0.000113557
-0.000456264
-8.12672e-05
0.000144201
-0.000547425
-0.000116705
0.000179749
-0.000663138
-0.000156105
0.000216226
-0.000802259
-0.00019787
0.000255849
-0.000953405
-0.000275047
0.000294185
-0.0011102
-0.000362985
0.000314257
-0.00123535
-0.000500247
0.000299278
-0.00127456
-0.000673672
0.000247013
-0.00117725
-0.000854478
0.000165848
-0.000888844
-0.000905869
4.844e-05
-0.000455068
-0.00067722
-5.7667e-05
-8.49142e-05
-5.45075e-05
-0.000105014
0.000473348
-1.75368e-05
0.000121693
0.000198072
1.17945e-05
0.000338845
0.000833855
-0.000137467
0.000627934
0.00110851
-0.000205634
0.000842692
0.00120774
-0.000133282
0.000954953
0.00119562
-1.68593e-05
0.000979641
0.0011369
8.55545e-05
0.000949732
0.00104553
0.000156597
0.000892312
0.000966212
0.000179421
0.000816819
0.00089292
0.000185866
0.000728119
0.000819471
0.000183478
0.000635263
0.000746872
0.000177653
0.00053973
0.000678171
0.00016999
0.000447343
0.000611819
0.000157173
0.000358738
0.00055466
0.000141896
0.000275878
0.000499808
0.000127705
0.000206703
0.000449332
0.00010668
0.00014439
0.000395144
9.38362e-05
8.45964e-05
0.00033962
9.02492e-05
2.20012e-05
0.000285
9.31686e-05
-2.75558e-05
0.000228872
8.5301e-05
-7.58816e-05
0.000186579
7.81434e-05
-0.0001161
0.000138672
7.40176e-05
-0.000153666
9.74351e-05
7.14385e-05
-0.000189236
5.45417e-05
7.05647e-05
-0.000229997
9.38831e-06
7.98841e-05
-0.000277799
-3.55962e-05
8.52762e-05
-0.000329853
-7.74505e-05
9.17254e-05
-0.000385091
-0.000139436
0.000113405
-0.000445838
-0.000201068
0.000145109
-0.000516404
-0.000269023
0.000183485
-0.000609072
-0.000335221
0.000230019
-0.000735023
-0.000427154
0.000278057
-0.000897954
-0.000521495
0.000321441
-0.00106401
-0.000680509
0.000346315
-0.00118407
-0.000884808
0.000331202
-0.00116768
-0.00113268
0.000261804
-0.000987159
-0.00124433
0.000157948
-0.000576399
-0.00111583
2.78515e-05
-0.000154306
-0.000453419
-2.31788e-05
0.000275524
4.35202e-05
8.86775e-05
9.28797e-05
1.65134e-05
0.000331273
0.000712872
-0.000121614
0.000611902
0.00101438
-0.000186496
0.000843457
0.00112273
-0.000146543
0.000967462
0.00111443
-4.28129e-05
0.000997263
0.00105333
5.37634e-05
0.000953873
0.000960051
0.000128867
0.000885999
0.000872642
0.000161444