/*--------------------------------*- C++ -*----------------------------------*\
| =========                 |                                                 |
| \\      /  F ield         | OpenFOAM: The Open Source CFD Toolbox           |
|  \\    /   O peration     | Version:  v1806                                 |
|   \\  /    A nd           | Web:      www.OpenFOAM.com                      |
|    \\/     M anipulation  |                                                 |
\*---------------------------------------------------------------------------*/
FoamFile
{
    version     2.0;
    format      ascii;
    class       volVectorField;
    location    "0.0865";
    object      U;
}
// * * * * * * * * * * * * * * * * * * * * * * * * * * * * * * * * * * * * * //

dimensions      [0 1 -1 0 0 0 0];


internalField   nonuniform List<vector> 
64000
(
(-0.00998657 -0.0114696 -0.00797775)
(0.0147616 -0.0112236 -0.00548884)
(0.0208809 -0.00376815 0.00042117)
(0.0254523 -0.00328012 0.00114312)
(0.0266157 -0.00233866 0.00147423)
(0.0269369 -0.00269375 0.00212184)
(0.0264865 -0.0036641 0.00233022)
(0.0231824 -0.00401262 0.0027923)
(0.0219443 -0.00496765 0.00418677)
(0.0149169 -0.00459775 0.00372161)
(0.00934113 -0.00520905 0.00573986)
(-0.00317564 -0.00827662 0.00654304)
(-0.0215977 -0.0124722 0.00606164)
(-0.0458468 -0.0175624 0.00385942)
(-0.0742437 -0.0180595 0.00483156)
(-0.110605 -0.0169523 0.00244007)
(-0.138773 7.34306e-05 0.00160189)
(-0.183813 -0.00446398 -0.0027583)
(-0.182368 -0.00958507 0.00507359)
(-0.243357 -0.0273249 -0.0144246)
(-0.213835 -0.0214976 -0.0216702)
(-0.106994 -0.0231384 -0.0383501)
(-0.109146 -0.00827436 -0.0255567)
(-0.10684 -0.00317832 -0.0371706)
(-0.124279 0.00304173 -0.0481581)
(-0.11841 0.0112385 -0.0577516)
(-0.106793 0.0213003 -0.0624277)
(-0.070571 0.0321754 -0.0585462)
(-0.0366779 0.0389972 -0.0540287)
(0.00703135 0.0511515 -0.0390219)
(0.052379 0.0475985 -0.0320216)
(0.0882626 0.0382384 -0.0245129)
(0.104524 0.0277516 -0.0124621)
(0.101241 0.0141535 -0.00502488)
(0.0876483 0.00562629 0.00113784)
(0.0691598 -0.00238091 0.0037509)
(0.0499828 -0.00633704 0.00489699)
(0.0298217 -0.0056517 0.0057451)
(0.0158893 -0.00415698 0.00623548)
(0.00207906 -0.00268223 0.00408461)
(-0.00717148 0.00212006 -0.004341)
(0.00870918 -0.0163357 -0.00410213)
(0.0239323 -0.0106316 -0.00176098)
(0.0342725 -0.00717832 -0.000900433)
(0.0398902 -0.00246688 -0.00129257)
(0.0399512 -0.000481575 -0.00170137)
(0.0386777 0.00351432 -0.00318085)
(0.0315012 0.00506923 -0.00290813)
(0.0244219 0.0106122 -0.00715872)
(0.00689769 0.0162794 -0.00418658)
(-0.016962 0.0249482 -0.008216)
(-0.0540488 0.0319592 0.000715097)
(-0.101253 0.0426291 -0.00402799)
(-0.153618 0.0622312 -0.00681228)
(-0.211982 0.0756226 -0.0113164)
(-0.270115 0.0845721 -0.0182334)
(-0.348438 0.0930095 -0.0437288)
(-0.45401 0.0951351 -0.0586731)
(-0.500577 0.101277 -0.0761805)
(-0.586813 0.100421 -0.0980725)
(-0.540756 0.127768 -0.0957183)
(-0.40586 0.142826 -0.125854)
(-0.389606 0.188123 -0.135843)
(-0.373617 0.2123 -0.14579)
(-0.364195 0.237024 -0.157493)
(-0.325335 0.258432 -0.163735)
(-0.276757 0.279364 -0.165144)
(-0.204824 0.294791 -0.153549)
(-0.129236 0.300924 -0.133693)
(-0.0566166 0.30546 -0.109959)
(0.00768064 0.289649 -0.0765764)
(0.0712381 0.259205 -0.0467845)
(0.108703 0.210945 -0.0389793)
(0.121065 0.159587 -0.02636)
(0.116069 0.108996 -0.0128357)
(0.0974048 0.0693412 -0.00536449)
(0.0780879 0.0408163 -0.000998803)
(0.0536122 0.0260935 -1.21609e-05)
(0.0320396 0.0162715 0.00148516)
(0.00777887 0.00784778 0.00161353)
(-0.000540572 -0.00506515 0.00154353)
(0.0150496 -0.022278 -0.00186778)
(0.0318821 -0.0170411 -0.00290907)
(0.0426244 -0.00496325 -0.0040703)
(0.044925 0.00479646 -0.00576679)
(0.0427321 0.0160095 -0.00712166)
(0.0354733 0.0311374 -0.0082647)
(0.0212458 0.0453135 -0.00977466)
(0.00542565 0.0693886 -0.0018577)
(-0.0249602 0.0900974 -0.00496761)
(-0.0629168 0.116957 -0.00814996)
(-0.115849 0.149338 -0.0132727)
(-0.170796 0.182981 -0.0177652)
(-0.249137 0.21153 -0.0323384)
(-0.345283 0.231436 -0.0355998)
(-0.441809 0.245045 -0.0423122)
(-0.52634 0.250084 -0.0589962)
(-0.614581 0.269993 -0.0776553)
(-0.655934 0.30014 -0.0954045)
(-0.727014 0.334727 -0.116037)
(-0.667013 0.372905 -0.105823)
(-0.505631 0.402405 -0.123789)
(-0.465831 0.459299 -0.125451)
(-0.438662 0.490106 -0.123441)
(-0.420213 0.522257 -0.126297)
(-0.377115 0.543817 -0.124797)
(-0.328033 0.558175 -0.120215)
(-0.261929 0.561407 -0.10506)
(-0.195717 0.551361 -0.0829529)
(-0.129916 0.531268 -0.0594451)
(-0.0743247 0.499802 -0.0400243)
(-0.0301452 0.452086 -0.0278426)
(0.0034605 0.379522 -0.0170946)
(0.0257149 0.306895 -0.00856622)
(0.0390495 0.22735 -0.0108194)
(0.0454556 0.162641 -0.010925)
(0.0460039 0.115109 -0.00727111)
(0.0373332 0.0781225 -0.00504774)
(0.0266096 0.0520037 -0.00136422)
(0.00772911 0.0256214 0.00137009)
(0.000616949 -0.00921373 0.00200819)
(0.0173855 -0.0233893 -0.00118683)
(0.038231 -0.010704 -0.00369449)
(0.045849 0.00642552 -0.00685445)
(0.0439326 0.0303323 -0.00759343)
(0.0398149 0.0549014 -0.0092362)
(0.0270651 0.0901687 -0.00901415)
(0.00840137 0.122911 -0.00585568)
(-0.018714 0.167578 -0.0106013)
(-0.0645533 0.207633 -0.0130079)
(-0.11051 0.25184 -0.017339)
(-0.175399 0.28881 -0.0249261)
(-0.259549 0.317651 -0.0273578)
(-0.350364 0.334311 -0.0290817)
(-0.436443 0.355397 -0.0317281)
(-0.515841 0.37889 -0.0364953)
(-0.584511 0.409143 -0.0515176)
(-0.659607 0.437977 -0.0613943)
(-0.686968 0.479489 -0.0708325)
(-0.743965 0.524301 -0.0777107)
(-0.673128 0.55767 -0.0475306)
(-0.490822 0.578043 -0.0457283)
(-0.436714 0.620402 -0.0402504)
(-0.409816 0.627189 -0.0294769)
(-0.392471 0.640412 -0.0271493)
(-0.358556 0.640779 -0.0221628)
(-0.321146 0.633392 -0.0186942)
(-0.271762 0.614637 -0.0111205)
(-0.223144 0.588984 0.000845297)
(-0.177526 0.556324 0.00807398)
(-0.146275 0.515578 0.0130519)
(-0.121025 0.471092 0.0117319)
(-0.0972865 0.412296 0.00593706)
(-0.0749943 0.349518 -0.00211587)
(-0.0516642 0.269794 -0.00570903)
(-0.0217385 0.202059 -0.0105775)
(-0.000953387 0.14724 -0.0107661)
(0.0080487 0.111018 -0.00805089)
(0.0163306 0.0778649 -0.00354579)
(0.00611733 0.0379124 0.00107988)
(0.00107046 -0.00946693 0.000702958)
(0.0233597 -0.0125662 -0.00421492)
(0.0456526 0.00434485 -0.00771828)
(0.0543929 0.0388152 -0.00866134)
(0.0519043 0.0761486 -0.00823462)
(0.0460549 0.12198 -0.0155289)
(0.0277158 0.176714 -0.0132769)
(-0.000150351 0.236408 -0.00644485)
(-0.0330819 0.292472 -0.0079826)
(-0.086405 0.339358 -0.0101078)
(-0.14689 0.37636 -0.0128696)
(-0.225605 0.396274 -0.0155227)
(-0.300229 0.418857 -0.01634)
(-0.37518 0.443738 -0.0214396)
(-0.447618 0.47379 -0.0207079)
(-0.515424 0.506412 -0.0214629)
(-0.5712 0.534381 -0.0254482)
(-0.62736 0.569927 -0.0229865)
(-0.635141 0.615945 -0.0177026)
(-0.677494 0.662497 -0.0261089)
(-0.608001 0.690398 0.00427494)
(-0.419383 0.695565 0.0164024)
(-0.360812 0.70874 0.0275379)
(-0.343271 0.682269 0.0365562)
(-0.337955 0.665373 0.036894)
(-0.323317 0.639087 0.0426627)
(-0.305952 0.607165 0.0439073)
(-0.275065 0.570367 0.0479589)
(-0.247072 0.529306 0.0411992)
(-0.221577 0.489645 0.03303)
(-0.201505 0.444664 0.0229227)
(-0.191599 0.411554 0.0156726)
(-0.183234 0.374101 0.00805669)
(-0.176956 0.343302 -0.00396326)
(-0.153981 0.278637 -0.013716)
(-0.104506 0.20919 -0.0146236)
(-0.0530044 0.161254 -0.0138825)
(-0.0173902 0.130816 -0.0117658)
(0.00257934 0.096615 -0.00623977)
(0.00325555 0.047671 0.00106491)
(0.00578393 -0.00411656 -0.000144603)
(0.0284108 0.00243296 -0.00670681)
(0.0598653 0.029146 -0.00639821)
(0.0718168 0.0812626 -0.0100759)
(0.0662292 0.139161 -0.0150149)
(0.0625622 0.202794 -0.0187444)
(0.0460936 0.278235 -0.0139802)
(0.0118354 0.331836 -0.00520869)
(-0.0414902 0.376804 -0.00555976)
(-0.111927 0.410755 -0.00768326)
(-0.181173 0.440475 -0.00980485)
(-0.246376 0.467969 -0.00998822)
(-0.305824 0.501501 -0.00825458)
(-0.364404 0.529376 -0.00525288)
(-0.414408 0.559178 0.000493171)
(-0.466855 0.587535 0.00605932)
(-0.499328 0.617576 0.00878722)
(-0.534071 0.648787 0.00852731)
(-0.536176 0.696779 0.010596)
(-0.565172 0.731609 0.00939996)
(-0.499409 0.756239 0.0381303)
(-0.328016 0.707062 0.0525891)
(-0.285689 0.68924 0.0628371)
(-0.28999 0.631843 0.0747687)
(-0.299466 0.591255 0.0769257)
(-0.303727 0.548483 0.0765421)
(-0.302407 0.50575 0.0738474)
(-0.291706 0.463865 0.0675122)
(-0.277181 0.416773 0.0653582)
(-0.265735 0.378338 0.0442159)
(-0.255962 0.334859 0.0328684)
(-0.244988 0.304194 0.0180775)
(-0.230953 0.278397 0.00702638)
(-0.238277 0.266542 -0.00479466)
(-0.241642 0.242303 -0.0166655)
(-0.175703 0.193368 -0.0146536)
(-0.0936126 0.16224 -0.0154713)
(-0.0409627 0.136269 -0.0120933)
(-0.00501493 0.104639 -0.00703294)
(0.00229424 0.0512625 0.00159541)
(0.0067732 0.00133367 -0.000762719)
(0.0380118 0.0154698 -0.0102102)
(0.0808345 0.0561096 -0.0103457)
(0.10524 0.11135 -0.0124747)
(0.100239 0.177051 -0.0173034)
(0.0975445 0.250498 -0.0198819)
(0.0583096 0.31739 -0.0129618)
(-0.00588353 0.346285 0.00141226)
(-0.0567844 0.390055 -0.003554)
(-0.114202 0.428345 -0.00414622)
(-0.163156 0.473278 -0.00417105)
(-0.214315 0.515406 -0.00226948)
(-0.261026 0.555045 0.00113323)
(-0.308257 0.588517 0.006258)
(-0.348135 0.621533 0.0142869)
(-0.383183 0.646343 0.0196577)
(-0.40591 0.673925 0.0258078)
(-0.424128 0.685827 0.0291266)
(-0.41325 0.71165 0.0271739)
(-0.433764 0.724336 0.0177427)
(-0.428267 0.744355 0.0342905)
(-0.291149 0.63795 0.0557642)
(-0.234966 0.588704 0.0600251)
(-0.256236 0.526224 0.0718822)
(-0.276146 0.484031 0.0720118)
(-0.297148 0.445532 0.0712707)
(-0.31171 0.410419 0.0673647)
(-0.317614 0.375901 0.0600941)
(-0.316276 0.339054 0.0468925)
(-0.316819 0.304765 0.0310157)
(-0.31364 0.271712 0.0176982)
(-0.305506 0.243737 0.00503595)
(-0.291217 0.223685 -0.00337582)
(-0.286663 0.208203 -0.0106383)
(-0.289806 0.218891 -0.0193712)
(-0.227758 0.193787 -0.0212373)
(-0.128204 0.16792 -0.0222069)
(-0.0563363 0.147341 -0.0171344)
(-0.0101995 0.11373 -0.0109939)
(0.00224748 0.056248 -0.000162279)
(0.00726141 0.00777596 -0.00372492)
(0.0454335 0.0342658 -0.0138535)
(0.0994292 0.0833846 -0.0138986)
(0.12531 0.139452 -0.0116139)
(0.128281 0.198689 -0.0125433)
(0.116945 0.271969 -0.01349)
(0.0562069 0.304152 -0.00321837)
(0.00533474 0.351824 0.00454479)
(-0.0268652 0.398177 0.000371682)
(-0.0771492 0.451989 0.00190293)
(-0.119679 0.496648 0.00247081)
(-0.162904 0.534469 0.00900253)
(-0.199312 0.568346 0.0147956)
(-0.2312 0.595555 0.0229969)
(-0.258442 0.621788 0.0274265)
(-0.28756 0.63711 0.0316957)
(-0.305786 0.649104 0.0345656)
(-0.324043 0.647466 0.0338627)
(-0.321637 0.643116 0.0311155)
(-0.335021 0.618428 0.0153649)
(-0.377354 0.623908 0.0168987)
(-0.293703 0.543503 0.0361937)
(-0.223021 0.461298 0.0389105)
(-0.244446 0.419824 0.0500966)
(-0.271968 0.38433 0.0535109)
(-0.3031 0.359118 0.0547193)
(-0.327822 0.333473 0.0556209)
(-0.345108 0.307478 0.0481801)
(-0.35505 0.279822 0.0386052)
(-0.362369 0.249708 0.0164003)
(-0.363553 0.21821 0.00757231)
(-0.353751 0.19354 -0.00178133)
(-0.338823 0.180822 -0.00924535)
(-0.321069 0.171378 -0.0132487)
(-0.328088 0.192905 -0.0226985)
(-0.277672 0.197228 -0.0212018)
(-0.162299 0.173396 -0.0228523)
(-0.0748758 0.156686 -0.0177746)
(-0.0153421 0.121097 -0.0106036)
(0.00326624 0.0601693 0.000646129)
(0.00594775 0.0207774 -0.00641225)
(0.0538284 0.0654813 -0.0179326)
(0.119785 0.121927 -0.0194586)
(0.151968 0.177774 -0.0136866)
(0.160279 0.239123 -0.0142266)
(0.130759 0.292118 -0.0134305)
(0.0745527 0.325916 -0.00370853)
(0.0345248 0.38411 0.00401331)
(0.0070514 0.421777 0.0102204)
(-0.0275304 0.462681 0.00988841)
(-0.0673707 0.500306 0.0141386)
(-0.0992411 0.528004 0.0195751)
(-0.125589 0.551123 0.0270298)
(-0.15084 0.564803 0.0334276)
(-0.17436 0.569943 0.0357388)
(-0.20029 0.566787 0.0362504)
(-0.222529 0.561037 0.0349485)
(-0.249435 0.544647 0.030238)
(-0.270288 0.530653 0.0242276)
(-0.285636 0.496115 0.0101372)
(-0.33744 0.485887 -0.000430341)
(-0.317001 0.456401 0.0108068)
(-0.243571 0.357495 0.0202504)
(-0.243325 0.339196 0.0263529)
(-0.276058 0.31408 0.0341028)
(-0.311284 0.29921 0.038218)
(-0.345352 0.281443 0.0434343)
(-0.370133 0.259779 0.0391475)
(-0.390195 0.236425 0.0236932)
(-0.407168 0.203523 0.00789402)
(-0.40912 0.178776 -0.0019549)
(-0.395957 0.155733 -0.00764737)
(-0.380497 0.142459 -0.012989)
(-0.352408 0.143132 -0.0216599)
(-0.341874 0.156287 -0.0253889)
(-0.307553 0.192352 -0.0296978)
(-0.197907 0.176283 -0.0266846)
(-0.090125 0.166285 -0.0248928)
(-0.0203616 0.131326 -0.0138809)
(0.00418885 0.0665899 -0.00155646)
(0.00771 0.0367515 -0.00908311)
(0.0628852 0.10356 -0.0255353)
(0.138413 0.164157 -0.0245268)
(0.177361 0.218085 -0.0149539)
(0.18047 0.272668 -0.0156125)
(0.149445 0.306037 -0.0145904)
(0.106094 0.352148 -0.00480942)
(0.0734178 0.399218 0.00697845)
(0.0429298 0.437627 0.0140568)
(0.0182645 0.464244 0.0248669)
(-0.00831595 0.487717 0.0219686)
(-0.0391815 0.500995 0.0323595)
(-0.0624662 0.509664 0.0375894)
(-0.0859644 0.501124 0.0432516)
(-0.10921 0.486551 0.0435883)
(-0.136356 0.463582 0.0404365)
(-0.164063 0.440941 0.0350523)
(-0.195355 0.415178 0.0273125)
(-0.22719 0.398398 0.0185168)
(-0.257412 0.379163 0.0044757)
(-0.309927 0.3631 -0.00861902)
(-0.341334 0.362689 -0.00711343)
(-0.275753 0.294421 0.00930244)
(-0.24144 0.284501 0.0116233)
(-0.277153 0.266715 0.022505)
(-0.3128 0.258859 0.0294731)
(-0.352721 0.240154 0.0388818)
(-0.38497 0.223937 0.0324914)
(-0.413687 0.194421 0.0244022)
(-0.428638 0.167996 0.00884707)
(-0.433991 0.140112 0.00997873)
(-0.428433 0.118148 0.016597)
(-0.408504 0.0988337 0.013075)
(-0.382715 0.100516 0.0084895)
(-0.362496 0.113877 -0.014342)
(-0.330623 0.16225 -0.025347)
(-0.228316 0.173438 -0.0256012)
(-0.108052 0.166369 -0.0216704)
(-0.0262428 0.139063 -0.0130134)
(0.0051624 0.0709601 -0.000385495)
(0.00881725 0.0599348 -0.0116823)
(0.0717646 0.147188 -0.031818)
(0.156367 0.211327 -0.0310781)
(0.201439 0.260741 -0.0188555)
(0.200062 0.299607 -0.0117462)
(0.174156 0.332722 -0.0147954)
(0.14577 0.37321 -0.00414638)
(0.114768 0.410782 0.00347757)
(0.0894514 0.439676 0.011718)
(0.0614109 0.461152 0.0275849)
(0.0329864 0.467049 0.036214)
(0.0152909 0.467846 0.0464227)
(-0.00797972 0.455863 0.0470492)
(-0.037545 0.434076 0.0496038)
(-0.0646172 0.406163 0.0481951)
(-0.0963513 0.374073 0.0420519)
(-0.129085 0.344823 0.0336432)
(-0.165095 0.317778 0.0244066)
(-0.200331 0.301409 0.0155412)
(-0.238713 0.287936 0.00259062)
(-0.289135 0.277664 -0.00781497)
(-0.336011 0.281311 -0.0117307)
(-0.281361 0.261434 0.00209543)
(-0.235561 0.247985 0.0030596)
(-0.265705 0.235513 0.0154404)
(-0.304203 0.22376 0.023835)
(-0.349493 0.208982 0.0330174)
(-0.386099 0.186708 0.0306708)
(-0.41866 0.161272 0.0198485)
(-0.44168 0.131652 0.0294048)
(-0.455546 0.0970925 0.03097)
(-0.45665 0.0688542 0.0172016)
(-0.442093 0.0538098 0.0123292)
(-0.407963 0.0508838 0.00364154)
(-0.369939 0.0654616 -0.00145018)
(-0.338766 0.113372 -0.0236467)
(-0.252596 0.153006 -0.0288424)
(-0.125219 0.163124 -0.023869)
(-0.0293288 0.143456 -0.0151487)
(0.00453251 0.0760733 -0.00205107)
(0.00985681 0.0785733 -0.0123917)
(0.0777481 0.187018 -0.0357968)
(0.170138 0.254082 -0.0343454)
(0.215032 0.292521 -0.0180817)
(0.218947 0.320685 -0.0103085)
(0.203367 0.353019 -0.007749)
(0.180418 0.384845 -0.00651355)
(0.154109 0.409475 0.0065243)
(0.127429 0.43 0.0119821)
(0.103179 0.43895 0.0236672)
(0.0801854 0.442678 0.0356306)
(0.0515223 0.432134 0.0508945)
(0.0257941 0.407151 0.0551753)
(0.00122088 0.372895 0.0548502)
(-0.0305061 0.340821 0.0485573)
(-0.0658009 0.30794 0.0398124)
(-0.102961 0.281709 0.0288419)
(-0.139873 0.259243 0.0193871)
(-0.178475 0.25022 0.01038)
(-0.221857 0.239044 0.000294681)
(-0.26892 0.234975 -0.00749527)
(-0.313402 0.235721 -0.0118877)
(-0.266291 0.23738 -0.00070892)
(-0.218394 0.221779 -0.0017035)
(-0.246087 0.20648 0.0104934)
(-0.281994 0.190986 0.0196003)
(-0.330081 0.174475 0.0275836)
(-0.370278 0.151791 0.0218877)
(-0.407142 0.124686 0.0378195)
(-0.439649 0.0898835 0.0447805)
(-0.461148 0.0561579 0.0383808)
(-0.462612 0.0302879 0.0492097)
(-0.455047 0.00774867 0.0386336)
(-0.436301 0.00407528 0.0346049)
(-0.397993 0.0132889 0.0246329)
(-0.354265 0.0597891 0.00332834)
(-0.265644 0.11504 -0.0256283)
(-0.139347 0.150735 -0.0254394)
(-0.0354607 0.141887 -0.0146736)
(0.00564508 0.0789994 -0.00201386)
(0.0105205 0.100334 -0.0114801)
(0.0827351 0.228383 -0.0381532)
(0.176049 0.296225 -0.0372789)
(0.226392 0.32538 -0.0189081)
(0.241128 0.347738 -0.00604547)
(0.233379 0.371423 -0.000350077)
(0.212668 0.393795 0.00395694)
(0.188325 0.408524 0.00484157)
(0.167207 0.418294 0.0150085)
(0.143903 0.420513 0.0255914)
(0.117048 0.411428 0.0349792)
(0.0901466 0.392705 0.0420085)
(0.0568404 0.364812 0.0549008)
(0.0249 0.328636 0.0550323)
(-0.0039963 0.288532 0.0478344)
(-0.0408982 0.261988 0.0350861)
(-0.0803793 0.238131 0.0230125)
(-0.116365 0.221915 0.0145205)
(-0.155741 0.216153 0.0056714)
(-0.199919 0.20785 -0.000264186)
(-0.241571 0.208488 -0.00668356)
(-0.277655 0.205525 -0.00972212)
(-0.234539 0.225656 -0.00198203)
(-0.194838 0.202616 -0.00407405)
(-0.216588 0.180016 0.00672135)
(-0.251439 0.158702 0.0150081)
(-0.297909 0.13564 0.0197928)
(-0.340767 0.113598 0.0326364)
(-0.385495 0.0812162 0.0447987)
(-0.423436 0.0490485 0.0462101)
(-0.446313 0.0172632 0.0662148)
(-0.470797 -0.020087 0.0469967)
(-0.47718 -0.059885 0.0343251)
(-0.460094 -0.080383 0.0122155)
(-0.418759 -0.0680217 0.00400859)
(-0.372641 -0.0205515 0.0075718)
(-0.286611 0.0641478 -0.00269578)
(-0.154127 0.121124 -0.0313416)
(-0.040436 0.135605 -0.0145626)
(0.00567172 0.0820003 -0.00354435)
(0.0100569 0.106136 -0.0106234)
(0.0813181 0.250899 -0.0404503)
(0.176412 0.32183 -0.0411342)
(0.23241 0.348294 -0.0219626)
(0.257935 0.36238 -0.00366171)
(0.257695 0.374337 0.00594611)
(0.23925 0.386325 0.0121942)
(0.216748 0.395128 0.0155735)
(0.196497 0.400608 0.0187525)
(0.173866 0.395301 0.0228501)
(0.14991 0.380802 0.0289038)
(0.117924 0.357097 0.0397797)
(0.0839357 0.324775 0.0414601)
(0.0463462 0.292493 0.0495785)
(0.0154785 0.25627 0.0459101)
(-0.0159055 0.226659 0.0285687)
(-0.0579167 0.208446 0.017635)
(-0.0901705 0.194876 0.010394)
(-0.129187 0.189404 0.00271349)
(-0.168603 0.184825 -0.000101213)
(-0.206483 0.18256 -0.00522077)
(-0.222613 0.187486 -0.0042491)
(-0.188755 0.21568 -0.00125723)
(-0.172076 0.184998 -0.00208124)
(-0.189523 0.153634 0.0032747)
(-0.21815 0.122965 0.0107966)
(-0.259141 0.0999226 0.0156557)
(-0.301813 0.0710466 0.0334636)
(-0.347278 0.0432989 0.0407183)
(-0.384674 0.0137278 0.0622906)
(-0.432452 -0.0276099 0.0459919)
(-0.473989 -0.0805793 0.0381826)
(-0.490987 -0.124626 0.0236799)
(-0.477876 -0.156817 0.0127253)
(-0.436825 -0.15903 -0.00782959)
(-0.376053 -0.118808 -0.00720737)
(-0.292739 -0.0173773 -0.0012236)
(-0.172092 0.0788538 -0.017257)
(-0.0447909 0.120444 -0.0204078)
(0.0069554 0.0815124 -0.00230562)
(0.00893265 0.116964 -0.00845498)
(0.0803426 0.275997 -0.0396783)
(0.176404 0.35168 -0.0424127)
(0.2388 0.37549 -0.0227858)
(0.271415 0.381882 -0.00237824)
(0.276804 0.381043 0.0116104)
(0.265142 0.383782 0.02134)
(0.248138 0.386556 0.0240697)
(0.229356 0.385396 0.0268372)
(0.205469 0.374851 0.0289442)
(0.178596 0.35643 0.0307218)
(0.14697 0.327266 0.0291763)
(0.109927 0.296429 0.0304354)
(0.0709492 0.259956 0.0324722)
(0.0333006 0.233499 0.0348436)
(0.0015489 0.199991 0.0229274)
(-0.0322908 0.183645 0.011959)
(-0.0643553 0.173739 0.00713355)
(-0.0970881 0.165037 0.000958248)
(-0.134609 0.159777 -0.000456725)
(-0.15927 0.159178 -0.00148762)
(-0.157497 0.181429 0.00266663)
(-0.142926 0.18865 0.000264566)
(-0.153511 0.159106 -0.000435234)
(-0.166913 0.126804 0.00254546)
(-0.184612 0.0911731 0.00669815)
(-0.219319 0.0642853 0.0196313)
(-0.257672 0.0347966 0.0286919)
(-0.296279 0.00846859 0.047775)
(-0.34944 -0.029969 0.0409945)
(-0.406478 -0.0822419 0.038581)
(-0.454725 -0.133379 0.0285689)
(-0.484751 -0.1848 0.0178606)
(-0.487751 -0.225338 0.00229059)
(-0.453527 -0.244124 -0.0131488)
(-0.387317 -0.213436 -0.0213519)
(-0.297135 -0.124017 -0.018735)
(-0.181066 0.0206412 0.00107577)
(-0.0542394 0.0993407 -0.0269045)
(0.00592399 0.0841922 -0.00362135)
(0.0065826 0.0965914 -0.00871228)
(0.0741038 0.269209 -0.039806)
(0.17041 0.350871 -0.0416967)
(0.237397 0.375222 -0.0223013)
(0.277175 0.376339 0.00110943)
(0.291206 0.371291 0.0151936)
(0.286948 0.369748 0.0213587)
(0.270761 0.364642 0.0250637)
(0.251035 0.356531 0.02754)
(0.228139 0.343756 0.0284973)
(0.201343 0.323264 0.028215)
(0.167887 0.298028 0.0250055)
(0.129553 0.265945 0.0205726)
(0.0912608 0.235464 0.0143145)
(0.053254 0.208616 0.0190564)
(0.0205676 0.187428 0.0128896)
(-0.00589514 0.167529 0.0072664)
(-0.0342872 0.15623 0.00227227)
(-0.0671847 0.144674 -0.000683099)
(-0.0929657 0.143712 0.000476142)
(-0.0970957 0.154601 0.00379963)
(-0.100458 0.164486 0.00439526)
(-0.112227 0.15368 0.00307079)
(-0.12945 0.128793 0.00224577)
(-0.146079 0.105366 0.00280861)
(-0.160311 0.0666706 0.00544117)
(-0.184462 0.0371464 0.0154531)
(-0.214689 0.00811699 0.0314452)
(-0.257932 -0.0257729 0.0311601)
(-0.312707 -0.0717313 0.0340871)
(-0.368427 -0.119812 0.0303632)
(-0.421144 -0.176386 0.0259668)
(-0.459495 -0.234836 0.0158125)
(-0.475789 -0.289632 0.00230445)
(-0.45422 -0.322232 -0.0150512)
(-0.395221 -0.311563 -0.0278858)
(-0.291196 -0.232255 -0.0314726)
(-0.180692 -0.0794449 -0.0193167)
(-0.0601288 0.0539975 -0.019455)
(0.00768404 0.0728041 -0.00808635)
(0.00701141 0.105764 -0.00376484)
(0.0728941 0.284868 -0.0342216)
(0.168029 0.370375 -0.0391414)
(0.241375 0.392394 -0.0184519)
(0.290699 0.387939 0.00623804)
(0.314345 0.374192 0.0152314)
(0.313066 0.364487 0.0230363)
(0.29766 0.353323 0.0247637)
(0.280336 0.343235 0.023795)
(0.256864 0.326139 0.021261)
(0.230527 0.302966 0.018329)
(0.196391 0.274018 0.0137375)
(0.156046 0.243835 0.00957935)
(0.116717 0.213622 0.0061419)
(0.0789391 0.190171 0.00466556)
(0.0452276 0.172251 0.00302018)
(0.0155989 0.160201 0.000366932)
(-0.00881755 0.148361 -0.000849704)
(-0.028403 0.144527 -0.000534579)
(-0.0395913 0.146218 0.00165523)
(-0.049607 0.148542 0.00410952)
(-0.0662501 0.135926 0.00618943)
(-0.0836103 0.121425 0.0056414)
(-0.103428 0.10123 0.0046761)
(-0.125727 0.0808109 0.0070423)
(-0.141509 0.0512257 0.00563999)
(-0.156012 0.0158529 0.0134612)
(-0.185853 -0.0170654 0.0152214)
(-0.226525 -0.0587151 0.0202468)
(-0.275845 -0.100634 0.0216852)
(-0.330425 -0.148624 0.0232376)
(-0.383632 -0.204963 0.0210581)
(-0.426556 -0.266629 0.0153153)
(-0.451954 -0.331985 0.00338471)
(-0.44291 -0.381234 -0.0130989)
(-0.394236 -0.393822 -0.0301682)
(-0.301289 -0.329789 -0.0438343)
(-0.186063 -0.18071 -0.0327438)
(-0.0588289 0.0113237 -0.00879752)
(0.00662615 0.0725146 -0.012179)
(-0.00325216 0.0777255 -0.0152765)
(0.0517423 0.26536 -0.0405245)
(0.148472 0.361173 -0.0463525)
(0.22936 0.385422 -0.0264609)
(0.288322 0.382851 -0.0049227)
(0.323256 0.362392 0.00833858)
(0.333054 0.345432 0.014535)
(0.320992 0.326937 0.0152021)
(0.301173 0.313651 0.013997)
(0.274507 0.302314 0.0105127)
(0.245459 0.288448 0.00766421)
(0.211468 0.26909 0.00449054)
(0.172522 0.247037 0.00200093)
(0.135836 0.225059 0.000260598)
(0.102468 0.204655 0.00130887)
(0.0745628 0.193963 0.000810299)
(0.0507075 0.186155 -0.00483092)
(0.0306394 0.175844 -0.00253976)
(0.0131088 0.167955 -0.00200224)
(-0.00432784 0.155877 0.00220425)
(-0.0211872 0.134976 0.00499728)
(-0.0404707 0.115998 0.00731817)
(-0.05935 0.0967418 0.00657102)
(-0.080703 0.0783787 0.00661634)
(-0.103153 0.0595121 0.00338976)
(-0.125983 0.0392673 0.00308722)
(-0.143604 0.00593984 0.00217548)
(-0.167258 -0.0299802 0.0046874)
(-0.20202 -0.0674116 0.00807712)
(-0.242699 -0.112467 0.0122193)
(-0.289613 -0.164388 0.0145187)
(-0.338369 -0.229747 0.0144095)
(-0.383119 -0.301156 0.0100863)
(-0.415509 -0.380012 0.000705273)
(-0.41807 -0.444969 -0.0138762)
(-0.378959 -0.475378 -0.0312909)
(-0.289215 -0.433127 -0.0550415)
(-0.176882 -0.303788 -0.051365)
(-0.0521757 -0.0765349 -0.0176083)
(0.00711659 0.0475995 -0.00458258)
(-0.00387504 0.153432 -0.00571801)
(0.0479015 0.358071 -0.0205109)
(0.138241 0.457246 -0.0313748)
(0.222103 0.479042 -0.0117872)
(0.289328 0.467376 -0.00457028)
(0.330685 0.435663 0.0123092)
(0.346618 0.400143 0.0159254)
(0.341283 0.38581 0.018262)
(0.335605 0.389899 0.0144423)
(0.317179 0.389862 0.00991193)
(0.288712 0.380365 0.00416199)
(0.251177 0.35934 0.000221491)
(0.209763 0.32957 -0.00283064)
(0.16865 0.299189 -0.00346432)
(0.136069 0.268958 -0.00287838)
(0.110106 0.243299 0.00112887)
(0.0785253 0.220313 -0.00511624)
(0.0534314 0.200587 -0.00790362)
(0.0330295 0.17445 -0.00525348)
(0.00926503 0.151095 -0.00287614)
(-0.00822337 0.1267 0.00387831)
(-0.0240559 0.100415 0.00596136)
(-0.0411637 0.0805555 0.00686548)
(-0.0598573 0.0598805 0.00815132)
(-0.0813431 0.0399698 0.00121907)
(-0.106326 0.0207613 0.00246524)
(-0.127968 -5.04874e-05 0.00157323)
(-0.149407 -0.0332472 -0.00375707)
(-0.182288 -0.0726368 -0.00582275)
(-0.224076 -0.117058 -0.00435271)
(-0.271451 -0.161123 0.000453757)
(-0.31689 -0.216524 0.00576345)
(-0.357791 -0.284286 0.00784613)
(-0.388999 -0.368317 0.00277034)
(-0.392917 -0.450203 -0.0113874)
(-0.366022 -0.518512 -0.0364925)
(-0.303627 -0.516483 -0.0667832)
(-0.190829 -0.390052 -0.0606459)
(-0.0496793 -0.168601 -0.0370766)
(0.00954744 0.0276695 -0.00480108)
(-0.0181393 0.237412 -0.0235552)
(0.0187834 0.478091 -0.0433096)
(0.108582 0.587923 -0.0516816)
(0.193949 0.627403 -0.0371987)
(0.265856 0.618514 -0.0262928)
(0.314516 0.588914 -0.00962738)
(0.35654 0.544933 0.000366359)
(0.388118 0.519109 0.000761655)
(0.385259 0.506067 -0.00520164)
(0.349051 0.484112 -0.00918095)
(0.303692 0.454305 -0.0108486)
(0.253079 0.416544 -0.0116623)
(0.206265 0.372975 -0.0111955)
(0.167525 0.329441 -0.00976816)
(0.134735 0.288416 -0.00758277)
(0.109447 0.249266 -0.00375451)
(0.0893498 0.214778 0.00052964)
(0.0650261 0.18695 -0.00349826)
(0.0424734 0.162324 -0.00441563)
(0.0257965 0.134929 -0.00239907)
(0.00432935 0.113095 0.000536475)
(-0.0119354 0.0883151 0.00493294)
(-0.0259623 0.0650918 0.00596613)
(-0.0470157 0.0431133 0.00545587)
(-0.06571 0.0220867 0.00347745)
(-0.0849138 0.00284575 0.00714499)
(-0.109252 -0.0127442 0.00609004)
(-0.14005 -0.0355617 0.00400706)
(-0.169393 -0.0655034 0.00206656)
(-0.191853 -0.108355 -0.00159914)
(-0.221027 -0.160058 -0.00752865)
(-0.258765 -0.232948 -0.0142355)
(-0.301088 -0.319838 -0.0189937)
(-0.339557 -0.430812 -0.0246379)
(-0.36756 -0.534353 -0.0327344)
(-0.365182 -0.635374 -0.0499386)
(-0.293625 -0.662802 -0.0729239)
(-0.211033 -0.554058 -0.0864789)
(-0.0806335 -0.270357 -0.0486905)
(0.0134976 0.00590512 -0.00525153)
(0.000354011 0.20681 0.00144474)
(0.0384889 0.450222 -0.0357672)
(0.112578 0.575611 -0.0482505)
(0.197429 0.632142 -0.0440767)
(0.268255 0.636908 -0.0359629)
(0.31867 0.617539 -0.0246451)
(0.357475 0.581368 -0.0176209)
(0.384678 0.539735 -0.00834027)
(0.383345 0.497897 -0.00982683)
(0.349277 0.460701 -0.0088739)
(0.306696 0.423873 -0.00839433)
(0.257951 0.386319 -0.00663911)
(0.212192 0.346282 -0.00519963)
(0.173193 0.308532 -0.00331044)
(0.142967 0.270369 -0.00287582)
(0.120613 0.235902 -0.000293308)
(0.0973296 0.200377 0.000811411)
(0.0800603 0.169386 0.00330313)
(0.0580002 0.147543 0.00276838)
(0.034464 0.123376 -0.00142353)
(0.0174909 0.101074 0.00127613)
(-0.00141755 0.0781122 0.00297961)
(-0.0166174 0.0543283 0.0070472)
(-0.0328488 0.031815 0.00658322)
(-0.049646 0.0145341 0.00565087)
(-0.065585 -0.00524543 0.00879412)
(-0.0844327 -0.0216466 0.00911401)
(-0.11053 -0.0382084 0.0062563)
(-0.148724 -0.0513403 0.00311816)
(-0.190309 -0.0789497 0.00342299)
(-0.237548 -0.121486 0.0059815)
(-0.281639 -0.189374 0.00835699)
(-0.32023 -0.275835 0.00825657)
(-0.335738 -0.405205 0.00117905)
(-0.339073 -0.548042 -0.00997562)
(-0.331172 -0.690126 -0.0228488)
(-0.275381 -0.769443 -0.0448549)
(-0.165544 -0.743983 -0.0621747)
(-0.0436154 -0.460936 -0.0655766)
(0.00773206 -0.0951296 0.00630515)
(0.00035089 0.222499 -0.00110505)
(0.0371049 0.441138 -0.0314145)
(0.104986 0.564687 -0.0422617)
(0.182827 0.621184 -0.0401638)
(0.252169 0.627113 -0.0257538)
(0.305075 0.605503 -0.0194555)
(0.349529 0.567339 -0.0101437)
(0.38101 0.527305 -0.00346546)
(0.382952 0.482857 -0.00331801)
(0.35261 0.446908 -0.0023501)
(0.308341 0.41004 -0.00177179)
(0.257656 0.371318 -0.000605198)
(0.213503 0.332905 0.000206791)
(0.177839 0.295822 0.000845)
(0.147775 0.260318 0.00139118)
(0.123574 0.223615 0.0028696)
(0.104522 0.187992 0.00428473)
(0.0910001 0.153608 0.00608662)
(0.0721471 0.126889 0.00620867)
(0.0520729 0.106071 0.00711193)
(0.0292025 0.0871303 0.00313394)
(0.00959861 0.0657468 0.0029244)
(-0.00479851 0.0435255 0.00890598)
(-0.0190929 0.02432 0.00743956)
(-0.0335292 0.00374493 0.00666627)
(-0.0488187 -0.0136161 0.00865968)
(-0.0646565 -0.0333 0.00943483)
(-0.0837633 -0.0540527 0.00969366)
(-0.111274 -0.0705007 0.00821865)
(-0.143649 -0.0886116 0.00605962)
(-0.184291 -0.106462 0.00600079)
(-0.227667 -0.143377 0.00617989)
(-0.28893 -0.194543 0.00829603)
(-0.343785 -0.287329 0.011903)
(-0.370208 -0.408843 0.0114191)
(-0.370899 -0.56499 0.00678114)
(-0.329251 -0.683638 -0.00705747)
(-0.228608 -0.714002 -0.0298652)
(-0.0603477 -0.50355 -0.0438496)
(0.0253648 -0.0814361 -0.0222126)
(0.00674893 0.196907 -0.00157346)
(0.0453838 0.395291 -0.0254315)
(0.106783 0.526916 -0.0350288)
(0.181268 0.588596 -0.0342733)
(0.247995 0.605209 -0.0220176)
(0.299874 0.587654 -0.0143748)
(0.345967 0.551753 -0.00511281)
(0.375197 0.508484 0.000871985)
(0.378796 0.459135 0.00144273)
(0.353073 0.417824 0.0017223)
(0.308615 0.377877 0.00251664)
(0.260722 0.340891 0.00400979)
(0.219435 0.306416 0.00463071)
(0.185257 0.272441 0.00517837)
(0.155885 0.239204 0.00494685)
(0.132699 0.205553 0.00558584)
(0.109864 0.173766 0.00650774)
(0.0985809 0.138838 0.00958206)
(0.086573 0.110501 0.0105922)
(0.0672008 0.0878688 0.00966806)
(0.0466856 0.0738813 0.00909908)
(0.0226251 0.0543089 0.00823418)
(0.00865311 0.0364812 0.00611051)
(-0.00568046 0.0178842 0.00684785)
(-0.0193474 -0.00183736 0.00848876)
(-0.0320207 -0.0209172 0.00810115)
(-0.0501393 -0.0381632 0.00861216)