/*--------------------------------*- C++ -*----------------------------------*\
| =========                 |                                                 |
| \\      /  F ield         | OpenFOAM: The Open Source CFD Toolbox           |
|  \\    /   O peration     | Version:  v1806                                 |
|   \\  /    A nd           | Web:      www.OpenFOAM.com                      |
|    \\/     M anipulation  |                                                 |
\*---------------------------------------------------------------------------*/
FoamFile
{
    version     2.0;
    format      ascii;
    class       volVectorField;
    location    "0.0865";
    object      U_0;
}
// * * * * * * * * * * * * * * * * * * * * * * * * * * * * * * * * * * * * * //

dimensions      [0 1 -1 0 0 0 0];


internalField   nonuniform List<vector> 
64000
(
(-0.00996049 -0.0114211 -0.00793558)
(0.0147026 -0.0111896 -0.00544405)
(0.0208054 -0.00375645 0.000437801)
(0.0253587 -0.00328396 0.00114962)
(0.026507 -0.00234807 0.00147959)
(0.0268204 -0.00269453 0.00213722)
(0.0263721 -0.00365937 0.00234694)
(0.0230591 -0.00400632 0.00280338)
(0.0218251 -0.0049624 0.0042015)
(0.0147806 -0.0045796 0.0037197)
(0.00923087 -0.00520533 0.00577926)
(-0.00333171 -0.00831569 0.0065118)
(-0.0218489 -0.0124748 0.00607525)
(-0.0460577 -0.0175716 0.00386116)
(-0.0745311 -0.0180582 0.00483978)
(-0.110871 -0.016916 0.00244533)
(-0.139141 0.00010039 0.00161503)
(-0.184157 -0.00445086 -0.00275024)
(-0.182812 -0.00958025 0.00509761)
(-0.24376 -0.0273442 -0.014455)
(-0.214122 -0.0215515 -0.0217542)
(-0.107101 -0.023181 -0.0383764)
(-0.109053 -0.0083261 -0.0255918)
(-0.106658 -0.00320313 -0.0371709)
(-0.124024 0.00303091 -0.0481451)
(-0.118146 0.0112288 -0.0577231)
(-0.106509 0.0212818 -0.0623984)
(-0.0703166 0.032173 -0.058489)
(-0.0364575 0.0389682 -0.0539823)
(0.00724511 0.0511863 -0.0388993)
(0.0526591 0.0475271 -0.0320026)
(0.0884642 0.0382142 -0.0244525)
(0.104711 0.0277066 -0.0124271)
(0.101388 0.0141149 -0.00499017)
(0.0877841 0.00559731 0.0011677)
(0.0692614 -0.0024136 0.00377915)
(0.0500451 -0.00636308 0.00493412)
(0.0298598 -0.0056704 0.00578143)
(0.0159168 -0.004172 0.00627547)
(0.0020828 -0.00268966 0.00411954)
(-0.00715827 0.00207152 -0.00429309)
(0.00869894 -0.0163442 -0.00405899)
(0.0239078 -0.0106514 -0.00173659)
(0.0342142 -0.00721736 -0.000891217)
(0.0398225 -0.00249489 -0.00127147)
(0.0398805 -0.000494322 -0.00169252)
(0.0385985 0.00350783 -0.00317064)
(0.0314066 0.00506278 -0.00290598)
(0.0243396 0.0106281 -0.00714759)
(0.00679109 0.0162771 -0.00420591)
(-0.0171003 0.0249616 -0.00821036)
(-0.0541782 0.0319242 0.0007006)
(-0.101435 0.042638 -0.00403006)
(-0.153783 0.0622594 -0.00681703)
(-0.212184 0.0756435 -0.011311)
(-0.270316 0.0845917 -0.0182411)
(-0.348773 0.0930095 -0.0437183)
(-0.454321 0.0951358 -0.0586634)
(-0.500998 0.101265 -0.0761638)
(-0.587148 0.100353 -0.0981137)
(-0.541073 0.127662 -0.0958537)
(-0.406037 0.142717 -0.125891)
(-0.389557 0.187994 -0.135906)
(-0.373479 0.212206 -0.145819)
(-0.363962 0.23695 -0.157505)
(-0.325104 0.258364 -0.163736)
(-0.276472 0.279293 -0.165137)
(-0.204602 0.294741 -0.15354)
(-0.128988 0.300868 -0.133677)
(-0.0564616 0.305482 -0.109937)
(0.00786784 0.289602 -0.0765272)
(0.071429 0.25919 -0.0467852)
(0.108852 0.210867 -0.038965)
(0.121198 0.159563 -0.0263636)
(0.116182 0.108952 -0.0128236)
(0.0974946 0.0692987 -0.00535529)
(0.0781595 0.040768 -0.000993244)
(0.0536577 0.0260548 -5.67716e-06)
(0.0320686 0.0162375 0.00149973)
(0.00778727 0.00781605 0.00164145)
(-0.000551888 -0.00512482 0.00154134)
(0.0150255 -0.022301 -0.00184822)
(0.0318453 -0.0170673 -0.00288866)
(0.042577 -0.00498631 -0.00403362)
(0.0448841 0.00480532 -0.00574048)
(0.0426743 0.0160306 -0.00710018)
(0.0354007 0.0311719 -0.00825238)
(0.0211823 0.0453516 -0.00976214)
(0.00534724 0.0694211 -0.00187033)
(-0.0250529 0.0901023 -0.00496421)
(-0.0630171 0.116985 -0.00815296)
(-0.115967 0.149372 -0.0132803)
(-0.170939 0.183018 -0.0177629)
(-0.249286 0.211527 -0.0323343)
(-0.345528 0.2314 -0.0355817)
(-0.442048 0.245002 -0.0423123)
(-0.526679 0.250029 -0.0589884)
(-0.614891 0.269964 -0.077624)
(-0.656346 0.300065 -0.0953658)
(-0.727332 0.334599 -0.116048)
(-0.667331 0.372773 -0.105927)
(-0.505839 0.402236 -0.12379)
(-0.465827 0.459121 -0.12549)
(-0.438586 0.489965 -0.123447)
(-0.420047 0.522119 -0.126279)
(-0.376968 0.543704 -0.124771)
(-0.32783 0.558058 -0.120192)
(-0.261765 0.561321 -0.105049)
(-0.195511 0.551286 -0.0829519)
(-0.12976 0.531218 -0.0594329)
(-0.0741451 0.4998 -0.0400162)
(-0.0300356 0.452075 -0.027832)
(0.00360126 0.379501 -0.0170461)
(0.0258542 0.306882 -0.00853097)
(0.0391353 0.227322 -0.0108291)
(0.0455331 0.162607 -0.0109195)
(0.0460539 0.115056 -0.00726303)
(0.0373702 0.0780559 -0.0050388)
(0.0266305 0.0519405 -0.00134742)
(0.0077356 0.0255404 0.00139451)
(0.000593649 -0.00928807 0.00202999)
(0.0173552 -0.0234213 -0.00117465)
(0.0382069 -0.010724 -0.00366721)
(0.0458331 0.00643833 -0.00682323)
(0.0439176 0.030341 -0.00756368)
(0.0397801 0.0549329 -0.00922341)
(0.0270165 0.0902 -0.00900212)
(0.00832289 0.122934 -0.00585099)
(-0.018807 0.167599 -0.0106017)
(-0.0646409 0.207661 -0.0130096)
(-0.110604 0.251869 -0.0173366)
(-0.175507 0.288772 -0.0249188)
(-0.259757 0.317579 -0.0273424)
(-0.350596 0.334215 -0.0290726)
(-0.436699 0.355291 -0.031704)
(-0.516088 0.378818 -0.0365)
(-0.584854 0.409047 -0.0514976)
(-0.659918 0.437883 -0.0613513)
(-0.687377 0.479325 -0.0707729)
(-0.744246 0.52407 -0.0776961)
(-0.673407 0.557457 -0.0476473)
(-0.491003 0.577775 -0.0457566)
(-0.43668 0.62015 -0.0403016)
(-0.40972 0.626997 -0.0294925)
(-0.392295 0.640215 -0.0271375)
(-0.358402 0.640606 -0.0221441)
(-0.320931 0.633212 -0.0186779)
(-0.271584 0.614487 -0.0111126)
(-0.222922 0.588843 0.000851157)
(-0.177334 0.556218 0.00808461)
(-0.146059 0.515515 0.0130726)
(-0.120851 0.471064 0.011754)
(-0.0971353 0.41235 0.00597154)
(-0.0748716 0.349518 -0.00208456)
(-0.0515735 0.269787 -0.00568821)
(-0.0216795 0.202023 -0.0105647)
(-0.000919746 0.147182 -0.0107463)
(0.00808245 0.110957 -0.00803467)
(0.0163583 0.0777899 -0.00353047)
(0.00612599 0.0378115 0.0010994)
(0.00106813 -0.00954374 0.000709256)
(0.0233604 -0.0126119 -0.00422885)
(0.0456569 0.00431279 -0.00769492)
(0.0543779 0.0388243 -0.00864014)
(0.0518883 0.0761861 -0.0082015)
(0.0460302 0.12203 -0.015507)
(0.0276503 0.176793 -0.0132354)
(-0.000206634 0.236468 -0.00642844)
(-0.0331422 0.292505 -0.00797859)
(-0.0864898 0.339314 -0.0100981)
(-0.14706 0.376224 -0.0128559)
(-0.225829 0.396101 -0.0155101)
(-0.300447 0.418677 -0.0163365)
(-0.375393 0.443597 -0.0214335)
(-0.447876 0.473655 -0.0206703)
(-0.51566 0.506275 -0.0214468)
(-0.571524 0.534212 -0.0254059)
(-0.62763 0.569815 -0.0229107)
(-0.635518 0.615687 -0.0176788)
(-0.677779 0.662179 -0.0261065)
(-0.608269 0.690103 0.00415925)
(-0.419548 0.695251 0.0163393)
(-0.360765 0.708454 0.0274601)
(-0.343149 0.682078 0.0365451)
(-0.337746 0.665161 0.0369128)
(-0.323133 0.638903 0.0426866)
(-0.305715 0.606973 0.0439338)
(-0.274863 0.570204 0.0479905)
(-0.246823 0.529155 0.0412387)
(-0.221357 0.489531 0.0330843)
(-0.201261 0.444582 0.0229843)
(-0.191386 0.411495 0.0157263)
(-0.183067 0.374091 0.00810411)
(-0.176872 0.343298 -0.0039149)
(-0.15393 0.278592 -0.0136839)
(-0.104475 0.209127 -0.0145954)
(-0.0529778 0.161187 -0.0138604)
(-0.0173681 0.130743 -0.0117521)
(0.00259027 0.0965265 -0.00622058)
(0.00326433 0.0475468 0.00108404)
(0.00577745 -0.00422604 -0.000146417)
(0.0284107 0.00236687 -0.00668103)
(0.0598937 0.0290634 -0.00636818)
(0.0718748 0.0812052 -0.0100565)
(0.0662629 0.139116 -0.0149942)
(0.0625801 0.202776 -0.0187189)
(0.0460636 0.278243 -0.0139612)
(0.0117126 0.331695 -0.00515763)
(-0.0416948 0.376614 -0.00554972)
(-0.112196 0.410524 -0.00766295)
(-0.181404 0.440234 -0.00978045)
(-0.246555 0.467768 -0.00996356)
(-0.306028 0.501321 -0.00822439)
(-0.364599 0.529186 -0.00522678)
(-0.414649 0.558983 0.000536334)
(-0.467075 0.587331 0.00607739)
(-0.49959 0.617366 0.00876181)
(-0.534354 0.648599 0.00852071)
(-0.53661 0.696503 0.0106147)
(-0.565503 0.731259 0.00938452)
(-0.499704 0.755911 0.038001)
(-0.328172 0.706732 0.0524945)
(-0.285614 0.688926 0.0627357)
(-0.289833 0.631636 0.0747207)
(-0.299235 0.591009 0.0769161)
(-0.303505 0.548266 0.0765543)
(-0.302141 0.505518 0.0738645)
(-0.291475 0.463673 0.0675465)
(-0.276917 0.416587 0.065378)
(-0.265503 0.378186 0.0442676)
(-0.255725 0.334733 0.0329355)
(-0.244769 0.304078 0.0181743)
(-0.230762 0.278323 0.00709219)
(-0.238171 0.266457 -0.00472521)
(-0.241598 0.242223 -0.0166138)
(-0.175653 0.193288 -0.014624)
(-0.0935795 0.162166 -0.0154505)
(-0.040942 0.136177 -0.0120755)
(-0.00499862 0.104546 -0.00701492)
(0.00230286 0.051118 0.00161424)
(0.00680907 0.00121471 -0.00071492)
(0.0380307 0.0153663 -0.0102043)
(0.0808458 0.0560067 -0.0103214)
(0.105264 0.111232 -0.0124348)
(0.100263 0.176865 -0.017231)
(0.0975709 0.250375 -0.0198081)
(0.0581237 0.317047 -0.0128462)
(-0.00613926 0.34604 0.0014578)
(-0.0569374 0.389787 -0.00351397)
(-0.114353 0.428159 -0.00410332)
(-0.163324 0.473123 -0.00412964)
(-0.214499 0.515247 -0.00223051)
(-0.261228 0.554839 0.0011642)
(-0.308454 0.588293 0.00629941)
(-0.348357 0.621277 0.0143032)
(-0.38339 0.646086 0.0196828)
(-0.406188 0.67363 0.0258159)
(-0.424366 0.685534 0.0291405)
(-0.413655 0.711329 0.0271404)
(-0.434195 0.724064 0.0177326)
(-0.428588 0.744047 0.0341864)
(-0.29135 0.637723 0.0556685)
(-0.234939 0.588437 0.0599216)
(-0.256109 0.526019 0.0718198)
(-0.275927 0.483801 0.0719831)
(-0.296926 0.445324 0.0712655)
(-0.311436 0.410202 0.0673674)
(-0.317369 0.375711 0.0601152)
(-0.316008 0.338881 0.0469295)
(-0.316565 0.30461 0.0310765)
(-0.313394 0.271573 0.0177687)
(-0.305268 0.243611 0.00513098)
(-0.291032 0.223596 -0.00331866)
(-0.286577 0.208113 -0.010564)
(-0.289749 0.218811 -0.019319)
(-0.227708 0.193703 -0.0212102)
(-0.128171 0.167823 -0.0221864)
(-0.0563216 0.147239 -0.0171136)
(-0.0101854 0.113615 -0.0109762)
(0.00225659 0.0560834 -0.000144341)
(0.0072598 0.00768212 -0.00370642)
(0.045431 0.0341723 -0.0138405)
(0.0994397 0.0833028 -0.0138898)
(0.125294 0.139357 -0.011587)
(0.128307 0.198565 -0.0125183)
(0.116822 0.271822 -0.0134261)
(0.0560495 0.303859 -0.00312736)
(0.00525625 0.351705 0.0045724)
(-0.0270448 0.398086 0.000418273)
(-0.0773373 0.451865 0.00194275)
(-0.119893 0.496493 0.00253727)
(-0.163119 0.534271 0.0090544)
(-0.199531 0.568107 0.0148578)
(-0.231393 0.595286 0.0230408)
(-0.25868 0.621468 0.0274727)
(-0.287783 0.636775 0.0317307)
(-0.306061 0.648713 0.0345891)
(-0.324334 0.64714 0.0338815)
(-0.321982 0.642724 0.0311299)
(-0.335441 0.618207 0.0153518)
(-0.37776 0.623613 0.016847)
(-0.293957 0.543323 0.0361201)
(-0.223075 0.461037 0.0388376)
(-0.24437 0.419599 0.0500392)
(-0.271771 0.384079 0.0534771)
(-0.30288 0.358892 0.0547011)
(-0.327546 0.333231 0.0556095)
(-0.344841 0.307266 0.048187)
(-0.354751 0.279601 0.0386351)
(-0.3621 0.249507 0.0164421)
(-0.363291 0.218014 0.0076446)
(-0.353498 0.19336 -0.00170456)
(-0.338605 0.180633 -0.00920293)
(-0.320943 0.171241 -0.0131933)
(-0.328016 0.192794 -0.0226368)
(-0.277624 0.197126 -0.0211781)
(-0.162257 0.173283 -0.0228314)
(-0.0748554 0.15657 -0.0177631)
(-0.0153226 0.120971 -0.0105878)
(0.00327868 0.059992 0.000664196)
(0.00595514 0.0206117 -0.00638393)
(0.0538201 0.0653555 -0.0179274)
(0.119787 0.121812 -0.0194536)
(0.151946 0.177641 -0.0136631)
(0.160236 0.239006 -0.0142259)
(0.130616 0.291863 -0.0133419)
(0.0743558 0.325788 -0.00365029)
(0.0344282 0.383914 0.00407042)
(0.00688931 0.421585 0.0102624)
(-0.0277403 0.462462 0.00995177)
(-0.0675864 0.500139 0.0142004)
(-0.0994655 0.527764 0.0196458)
(-0.125824 0.550864 0.0270823)
(-0.151092 0.564493 0.0334852)
(-0.174622 0.569575 0.0357945)
(-0.200544 0.566401 0.0363039)
(-0.222808 0.560602 0.0350021)
(-0.249717 0.544252 0.0302872)
(-0.270585 0.530254 0.0242721)
(-0.286037 0.495824 0.0101529)
(-0.337866 0.485575 -0.000415869)
(-0.317259 0.456143 0.0107678)
(-0.243669 0.357213 0.0202086)
(-0.243262 0.338936 0.0262986)
(-0.275863 0.313799 0.0340595)
(-0.311056 0.298961 0.0381847)
(-0.345065 0.281187 0.0434049)
(-0.369847 0.259535 0.0391364)
(-0.389885 0.236181 0.0237118)
(-0.406871 0.203295 0.00794299)
(-0.408851 0.178572 -0.00191128)
(-0.395715 0.155533 -0.00756945)
(-0.380268 0.142258 -0.0129343)
(-0.352236 0.142965 -0.0215808)
(-0.341758 0.15613 -0.0253293)
(-0.307488 0.192226 -0.0296501)
(-0.197859 0.176141 -0.0266745)
(-0.0901008 0.166147 -0.0248766)
(-0.0203388 0.131178 -0.0138678)
(0.00420037 0.0663876 -0.00153476)
(0.00770186 0.0366018 -0.00906348)
(0.0628738 0.10346 -0.0255324)
(0.138404 0.164068 -0.0245307)
(0.177329 0.217986 -0.0149413)
(0.180367 0.272519 -0.0155999)
(0.149285 0.305846 -0.0145405)
(0.105948 0.352027 -0.00473554)
(0.0732672 0.399066 0.00706654)
(0.0427446 0.437412 0.0141366)
(0.0181151 0.464028 0.0249441)
(-0.00852626 0.48745 0.0220112)
(-0.0394589 0.500705 0.0324227)
(-0.0627249 0.509403 0.0376391)
(-0.0862425 0.500782 0.0433101)
(-0.109512 0.486173 0.0436423)
(-0.136653 0.463183 0.0404962)
(-0.16437 0.440497 0.0351138)
(-0.195659 0.41475 0.0273736)
(-0.227468 0.397964 0.018581)
(-0.257766 0.378755 0.00450655)
(-0.310351 0.362731 -0.00857803)
(-0.341566 0.362308 -0.0071208)
(-0.275837 0.294121 0.00925659)
(-0.241371 0.284197 0.011588)
(-0.27696 0.266418 0.0224513)
(-0.312553 0.258585 0.0294434)
(-0.35243 0.239877 0.0388416)
(-0.384661 0.223661 0.0324849)
(-0.413355 0.194154 0.0244246)
(-0.428333 0.167751 0.00890269)
(-0.4337 0.139879 0.0100449)
(-0.42819 0.117945 0.0166344)
(-0.408268 0.0986368 0.013126)
(-0.382549 0.100336 0.00848998)
(-0.36238 0.113717 -0.0142911)
(-0.330545 0.162102 -0.0253067)
(-0.228265 0.173303 -0.0255697)
(-0.108009 0.166225 -0.0216558)
(-0.0262173 0.138914 -0.0129908)
(0.00517593 0.0707492 -0.000359015)
(0.00881083 0.0597369 -0.0116606)
(0.0717335 0.147044 -0.0318157)
(0.156346 0.211203 -0.031076)
(0.201346 0.260585 -0.0188209)
(0.199918 0.299399 -0.0117454)
(0.174017 0.332539 -0.014736)
(0.145586 0.373042 -0.00409569)
(0.114578 0.410575 0.00354845)
(0.0892302 0.439433 0.0118078)
(0.0611762 0.460876 0.0276562)
(0.0327279 0.466689 0.0362707)
(0.0150905 0.467494 0.0464831)
(-0.00825577 0.455456 0.0470366)
(-0.0379205 0.433733 0.0496527)
(-0.064956 0.405755 0.0482339)
(-0.0966897 0.373655 0.0420927)
(-0.129411 0.344377 0.0336905)
(-0.165405 0.317342 0.0244563)
(-0.200641 0.300999 0.0155885)
(-0.239034 0.287457 0.00262792)
(-0.28952 0.277245 -0.0077763)
(-0.336188 0.280885 -0.0117295)
(-0.281379 0.261112 0.00204959)
(-0.23547 0.247637 0.00300422)
(-0.265495 0.235189 0.0153822)
(-0.303956 0.223457 0.0237938)
(-0.349196 0.208675 0.0329839)
(-0.385797 0.186414 0.0306603)
(-0.418335 0.160986 0.019877)
(-0.441371 0.131392 0.029462)
(-0.455256 0.0968566 0.0310082)
(-0.456403 0.0686365 0.0172572)
(-0.441885 0.0536619 0.012365)
(-0.407787 0.050722 0.00369555)
(-0.369811 0.0653344 -0.00141399)
(-0.338663 0.113177 -0.0235789)
(-0.252529 0.152857 -0.0288185)
(-0.125177 0.162945 -0.0238456)
(-0.0292941 0.143275 -0.0151332)
(0.00454506 0.075818 -0.00202198)
(0.00983503 0.0783857 -0.0123702)
(0.0777162 0.186897 -0.0357935)
(0.170085 0.253977 -0.0343359)
(0.214914 0.292351 -0.01806)
(0.218808 0.320531 -0.0102906)
(0.203234 0.352847 -0.00772213)
(0.180234 0.384654 -0.006467)
(0.153881 0.409267 0.006592)
(0.127187 0.42976 0.0120435)
(0.102927 0.438688 0.023751)
(0.0799101 0.442367 0.0357242)
(0.0512209 0.431789 0.0509566)
(0.0255471 0.406682 0.0552202)
(0.000911007 0.372441 0.0548474)
(-0.030908 0.340427 0.0485873)
(-0.0661578 0.307484 0.0398315)
(-0.103315 0.281225 0.02887)
(-0.14017 0.258761 0.0194215)
(-0.178813 0.249757 0.0103884)
(-0.222186 0.238537 0.000339001)
(-0.269249 0.234521 -0.00748035)
(-0.313517 0.235286 -0.0118783)
(-0.266261 0.237121 -0.000759808)
(-0.218304 0.221455 -0.00175498)
(-0.245869 0.206166 0.0104391)
(-0.281737 0.190669 0.0195676)
(-0.329786 0.174144 0.0275441)
(-0.369975 0.151482 0.0218876)
(-0.406821 0.124397 0.0378662)
(-0.439349 0.0896269 0.0448311)
(-0.460878 0.0559764 0.0384751)
(-0.462327 0.0301281 0.0493269)
(-0.454793 0.00755123 0.0386819)
(-0.436164 0.00388121 0.0345733)
(-0.397942 0.0131228 0.0246338)
(-0.354215 0.0596513 0.0033686)
(-0.265569 0.114861 -0.0255927)
(-0.139303 0.150583 -0.025413)
(-0.0354177 0.141712 -0.0146549)
(0.0056595 0.07875 -0.00198853)
(0.0105016 0.100128 -0.011468)
(0.0826746 0.228234 -0.038161)
(0.175944 0.296081 -0.0372745)
(0.226242 0.325208 -0.018894)
(0.240974 0.347565 -0.00603624)
(0.233199 0.371234 -0.000328195)
(0.212446 0.393561 0.00399076)
(0.188084 0.408265 0.00487669)
(0.166931 0.418003 0.0150997)
(0.1436 0.420187 0.0256536)
(0.116714 0.411062 0.0350533)
(0.0897941 0.392298 0.0420809)
(0.0564466 0.364362 0.0549806)
(0.0245772 0.32809 0.0550799)
(-0.00436699 0.28805 0.0477956)
(-0.0413531 0.26147 0.0350827)
(-0.0807535 0.237581 0.0230244)
(-0.116676 0.221387 0.01454)
(-0.156073 0.215561 0.00567493)
(-0.200189 0.20732 -0.000239891)
(-0.241828 0.207976 -0.00668534)
(-0.27761 0.205079 -0.00971767)
(-0.234413 0.225604 -0.00201108)
(-0.194793 0.20243 -0.00408444)
(-0.216395 0.179709 0.00666941)
(-0.251222 0.158375 0.0149685)
(-0.297621 0.135283 0.0197641)
(-0.340465 0.113268 0.0326604)
(-0.385179 0.0808927 0.044812)
(-0.423086 0.0488248 0.0462766)
(-0.445981 0.0169898 0.0662351)
(-0.470592 -0.0203486 0.0469796)
(-0.477019 -0.0602112 0.0343717)
(-0.459905 -0.0807027 0.0122861)
(-0.418608 -0.0683208 0.00402263)
(-0.372567 -0.020772 0.00762054)
(-0.286555 0.0639606 -0.00265932)
(-0.154053 0.120903 -0.031319)
(-0.0403916 0.135389 -0.0145497)
(0.00570122 0.0816989 -0.00352213)
(0.0100198 0.105911 -0.0106115)
(0.0812427 0.250748 -0.0404568)
(0.1763 0.321698 -0.0411375)
(0.232258 0.348138 -0.0219536)
(0.257777 0.362216 -0.00364882)
(0.257498 0.374129 0.0059609)
(0.239 0.386097 0.0122166)
(0.21647 0.394881 0.0156059)
(0.196192 0.400339 0.018793)
(0.173535 0.395004 0.022886)
(0.149543 0.380476 0.0289965)
(0.117527 0.356731 0.0398384)
(0.0835275 0.324361 0.0415424)
(0.0459763 0.292045 0.0496659)
(0.0150805 0.255647 0.0458784)
(-0.0163536 0.226118 0.0285443)
(-0.0582982 0.207823 0.0176313)
(-0.0905208 0.19428 0.0103882)
(-0.129515 0.188692 0.00270852)
(-0.168811 0.184224 -9.53114e-05)
(-0.206672 0.181867 -0.00524022)
(-0.222259 0.187345 -0.00416396)
(-0.188442 0.215405 -0.00132119)
(-0.172248 0.184744 -0.00208037)
(-0.189472 0.153274 0.00323715)
(-0.217959 0.122547 0.0107595)
(-0.258871 0.0995017 0.0156718)
(-0.301516 0.0706367 0.0334714)
(-0.346901 0.0430055 0.0407488)
(-0.384364 0.0134026 0.0622651)
(-0.43222 -0.02797 0.0459899)
(-0.473748 -0.0809404 0.0382082)
(-0.49079 -0.124936 0.0237304)
(-0.477717 -0.157112 0.0127858)
(-0.436695 -0.159337 -0.00775034)
(-0.375917 -0.119076 -0.00718591)
(-0.29266 -0.0175853 -0.00121052)
(-0.172054 0.0786969 -0.0172315)
(-0.0447226 0.120263 -0.0203919)
(0.00697601 0.0812352 -0.00229575)
(0.00889637 0.116762 -0.00846106)
(0.080245 0.275882 -0.0397016)
(0.176254 0.351581 -0.0424291)
(0.238617 0.375367 -0.0227878)
(0.271216 0.381744 -0.00238095)
(0.276569 0.380861 0.0116112)
(0.264893 0.383598 0.0213401)
(0.247866 0.386356 0.0240738)
(0.229035 0.385142 0.0268493)
(0.205103 0.374529 0.0289493)
(0.178174 0.356015 0.030743)
(0.146505 0.326783 0.0291816)
(0.109424 0.295873 0.0305241)
(0.070388 0.259364 0.032586)
(0.03282 0.232805 0.0347892)
(0.00108603 0.199285 0.0228209)
(-0.0327365 0.18297 0.0119285)
(-0.0647571 0.173072 0.00707904)
(-0.0974065 0.164238 0.000966196)
(-0.134815 0.158995 -0.000484598)
(-0.159029 0.158699 -0.00142229)
(-0.157043 0.181199 0.00268105)
(-0.142893 0.187995 0.00027103)
(-0.153573 0.158622 -0.000442342)
(-0.166908 0.126397 0.00250985)
(-0.184472 0.0907285 0.00666099)
(-0.219047 0.0638541 0.0196108)
(-0.257276 0.0344471 0.0286901)
(-0.295907 0.00806157 0.0477436)
(-0.349161 -0.0304409 0.0409738)
(-0.406153 -0.0826915 0.0385767)
(-0.454426 -0.133834 0.0285745)
(-0.484474 -0.185272 0.017891)
(-0.487523 -0.225784 0.00233303)
(-0.453341 -0.244557 -0.0130765)
(-0.387184 -0.213826 -0.021318)
(-0.296987 -0.124398 -0.0187075)
(-0.180953 0.0203553 0.0010739)
(-0.054211 0.0991006 -0.0268855)
(0.00595022 0.0838884 -0.00360977)
(0.00654633 0.0963491 -0.00868697)
(0.0740106 0.269068 -0.0398043)
(0.170258 0.350744 -0.0416955)
(0.237207 0.375052 -0.0222968)
(0.276967 0.376135 0.00111172)
(0.290981 0.371037 0.0151918)
(0.286696 0.369508 0.0213403)
(0.270431 0.364387 0.0250418)
(0.250619 0.356268 0.0275265)
(0.227644 0.343446 0.0284909)
(0.200798 0.322907 0.0282228)
(0.16732 0.297595 0.0249995)
(0.129004 0.265448 0.0205864)
(0.0907286 0.234909 0.0143659)
(0.0527303 0.208045 0.0190834)
(0.0201344 0.186653 0.0128407)
(-0.00624829 0.166751 0.00718744)
(-0.0347547 0.155281 0.00218115)
(-0.0675993 0.143884 -0.0006986)
(-0.092824 0.143055 0.000511579)
(-0.0967272 0.154147 0.00382912)
(-0.100277 0.163715 0.00441776)
(-0.112163 0.152879 0.003074)
(-0.129396 0.128133 0.00223961)
(-0.146005 0.104806 0.00282084)
(-0.160156 0.0661807 0.00542519)
(-0.184115 0.0366041 0.0155839)
(-0.214394 0.00765283 0.0314363)
(-0.257692 -0.0262973 0.0311327)
(-0.312441 -0.0721381 0.0340672)
(-0.368172 -0.120202 0.0303609)
(-0.420886 -0.176742 0.0259787)
(-0.459236 -0.235211 0.0158501)
(-0.475537 -0.289989 0.00234903)
(-0.453995 -0.322571 -0.0149984)
(-0.395033 -0.311892 -0.027853)
(-0.291045 -0.232561 -0.0314387)
(-0.180516 -0.0797507 -0.0193242)
(-0.0599844 0.0537535 -0.0194531)
(0.00772165 0.0724484 -0.00811315)
(0.00694099 0.105705 -0.00381192)
(0.0727381 0.284898 -0.0342722)
(0.167817 0.370421 -0.0391917)
(0.241128 0.39241 -0.0184894)
(0.290433 0.387939 0.00618625)
(0.314091 0.374163 0.0152057)
(0.312827 0.364421 0.0229823)
(0.297366 0.353223 0.02471)
(0.279954 0.343051 0.0237373)
(0.256387 0.32583 0.0212059)
(0.229957 0.302496 0.0182861)
(0.195761 0.273418 0.0136913)
(0.155394 0.243144 0.00953643)
(0.11606 0.21289 0.00610523)
(0.0782245 0.189415 0.00465307)
(0.0445541 0.171437 0.00291815)
(0.0149815 0.15936 0.000283474)
(-0.00921918 0.147308 -0.000873678)
(-0.0284171 0.14376 -0.000577432)
(-0.0394582 0.145579 0.00165162)
(-0.0494758 0.147615 0.00410908)
(-0.0661333 0.134978 0.00619249)
(-0.083476 0.12049 0.00561903)
(-0.103255 0.100429 0.00465911)
(-0.125553 0.0800818 0.00706051)
(-0.141359 0.0507257 0.00563595)
(-0.155723 0.0153187 0.0133013)
(-0.185443 -0.0176003 0.0151373)
(-0.226102 -0.0592076 0.0201684)
(-0.275437 -0.101129 0.0216191)
(-0.330044 -0.149174 0.0231691)
(-0.383299 -0.205554 0.0209895)
(-0.426232 -0.267224 0.0152726)
(-0.451629 -0.332563 0.00335366)
(-0.442644 -0.381808 -0.0131176)
(-0.394013 -0.394311 -0.0301934)
(-0.301122 -0.330267 -0.0438925)
(-0.185907 -0.18099 -0.0327949)
(-0.0587599 0.0111468 -0.00877777)
(0.00662167 0.0723253 -0.012143)
(-0.00332579 0.0776562 -0.0152848)
(0.0515878 0.26541 -0.0405315)
(0.148259 0.361223 -0.0463562)
(0.229096 0.385419 -0.0264912)
(0.288036 0.382801 -0.00499055)
(0.32293 0.362296 0.00824246)
(0.332681 0.345301 0.0144491)
(0.320494 0.326796 0.0151199)
(0.300505 0.313478 0.0139493)
(0.27369 0.302039 0.0104783)
(0.244588 0.288031 0.0076511)
(0.210642 0.268512 0.00446805)
(0.171805 0.246394 0.00199786)
(0.135212 0.224374 0.0002628)
(0.101846 0.204022 0.00138229)
(0.074035 0.193345 0.000648798)
(0.0501105 0.185415 -0.00496354)
(0.0302465 0.174774 -0.00253125)
(0.0131112 0.166874 -0.00206081)
(-0.00433856 0.15467 0.00213037)
(-0.0211213 0.133803 0.00495297)
(-0.0402987 0.114862 0.00726116)
(-0.0591342 0.0956929 0.00651096)
(-0.0804343 0.0774847 0.00656062)
(-0.102771 0.0586673 0.00323656)
(-0.125628 0.0385505 0.00300648)
(-0.143286 0.00550204 0.00213188)
(-0.166911 -0.0303838 0.00459302)
(-0.201743 -0.0677066 0.00799634)
(-0.242493 -0.112635 0.0121634)
(-0.289457 -0.164494 0.0145011)
(-0.338166 -0.229862 0.0144145)
(-0.38284 -0.301494 0.0100822)
(-0.415191 -0.380345 0.000695997)
(-0.417715 -0.445223 -0.0138649)
(-0.378627 -0.475616 -0.0313154)
(-0.288818 -0.433495 -0.0549634)
(-0.176433 -0.304063 -0.0515091)
(-0.0518865 -0.0770481 -0.0177218)
(0.00719917 0.047096 -0.00468206)
(-0.00395547 0.153881 -0.00577118)
(0.0477382 0.358705 -0.0205804)
(0.138003 0.4579 -0.0314276)
(0.221787 0.479733 -0.0118333)
(0.288953 0.468087 -0.00460512)
(0.330313 0.43644 0.0122942)
(0.346277 0.400955 0.0159162)
(0.340901 0.386534 0.0182307)
(0.335053 0.390346 0.0143994)
(0.316412 0.390013 0.00985447)
(0.287801 0.380212 0.00411969)
(0.250298 0.358858 0.000196153)
(0.208992 0.328858 -0.00284489)
(0.167997 0.298347 -0.00346881)
(0.135414 0.26804 -0.00288262)
(0.109327 0.242351 0.00107589)
(0.0774648 0.219154 -0.00536044)
(0.0526966 0.199404 -0.00793444)
(0.0328899 0.172882 -0.00535124)
(0.00931304 0.149577 -0.00294334)
(-0.00801759 0.125354 0.00373474)
(-0.0238071 0.0991205 0.00587293)
(-0.0407733 0.0794303 0.00676974)
(-0.059465 0.0588144 0.00807854)
(-0.0809788 0.0389921 0.00105706)
(-0.105751 0.0198704 0.00251473)
(-0.12735 -0.000607011 0.00160345)
(-0.148836 -0.0335551 -0.00369196)
(-0.181603 -0.0729601 -0.00589767)
(-0.223466 -0.117475 -0.0045348)
(-0.271024 -0.161711 0.000159638)
(-0.316822 -0.217015 0.00544656)
(-0.357743 -0.284594 0.00768437)
(-0.388643 -0.368619 0.00261)
(-0.392604 -0.450614 -0.011629)
(-0.36595 -0.518775 -0.0368534)
(-0.303514 -0.516565 -0.0670234)
(-0.190837 -0.390242 -0.0609059)
(-0.0497938 -0.168116 -0.0372368)
(0.00958345 0.0278545 -0.00484136)
(-0.0181602 0.237914 -0.0235311)
(0.0187243 0.478605 -0.0433556)
(0.108491 0.588454 -0.0517316)
(0.193834 0.627992 -0.0372952)
(0.265724 0.619166 -0.0263973)
(0.314331 0.589665 -0.00977522)
(0.356104 0.545766 0.000257825)
(0.387198 0.519861 0.000655579)
(0.383974 0.506488 -0.00524596)
(0.347615 0.484225 -0.00918798)
(0.302178 0.454107 -0.0108151)
(0.251694 0.416031 -0.0116268)
(0.205193 0.37217 -0.0111473)
(0.166698 0.328445 -0.00972345)
(0.134013 0.287197 -0.00754228)
(0.108684 0.248011 -0.00375477)
(0.0885237 0.213389 0.000498437)
(0.064231 0.185758 -0.00378316)
(0.0421491 0.160825 -0.00450559)
(0.0260123 0.13341 -0.0025421)
(0.00462447 0.111567 0.000335491)
(-0.0115304 0.0871174 0.00480113)
(-0.0255022 0.0637718 0.00580432)
(-0.0465821 0.0420281 0.00528992)
(-0.0651373 0.0212235 0.00356016)
(-0.084122 0.00227174 0.00726014)
(-0.108334 -0.0133222 0.00615554)
(-0.139455 -0.0359295 0.00403778)
(-0.169209 -0.0658168 0.00220749)
(-0.191895 -0.108557 -0.00137981)
(-0.220927 -0.16017 -0.00724358)
(-0.258243 -0.232985 -0.0140702)
(-0.300558 -0.31992 -0.0190684)
(-0.339244 -0.431346 -0.0247944)
(-0.367027 -0.53541 -0.0328398)
(-0.364429 -0.636428 -0.0501589)
(-0.293106 -0.663902 -0.0731643)
(-0.210029 -0.555073 -0.086543)
(-0.0800206 -0.271459 -0.0492456)
(0.0133145 0.00528911 -0.0054277)
(0.000334017 0.207124 0.00148189)
(0.0384386 0.450481 -0.0357031)
(0.112467 0.575841 -0.0481738)
(0.197249 0.632327 -0.0439854)
(0.268023 0.637046 -0.0358602)
(0.318415 0.617623 -0.024545)
(0.357058 0.581449 -0.0175057)
(0.383816 0.539931 -0.00828097)
(0.38209 0.498089 -0.00974905)
(0.347835 0.460812 -0.00880491)
(0.305113 0.423825 -0.00832223)
(0.256433 0.386061 -0.0065902)
(0.210921 0.345867 -0.00517903)
(0.172118 0.307898 -0.00334125)
(0.142048 0.269485 -0.00291677)
(0.119663 0.234804 -0.000386857)
(0.0963367 0.199151 0.000669487)
(0.0792217 0.16818 0.00311881)
(0.0575431 0.146315 0.00249644)
(0.0344953 0.121934 -0.00156923)
(0.0180297 0.099683 0.00110088)
(-0.000947844 0.0768664 0.00273096)
(-0.0160987 0.0533688 0.00710396)
(-0.0319839 0.0309604 0.00654225)
(-0.0487538 0.0138856 0.005645)
(-0.0647096 -0.00568496 0.00875787)
(-0.08359 -0.0221601 0.00913494)
(-0.109676 -0.0386893 0.00632541)
(-0.147865 -0.0516372 0.00316734)
(-0.189508 -0.0788222 0.00343342)
(-0.23699 -0.121 0.00593419)
(-0.281609 -0.188612 0.00836761)
(-0.320762 -0.275028 0.00836482)
(-0.336414 -0.403908 0.00144644)
(-0.339204 -0.546218 -0.00969646)
(-0.330967 -0.688411 -0.0226681)
(-0.275046 -0.768099 -0.0445749)
(-0.165354 -0.742898 -0.0620505)
(-0.0431918 -0.460669 -0.0652693)
(0.00824909 -0.0948129 0.00623513)
(0.000335665 0.222899 -0.00105878)
(0.0370711 0.441506 -0.03133)
(0.104926 0.565004 -0.0421626)
(0.182716 0.621497 -0.0400505)
(0.252005 0.627398 -0.0256512)
(0.304842 0.605775 -0.0193264)
(0.349151 0.567576 -0.0100051)
(0.380136 0.527617 -0.00337341)
(0.38154 0.483128 -0.00320908)
(0.350918 0.447024 -0.00225756)
(0.306471 0.409893 -0.00169577)
(0.25593 0.371054 -0.000562874)
(0.212082 0.332515 0.000185474)
(0.176566 0.295272 0.000779933)
(0.146608 0.259541 0.00130774)
(0.12248 0.222613 0.00274382)
(0.103597 0.186889 0.00411654)
(0.0902142 0.152564 0.00584379)
(0.0715994 0.125894 0.005919)
(0.0521394 0.104999 0.00689232)
(0.0297093 0.0859936 0.00296187)
(0.0104503 0.0647553 0.00270146)
(-0.00393283 0.0428413 0.00863373)
(-0.0183331 0.0238775 0.00735107)
(-0.032524 0.00323385 0.00661734)
(-0.0478744 -0.0140369 0.0085945)
(-0.0637632 -0.033709 0.00941261)
(-0.0829355 -0.054415 0.00970463)
(-0.110461 -0.0709154 0.00829486)
(-0.142885 -0.0889912 0.0061488)
(-0.183538 -0.106874 0.00609618)
(-0.226822 -0.143491 0.00624982)
(-0.287906 -0.194277 0.00828547)
(-0.342601 -0.286131 0.011781)
(-0.369454 -0.407009 0.0112313)
(-0.370779 -0.562878 0.00668304)
(-0.329374 -0.681411 -0.00711841)
(-0.228677 -0.711907 -0.0298928)
(-0.0602602 -0.50147 -0.0439418)
(0.0254931 -0.0800069 -0.02234)
(0.00676011 0.197171 -0.00150051)
(0.0453337 0.39551 -0.0253863)
(0.106678 0.527094 -0.0349389)
(0.181145 0.58876 -0.0341804)
(0.247832 0.605337 -0.0219112)
(0.299665 0.587744 -0.0142782)
(0.345644 0.551829 -0.00500519)
(0.374391 0.508561 0.000943446)
(0.377359 0.459253 0.00154165)
(0.35122 0.417856 0.00181688)
(0.306669 0.377816 0.00261094)
(0.258986 0.340871 0.00403448)
(0.217905 0.306318 0.00459636)
(0.183818 0.27222 0.00510099)
(0.154533 0.238805 0.00485004)
(0.131436 0.204997 0.00545159)
(0.108836 0.173125 0.00633561)
(0.0978601 0.138188 0.00934664)
(0.0861007 0.110037 0.0102184)
(0.0671039 0.0873154 0.0093124)
(0.0473208 0.0732237 0.00881216)
(0.0235632 0.0537473 0.00795694)
(0.00973554 0.0359276 0.00587823)
(-0.00462817 0.0175446 0.00652498)
(-0.0184197 -0.00195015 0.0083666)
(-0.0310277 -0.0211739 0.00799403)