/*--------------------------------*- C++ -*----------------------------------*\
| =========                 |                                                 |
| \\      /  F ield         | OpenFOAM: The Open Source CFD Toolbox           |
|  \\    /   O peration     | Version:  v1806                                 |
|   \\  /    A nd           | Web:      www.OpenFOAM.com                      |
|    \\/     M anipulation  |                                                 |
\*---------------------------------------------------------------------------*/
FoamFile
{
    version     2.0;
    format      ascii;
    class       volScalarField;
    location    "0.0595";
    object      p;
}
// * * * * * * * * * * * * * * * * * * * * * * * * * * * * * * * * * * * * * //

dimensions      [0 2 -2 0 0 0 0];


internalField   nonuniform List<scalar> 
64000
(
3.22321e-07
-0.100252
-0.214056
-0.280485
-0.338556
-0.382484
-0.42609
-0.467812
-0.500119
-0.546355
-0.562024
-0.623345
-0.645973
-0.695383
-0.712218
-0.757203
-0.729516
-0.805808
-0.687431
-0.934427
-0.612176
-0.942606
-0.791505
-0.920824
-0.781678
-0.762218
-0.662099
-0.595015
-0.581152
-0.547789
-0.595677
-0.608905
-0.695604
-0.726874
-0.787649
-0.795499
-0.834138
-0.828605
-0.849797
-0.844513
-0.106796
-0.205167
-0.271885
-0.296614
-0.34898
-0.385144
-0.422931
-0.461103
-0.491205
-0.532475
-0.551813
-0.58896
-0.604414
-0.626042
-0.633333
-0.649554
-0.691126
-0.755753
-0.645508
-0.838438
-0.556996
-0.852589
-0.746654
-0.852786
-0.712929
-0.694215
-0.608168
-0.55973
-0.543436
-0.532487
-0.574142
-0.575874
-0.662864
-0.693089
-0.754616
-0.764784
-0.805227
-0.810152
-0.83936
-0.839399
-0.247447
-0.281909
-0.319642
-0.31738
-0.363839
-0.39244
-0.426021
-0.455156
-0.483295
-0.518275
-0.551172
-0.595275
-0.612521
-0.688809
-0.726932
-0.786041
-0.77493
-0.849721
-0.752559
-0.97434
-0.758062
-1.08338
-1.05792
-1.20547
-1.11868
-1.12835
-1.07149
-1.02081
-0.986525
-0.911219
-0.903807
-0.849919
-0.867065
-0.822909
-0.831382
-0.819233
-0.838011
-0.837345
-0.856633
-0.856738
-0.326327
-0.334623
-0.352363
-0.358865
-0.368591
-0.397302
-0.431123
-0.464883
-0.512534
-0.549613
-0.580816
-0.653035
-0.729943
-0.801667
-0.840046
-0.89294
-0.920409
-1.02007
-0.963259
-1.20788
-1.03215
-1.36602
-1.39881
-1.56901
-1.51156
-1.5324
-1.47563
-1.41976
-1.35589
-1.2591
-1.1867
-1.07286
-1.01602
-0.951285
-0.904939
-0.871367
-0.89168
-0.868204
-0.884402
-0.882721
-0.383731
-0.376141
-0.403046
-0.390199
-0.404942
-0.415877
-0.467672
-0.484868
-0.553481
-0.622733
-0.750205
-0.877752
-0.937043
-1.02952
-1.08291
-1.16197
-1.19491
-1.28654
-1.2311
-1.47833
-1.34094
-1.65916
-1.72822
-1.89581
-1.87102
-1.88571
-1.83688
-1.76432
-1.70029
-1.58392
-1.49368
-1.36153
-1.23437
-1.10213
-0.985473
-0.943762
-0.926703
-0.915106
-0.921632
-0.91976
-0.428912
-0.430868
-0.431055
-0.469763
-0.455534
-0.476381
-0.504418
-0.643086
-0.797199
-0.94726
-1.03865
-1.11726
-1.18702
-1.25251
-1.30066
-1.38682
-1.37693
-1.51679
-1.4719
-1.69492
-1.58845
-1.8758
-1.9638
-2.10621
-2.0802
-2.08946
-2.03024
-1.96734
-1.88071
-1.78221
-1.66666
-1.54415
-1.40882
-1.31561
-1.12298
-1.02351
-0.994084
-0.962845
-0.968361
-0.967503
-0.488352
-0.49026
-0.509313
-0.573195
-0.660469
-0.697552
-0.897764
-0.971733
-1.0939
-1.17012
-1.27248
-1.36118
-1.43696
-1.51634
-1.56348
-1.62573
-1.6461
-1.72006
-1.69219
-1.88269
-1.83187
-2.01087
-2.12335
-2.2285
-2.22045
-2.21812
-2.17202
-2.11208
-2.04262
-1.94438
-1.82836
-1.68797
-1.52639
-1.39314
-1.22177
-1.07127
-1.02863
-0.996574
-1.0127
-1.01091
-0.551803
-0.527503
-0.571896
-0.652743
-0.743821
-0.846034
-1.0605
-1.1201
-1.27471
-1.38116
-1.48957
-1.57545
-1.65569
-1.71281
-1.7715
-1.82444
-1.83549
-1.90189
-1.84261
-2.00861
-2.00699
-2.04289
-2.22858
-2.29944
-2.311
-2.29849
-2.25935
-2.21285
-2.15225
-2.06933
-1.96234
-1.82444
-1.67746
-1.51262
-1.37178
-1.15755
-1.09625
-1.05563
-1.06164
-1.06837
-0.598051
-0.583005
-0.639949
-0.747747
-0.873136
-1.05623
-1.21228
-1.31945
-1.44529
-1.56291
-1.67511
-1.76273
-1.84599
-1.90525
-1.96236
-2.008
-2.02313
-2.05974
-2.02312
-2.06015
-2.11106
-2.07531
-2.25954
-2.33819
-2.35599
-2.35913
-2.32424
-2.29646
-2.25818
-2.18788
-2.07969
-1.93985
-1.78897
-1.59797
-1.45801
-1.24532
-1.13851
-1.1054
-1.10769
-1.12133
-0.657807
-0.643312
-0.727342
-0.847017
-1.02502
-1.19828
-1.36072
-1.46589
-1.60458
-1.70275
-1.84194
-1.91442
-1.99353
-2.04462
-2.09162
-2.12717
-2.13987
-2.14858
-2.0872
-2.12732
-2.15996
-2.13293
-2.15544
-2.35558
-2.3576
-2.39309
-2.36544
-2.36388
-2.33837
-2.27063
-2.19375
-2.05674
-1.9065
-1.72879
-1.57431
-1.37146
-1.22603
-1.18116
-1.17201
-1.19093
-0.726955
-0.71776
-0.811695
-0.963042
-1.18424
-1.33904
-1.49914
-1.62373
-1.75614
-1.86428
-1.96295
-2.03219
-2.1362
-2.15733
-2.19785
-2.21335
-2.23547
-2.19759
-2.11922
-2.13125
-2.0837
-2.02295
-1.95484
-2.30029
-2.31731
-2.41045
-2.39112
-2.4242
-2.40599
-2.3689
-2.28118
-2.16935
-2.00703
-1.81399
-1.63541
-1.47106
-1.29288
-1.23842
-1.22719
-1.25258
-0.824139
-0.814408
-0.926302
-1.11877
-1.31363
-1.47925
-1.63387
-1.76033
-1.88808
-1.98247
-2.07981
-2.14671
-2.19352
-2.25436
-2.27123
-2.28343
-2.31409
-2.24163
-2.20113
-2.15291
-2.04289
-1.83561
-1.65508
-2.05864
-2.25866
-2.37642
-2.43503
-2.45495
-2.47155
-2.43782
-2.3798
-2.24923
-2.11705
-1.9419
-1.74768
-1.57682
-1.38622
-1.32396
-1.29796
-1.32739
-0.884396
-0.890216
-1.02329
-1.20333
-1.40727
-1.57808
-1.74046
-1.86449
-1.9962
-2.08842
-2.18055
-2.22949
-2.29225
-2.29269
-2.33793
-2.32939
-2.38186
-2.26298
-2.32776
-2.21465
-2.0309
-1.56507
-1.52581
-1.86812
-2.14912
-2.37065
-2.45068
-2.51416
-2.52522
-2.51183
-2.44832
-2.37841
-2.22877
-2.07136
-1.86218
-1.68904
-1.47736
-1.39841
-1.36736
-1.39635
-1.05273
-1.05446
-1.17642
-1.35067
-1.54234
-1.73211
-1.86906
-1.98626
-2.08841
-2.16138
-2.22851
-2.26994
-2.30641
-2.33868
-2.35398
-2.38871
-2.42784
-2.28988
-2.41609
-2.26568
-1.8465
-1.5103
-1.54978
-1.80938
-2.06848
-2.41135
-2.50036
-2.56603
-2.58252
-2.56707
-2.54344
-2.45178
-2.32771
-2.15943
-1.9787
-1.78418
-1.59657
-1.48103
-1.44973
-1.4879
-1.03218
-1.04872
-1.18115
-1.35202
-1.55447
-1.73311
-1.88881
-1.99955
-2.12294
-2.20332
-2.28696
-2.32334
-2.38143
-2.37683
-2.37941
-2.37407
-2.39432
-2.35421
-2.41253
-2.03239
-1.78829
-1.71532
-1.69857
-1.77307
-1.96604
-2.30013
-2.48002
-2.54752
-2.62392
-2.63913
-2.62112
-2.56003
-2.4446
-2.30411
-2.10018
-1.91979
-1.72705
-1.57865
-1.51905
-1.54961
-1.33178
-1.31943
-1.42898
-1.57809
-1.75866
-1.92194
-2.04734
-2.14204
-2.22751
-2.26554
-2.28604
-2.27707
-2.30841
-2.31586
-2.35473
-2.35604
-2.36865
-2.34695
-2.09203
-1.89329
-1.84453
-1.80247
-1.77613
-1.79611
-1.87703
-2.09354
-2.4735
-2.53579
-2.63928
-2.64415
-2.63811
-2.59094
-2.50622
-2.38327
-2.2158
-2.02652
-1.84619
-1.74848
-1.65224
-1.69454
-1.02213
-1.06995
-1.20657
-1.37486
-1.57593
-1.74285
-1.90363
-1.99298
-2.09428
-2.19018
-2.28466
-2.34915
-2.41757
-2.38861
-2.32469
-2.14565
-2.02162
-1.80308
-1.69791
-1.70178
-1.73438
-1.73483
-1.74397
-1.76821
-1.79004
-1.95403
-2.24557
-2.53127
-2.59209
-2.69441
-2.71376
-2.67995
-2.60471
-2.49008
-2.31576
-2.13401
-1.92621
-1.78029
-1.67402
-1.69017
-1.4804
-1.46574
-1.54027
-1.65201
-1.79834
-1.93124
-2.07033
-2.17058
-2.2803
-2.29829
-2.17604
-1.98608
-1.85187
-1.67856
-1.59338
-1.51105
-1.57823
-1.56107
-1.59744
-1.61654
-1.65381
-1.68325
-1.70405
-1.74638
-1.76936
-1.91609
-2.10116
-2.34556
-2.45524
-2.52847
-2.60665
-2.61909
-2.63073
-2.59742
-2.4922
-2.32461
-2.15227
-2.03681
-1.94167
-1.96893
-0.677441
-0.697387
-0.817803
-0.94896
-1.16208
-1.31738
-1.49894
-1.50781
-1.41828
-1.35161
-1.3814
-1.44217
-1.5038
-1.52385
-1.5263
-1.50567
-1.50683
-1.47896
-1.50782
-1.52198
-1.58747
-1.61339
-1.64957
-1.70339
-1.71679
-1.83798
-1.9766
-2.17469
-2.36395
-2.59143
-2.65108
-2.60683
-2.54487
-2.42842
-2.25698
-2.1551
-2.02447
-1.83789
-1.82945
-1.80366
-1.04983
-0.94365
-0.948702
-0.962383
-1.04952
-1.12025
-1.21159
-1.32236
-1.43414
-1.49366
-1.52521
-1.51822
-1.50206
-1.46946
-1.4492
-1.42172
-1.42483
-1.41754
-1.43244
-1.45417
-1.51702
-1.564
-1.60023
-1.63166
-1.70492
-1.80449
-1.99997
-2.13879
-2.17778
-2.10521
-2.17529
-2.41241
-2.76493
-2.9391
-2.91329
-2.79378
-2.61955
-2.47672
-2.21769
-2.20314
-0.752642
-0.741479
-0.773521
-0.832306
-0.957992
-1.06245
-1.18069
-1.26278
-1.34874
-1.40436
-1.45016
-1.4724
-1.46963
-1.44885
-1.42141
-1.40069
-1.38531
-1.36394
-1.38286
-1.40783
-1.44983
-1.52154
-1.55415
-1.63276
-1.68575
-1.80454
-1.93827
-2.08473
-2.15873
-2.15833
-2.15761
-2.06846
-1.95401
-1.88153
-1.99519
-2.02601
-2.05662
-2.02873
-2.08929
-1.90118
-0.927005
-0.891813
-0.904863
-0.930756
-1.02052
-1.10567
-1.20322
-1.29774
-1.39321
-1.45051
-1.48835
-1.492
-1.47276
-1.44997
-1.41777
-1.38718
-1.3678
-1.35192
-1.37776
-1.3771
-1.46546
-1.47993
-1.58696
-1.61307
-1.70834
-1.80083
-1.92214
-2.03186
-2.12275
-2.14943
-2.16835
-2.17753
-2.23369
-2.16766
-2.09995
-1.94676
-1.82997
-1.69509
-1.65565
-1.78612
-0.869045
-0.862435
-0.879454
-0.918959
-1.00991
-1.10149
-1.20085
-1.30416
-1.40199
-1.47271
-1.50932
-1.51402
-1.49961
-1.47493
-1.44201
-1.40991
-1.38796
-1.34303
-1.36971
-1.36925
-1.42828
-1.50983
-1.5441
-1.65298
-1.70775
-1.80462
-1.88904
-1.97403
-2.05494
-2.08824
-2.13582
-2.10195
-2.10216
-2.01268
-2.02777
-1.93259
-1.88014
-1.73677
-1.69841
-1.80079
-0.933363
-0.907355
-0.944883
-0.970677
-1.06583
-1.14556
-1.2466
-1.34011
-1.43144
-1.50164
-1.53958
-1.55078
-1.5406
-1.51993
-1.49282
-1.44655
-1.42744
-1.37544
-1.4346
-1.41716
-1.4974
-1.48423
-1.62089
-1.64568
-1.76308
-1.83415
-1.91139
-1.97261
-2.05719
-2.08247
-2.16037
-2.15177
-2.22593
-2.17084
-2.20831
-2.09689
-2.06415
-1.8952
-1.77882
-1.86615
-0.953166
-0.930457
-0.976185
-0.99995
-1.09562
-1.17566
-1.28321
-1.38077
-1.46562
-1.54715
-1.58577
-1.60064
-1.59267
-1.57851
-1.55077
-1.50719
-1.50596
-1.46198
-1.54412
-1.43723
-1.52699
-1.55924
-1.62288
-1.69173
-1.76873
-1.85169
-1.92808
-1.96283
-2.02963
-2.04255
-2.09677
-2.05313
-2.09226
-2.00089
-2.03771
-1.92737
-1.93604
-1.8127
-1.79615
-1.91842
-0.982346
-0.945695
-0.999229
-1.02045
-1.11223
-1.19776
-1.29688
-1.37559
-1.47382
-1.53802
-1.59532
-1.62463
-1.64073
-1.63416
-1.6223
-1.59033
-1.60994
-1.55693
-1.62271
-1.44176
-1.56784
-1.56843
-1.67696
-1.7102
-1.82398
-1.86955
-1.97549
-2.01348
-2.08673
-2.07823
-2.19427
-2.18005
-2.29275
-2.20841
-2.27655
-2.12014
-2.10754
-1.91626
-1.83682
-1.796
-1.02225
-0.991768
-1.03475
-1.0659
-1.14897
-1.23549
-1.33553
-1.43593
-1.52516
-1.59445
-1.64354
-1.6778
-1.69415
-1.69997
-1.70842
-1.66701
-1.70195
-1.63699
-1.72506
-1.52195
-1.63835
-1.61168
-1.70675
-1.75712
-1.8575
-1.90507
-2.01509
-2.08486
-2.16253
-2.22462
-2.34694
-2.32113
-2.43379
-2.36227
-2.49287
-2.40013
-2.49685
-2.35276
-2.36454
-2.34686
-1.02421
-1.00129
-1.01656
-1.06653
-1.14199
-1.22673
-1.32583
-1.41636
-1.5026
-1.5743
-1.63676
-1.68294
-1.72337
-1.74176
-1.77393
-1.76747
-1.80222
-1.73271
-1.76939
-1.57012
-1.67696
-1.64426
-1.74356
-1.75299
-1.90151
-1.90021
-2.07539
-2.08228
-2.21138
-2.1986
-2.30634
-2.2065
-2.31876
-2.17501
-2.3218
-2.15281
-2.27884
-2.07726
-2.13615
-2.03806
-1.07526
-1.05979
-1.06715
-1.10127
-1.19185
-1.26994
-1.37483
-1.46708
-1.54655
-1.614
-1.67422
-1.72126
-1.77305
-1.79505
-1.85697
-1.81822
-1.9206
-1.76516
-1.89857
-1.63155
-1.73321
-1.69499
-1.77441
-1.77053
-1.88217
-1.81472
-2.05461
-2.00094
-2.26962
-2.15446
-2.29204
-2.16241
-2.29195
-2.11734
-2.25932
-2.05574
-2.15849
-1.89216
-1.87394
-1.76035
-1.04347
-1.03029
-1.03259
-1.03914
-1.1437
-1.19338
-1.31689
-1.40087
-1.49638
-1.56693
-1.64227
-1.69474
-1.75699
-1.79325
-1.85889
-1.86351
-1.93356
-1.86074
-1.93284
-1.69099
-1.75001
-1.72897
-1.78965
-1.7404
-1.91459
-1.72349
-2.05154
-2.0768
-2.28922
-2.13443
-2.32611
-2.11153
-2.29242
-2.04176
-2.25876
-1.9331
-2.0892
-1.7196
-1.7078
-1.5522
-1.11108
-1.1031
-1.10621
-1.10002
-1.18257
-1.25873
-1.35528
-1.4337
-1.52623
-1.59884
-1.67963
-1.73588
-1.81392
-1.82999
-1.93918
-1.86558
-2.00247
-1.88796
-1.98967
-1.74538
-1.76247
-1.74974
-1.79507
-1.71341
-1.93957
-1.61634
-2.2453
-1.95751
-2.3495
-2.09653
-2.35449
-2.11488
-2.2916
-2.00327
-2.19293
-1.85594
-1.98918
-1.56004
-1.47489
-1.20939
-1.04055
-1.02213
-1.0448
-0.996143
-1.06024
-1.14056
-1.24164
-1.31084
-1.41701
-1.49309
-1.59769
-1.66158
-1.75753
-1.79718
-1.87328
-1.8567
-1.98579
-1.88939
-2.00861
-1.74994
-1.70118
-1.7059
-1.76491
-1.64611
-1.9338
-1.51227
-2.30533
-1.93039
-2.37381
-2.06664
-2.39764
-2.05603
-2.36016
-1.92769
-2.21858
-1.6863
-1.93617
-1.34232
-1.2574
-0.807032
-1.13429
-1.13619
-1.12426
-1.12191
-1.10567
-1.1892
-1.28443
-1.33734
-1.43702
-1.51036
-1.61744
-1.69053
-1.80034
-1.8146
-1.95303
-1.91138
-2.06036
-1.96309
-2.06423
-1.85164
-1.71231
-1.70368
-1.74819
-1.602
-1.92121
-1.4257
-2.33783
-1.96421
-2.43076
-2.03584
-2.45198
-2.05263
-2.37354
-1.95243
-2.21969
-1.65979
-1.83225
-1.17489
-0.966405
-0.316613
-1.01114
-0.990218
-1.01004
-0.958598
-0.977302
-0.966255
-1.12748
-1.14311
-1.27435
-1.34486
-1.48618
-1.55076
-1.69722
-1.74801
-1.89377
-1.87434
-2.03959
-1.9512
-2.04116
-1.83115
-1.61854
-1.60856
-1.64677
-1.48569
-1.83031
-1.32126
-2.27368
-1.99434
-2.44658
-2.07213
-2.48628
-2.00044
-2.41414
-1.81842
-2.24789
-1.47746
-1.75943
-0.741265
-0.611964
0.465962
-1.1461
-1.15966
-1.13904
-1.10658
-1.11189
-1.02332
-1.18707
-1.17322
-1.2925
-1.346
-1.47272
-1.57058
-1.7198
-1.77521
-1.94354
-1.92637
-2.10829
-2.03648
-2.0973
-1.90497
-1.55946
-1.58003
-1.59641
-1.39539
-1.73879
-1.22726
-2.22916
-2.02154
-2.58261
-2.09195
-2.56466
-2.03378
-2.49923
-1.83244
-2.2905
-1.52815
-1.76671
-0.540031
-0.22544
1.36561
-1.01135
-0.934982
-0.98987
-0.86327
-0.928562
-0.778856
-0.966471
-0.92914
-1.0694
-1.14136
-1.31736
-1.40996
-1.60526
-1.67128
-1.8778
-1.87938
-2.07626
-2.02359
-2.067
-1.83636
-1.41058
-1.40489
-1.41122
-1.1849
-1.55726
-1.11331
-2.13236
-2.03592
-2.61991
-2.13833
-2.64019
-1.93124
-2.52733
-1.72492
-2.17381
-1.25761
-1.56731
0.103426
0.555866
3.15344
-1.16646
-1.24069
-1.14256
-1.11795
-1.04239
-0.931176
-1.00842
-0.965351
-1.08121
-1.14339
-1.29476
-1.40081
-1.59052
-1.6785
-1.90099
-1.93404
-2.13957
-2.1219
-2.12859
-1.85803
-1.40091
-1.29331
-1.30702
-0.988605
-1.39254
-0.998301
-2.07656
-2.02162
-2.72708
-2.22201
-2.78297
-2.03921
-2.6327
-1.73084
-2.39695
-1.23357
-1.77283
0.390738
1.10343
4.92964
-1.41921
-0.972849
-1.09144
-0.737453
-0.829231
-0.604881
-0.722018
-0.706646
-0.84274
-0.90999
-1.09564
-1.20458
-1.43011
-1.53906
-1.79572
-1.86584
-2.09758
-2.1112
-2.09537
-1.79986
-1.31484
-1.04138
-1.03378
-0.735126
-1.12633
-0.888077
-2.01129
-2.00119
-2.75382
-2.24766
-2.80372
-2.03243
-2.53083
-1.57195
-2.12593
-0.680572
-1.13238
1.56127
3.09888
9.57918
-1.24833
-1.51163
-1.32038
-1.26837
-0.866243
-0.786383
-0.731243
-0.706891
-0.813878
-0.876743
-1.03025
-1.13927
-1.35754
-1.47219
-1.74138
-1.83375
-2.1166
-2.18504
-2.22132
-1.73185
-1.35072
-0.896228
-0.858481
-0.526179
-0.951697
-0.79441
-1.98378
-1.94763
-2.87744
-2.33962
-2.91897
-2.10177
-2.64813
-1.6837
-2.29927
-0.997551
-1.37866
2.17129
4.18839
13.1982
-3.74708
-0.993675
-1.31431
-0.831309
-0.751795
-0.507513
-0.573288
-0.554438
-0.688972
-0.763694
-0.950035
-1.05818
-1.28661
-1.40774
-1.68914
-1.81823
-2.16289
-2.25746
-2.16908
-1.62712
-1.20999
-0.616873
-0.562525
-0.292354
-0.841724
-0.852016
-2.07164
-2.02517
-3.00732
-2.35911
-2.87963
-1.99884
-2.49118
-1.52422
-1.93116
-0.284761
0.27375
6.06275
11.257
25.5514
-0.104868
-0.205578
-0.256505
-0.297133
-0.343533
-0.386036
-0.430809
-0.471831
-0.512275
-0.551203
-0.581307
-0.632936
-0.659726
-0.701108
-0.726873
-0.763182
-0.748569
-0.804485
-0.77101
-0.971442
-0.701062
-0.962164
-0.900267
-1.00028
-0.871346
-0.853947
-0.765367
-0.714755
-0.689373
-0.659858
-0.685808
-0.677175
-0.748083
-0.761192
-0.808202
-0.806818
-0.837574
-0.832617
-0.855229
-0.844518
-0.219591
-0.267617
-0.299336
-0.318645
-0.354142
-0.38941
-0.423737
-0.464872
-0.482578
-0.530811
-0.540837
-0.610452
-0.613805
-0.638927
-0.64317
-0.68255
-0.691181
-0.765417
-0.671578
-0.873972
-0.709746
-0.951216
-0.89368
-1.00645
-0.886789
-0.890982
-0.818469
-0.779767
-0.758589
-0.7148
-0.735192
-0.726449
-0.736252
-0.744816
-0.792404
-0.79119
-0.824743
-0.82013
-0.844052
-0.833387
-0.293043
-0.314042
-0.33303
-0.320874
-0.359834
-0.388738
-0.422528
-0.446518
-0.506167
-0.535862
-0.569777
-0.601802
-0.624509
-0.673992
-0.727337
-0.816166
-0.809927
-0.882682
-0.811189
-1.03334
-0.936242
-1.21983
-1.25312
-1.40732
-1.33257
-1.3507
-1.29729
-1.25227
-1.21068
-1.12152
-1.05673
-0.964907
-0.937004
-0.893178
-0.864498
-0.83792
-0.855832
-0.848255
-0.863337
-0.856144
-0.357799
-0.370119
-0.371731
-0.374744
-0.378522
-0.399817
-0.434733
-0.478379
-0.514463
-0.552353
-0.581064
-0.64306
-0.728363
-0.816431
-0.864604
-0.951909
-0.968418
-1.07481
-1.03339
-1.28232
-1.24673
-1.55783
-1.62598
-1.79207
-1.72648
-1.74249
-1.67743
-1.60692
-1.53487
-1.41193
-1.31773
-1.16457
-1.07214
-0.977135
-0.935142
-0.890164
-0.910935
-0.879488
-0.892969
-0.884632
-0.399781
-0.389755
-0.396817
-0.391491
-0.421079
-0.413521
-0.470834
-0.493033
-0.566144
-0.635863
-0.766758
-0.892449
-0.969876
-1.04623
-1.11224
-1.20915
-1.2356
-1.34335
-1.32999
-1.53997
-1.506
-1.80184
-1.90231
-2.04484
-1.99821
-2.00627
-1.95301
-1.8862
-1.79313
-1.65455
-1.53672
-1.39646
-1.25641
-1.10899
-0.992039
-0.952392
-0.939566
-0.922856
-0.925097
-0.922919
-0.437244
-0.447315
-0.454766
-0.481419
-0.43952
-0.483469
-0.50619
-0.639579
-0.809353
-0.957486
-1.04985
-1.13108
-1.20655
-1.27637
-1.33463
-1.42818
-1.44944
-1.56073
-1.53268
-1.74047
-1.72109
-1.98371
-2.09803
-2.22985
-2.19429
-2.18078
-2.11785
-2.02211
-1.95829
-1.81814
-1.70056
-1.5591
-1.42373
-1.30848
-1.1229
-1.04421
-1.01369
-0.981491
-0.977991
-0.977327
-0.520163
-0.504858
-0.539876
-0.575761
-0.639251
-0.651463
-0.847494
-0.991178
-1.0979
-1.18118
-1.28716
-1.3771
-1.45983
-1.53413
-1.60498
-1.65894
-1.68911
-1.75996
-1.74014
-1.87902
-1.88166
-2.08874
-2.18655
-2.30527
-2.27863
-2.26751
-2.218
-2.14407
-2.05258
-1.93733
-1.81708
-1.66303
-1.51081
-1.37618
-1.22135
-1.08495
-1.03989
-1.01286
-1.0113
-1.01577
-0.550578
-0.561335
-0.609541
-0.675258
-0.756235
-0.826291
-1.06374
-1.14194
-1.28527
-1.39406
-1.49631
-1.5932
-1.67001
-1.75004
-1.80323
-1.85005
-1.85965
-1.90501
-1.87893
-1.95751
-1.98517
-2.06378
-2.2518
-2.34304
-2.35533
-2.33509
-2.30891
-2.23463
-2.17904
-2.04962
-1.93827
-1.80489
-1.64973
-1.50242
-1.35295
-1.18825
-1.12166
-1.08448
-1.07621
-1.08138
-0.619749
-0.638851
-0.669632
-0.780188
-0.883493
-1.03488
-1.21247
-1.33166
-1.46412
-1.57395
-1.68752
-1.77277
-1.86012
-1.93906
-1.99393
-2.02789
-2.03269
-2.04211
-2.00848
-2.02074
-2.04512
-2.06163
-2.26419
-2.3556
-2.38699
-2.39254
-2.3742
-2.32342
-2.24458
-2.14993
-2.0413
-1.91302
-1.77093
-1.56239
-1.4318
-1.23073
-1.1576
-1.1151
-1.11578
-1.12606
-0.684154
-0.697356
-0.786168
-0.891191
-1.0372
-1.16799
-1.37408
-1.46363
-1.60771
-1.73224
-1.82938
-1.93146
-2.00437
-2.0827
-2.13973
-2.16984
-2.17175
-2.15193
-2.09957
-2.08305
-2.08583
-2.06601
-2.14334
-2.3777
-2.40284
-2.44277
-2.44637
-2.37778
-2.34823
-2.23917
-2.17255
-2.07687
-1.94155
-1.78969
-1.57832
-1.37186
-1.24194
-1.20804
-1.18742
-1.20227
-0.756262
-0.771164
-0.861234
-0.999647
-1.22162
-1.32471
-1.49962
-1.61307
-1.74953
-1.88135
-1.97878
-2.06298
-2.13734
-2.18948
-2.26637
-2.28569
-2.29459
-2.2495
-2.17988
-2.09556
-2.01606
-1.94491
-1.92358
-2.27706
-2.3706
-2.46364
-2.48105
-2.46464
-2.39319
-2.36881
-2.30294
-2.1583
-2.00993
-1.81116
-1.65999
-1.44809
-1.28114
-1.25534
-1.23669
-1.25585
-0.857673
-0.873578
-0.984848
-1.17766
-1.35369
-1.48636
-1.62556
-1.75906
-1.88162
-1.97757
-2.08732
-2.16728
-2.22
-2.27653
-2.349
-2.37307
-2.38502
-2.33232
-2.27596
-2.14244
-1.93195
-1.68466
-1.58573
-1.98937
-2.31097
-2.45435
-2.52585
-2.48767
-2.51579
-2.47958
-2.36767
-2.29804
-2.16153
-2.02394
-1.83932
-1.64041
-1.36935
-1.32223
-1.31041
-1.33359
-0.93276
-0.959448
-1.09921
-1.27965
-1.46455
-1.60497
-1.75791
-1.84701
-2.00816
-2.08896
-2.19321
-2.2311
-2.33564
-2.33255
-2.42049
-2.43067
-2.46128
-2.40287
-2.38429
-2.21175
-1.85468
-1.39727
-1.39062
-1.78289
-2.17143
-2.43423
-2.5055
-2.59169
-2.60804
-2.54793
-2.54245
-2.41582
-2.26702
-2.06852
-1.88795
-1.72539
-1.527
-1.36321
-1.38351
-1.39952
-1.10337
-1.12613
-1.25895
-1.43108
-1.60973
-1.76518
-1.89901
-2.00166
-2.09686
-2.1614
-2.25952
-2.31083
-2.35053
-2.43426
-2.48619
-2.49294
-2.50498
-2.44729
-2.45132
-2.19375
-1.68716
-1.35223
-1.35739
-1.6765
-2.02786
-2.46617
-2.55533
-2.66641
-2.6439
-2.68675
-2.5899
-2.49819
-2.3516
-2.19275
-1.96305
-1.7929
-1.62784
-1.48
-1.4306
-1.50079
-1.10347
-1.13341
-1.27029
-1.441
-1.6305
-1.8003
-1.96151
-2.05659
-2.17354
-2.24708
-2.34372
-2.37206
-2.47649
-2.45822
-2.51258
-2.48075
-2.50349
-2.47481
-2.37506
-1.98786
-1.66698
-1.5047
-1.45218
-1.59926
-1.89837
-2.2724
-2.53016
-2.55501
-2.7142
-2.68446
-2.66738
-2.59224
-2.47437
-2.31415
-2.10692
-1.89485
-1.72545
-1.63732
-1.47356
-1.56696
-1.34955
-1.36723
-1.49562
-1.64818
-1.82598
-1.99328
-2.10918
-2.20755
-2.30423
-2.3529
-2.39385
-2.38131
-2.40848
-2.39253
-2.45798
-2.47203
-2.45606
-2.291
-2.04138
-1.80783
-1.70178
-1.65101
-1.60579
-1.61775
-1.79959
-2.05411
-2.52588
-2.7031
-2.71155
-2.7303
-2.69766
-2.64875
-2.54796
-2.41249
-2.21807
-2.033
-1.84104
-1.75471
-1.62411
-1.68839
-1.13896
-1.20001
-1.33385
-1.52012
-1.71174
-1.86368
-2.00798
-2.10495
-2.20297
-2.28587
-2.36119
-2.39185
-2.43391
-2.36736
-2.25108
-2.2186
-2.01788
-1.80866
-1.70653
-1.65706
-1.65115
-1.66376
-1.66001
-1.62423
-1.74855
-1.94542
-2.25683
-2.59263
-2.70228
-2.7562
-2.76965
-2.73651
-2.66232
-2.5443
-2.35864
-2.16182
-1.95384
-1.78553
-1.69937
-1.67114
-1.48207
-1.47263
-1.56462
-1.69399
-1.8612
-1.98853
-2.11981
-2.20322
-2.29436
-2.28976
-2.19472
-2.02257
-1.88266
-1.71462
-1.63963
-1.56291
-1.55506
-1.54455
-1.55712
-1.56423
-1.58623
-1.62771
-1.6528
-1.65559
-1.71275
-1.93121
-2.09309
-2.30028
-2.5378
-2.65583
-2.72607
-2.72647
-2.70141
-2.63904
-2.5214
-2.35268
-2.14059
-2.00506
-1.9829
-1.95617
-0.801717
-0.877873
-0.961503
-1.12989
-1.26436
-1.44776
-1.57441
-1.60101
-1.51413
-1.45084
-1.44332
-1.47457
-1.49214
-1.48882
-1.47419
-1.46566
-1.45422
-1.42788
-1.45882
-1.47586
-1.51392
-1.56038
-1.60294
-1.65664
-1.65657
-1.84511
-1.98891
-2.13473
-2.24358
-2.43621
-2.60093
-2.66188
-2.68201
-2.6227
-2.55014
-2.35954
-2.10663
-1.9179
-1.84372
-1.8431
-0.948824
-0.917275
-0.942197
-0.992173
-1.069
-1.16162
-1.26381
-1.3365
-1.40736
-1.43792
-1.45993
-1.44919
-1.4279
-1.40245
-1.38567
-1.36864
-1.38841
-1.3581
-1.3895
-1.40056
-1.45709
-1.49023
-1.56277
-1.55878
-1.66627
-1.81129
-1.97896
-2.08509
-2.13577
-2.12718
-2.15335
-2.29779
-2.55173
-2.77722
-2.819
-2.66766
-2.48661
-2.32144
-2.19857
-2.15054
-0.816761
-0.755277
-0.770796
-0.823042
-0.895173
-1.0058
-1.08844
-1.21202
-1.28449
-1.34427
-1.38722
-1.41526
-1.41321
-1.39741
-1.36882
-1.35244
-1.33011
-1.32359
-1.34222
-1.36319
-1.39379
-1.45658
-1.53499
-1.58017
-1.64777
-1.77821
-1.9266
-2.04841
-2.09545
-2.08728
-2.09403
-2.0529
-2.01216
-1.93094
-2.00678
-2.00584
-1.99621
-1.96086
-2.0039
-2.21962
-0.926423
-0.86722
-0.87954
-0.907884
-0.990811
-1.06425
-1.14954
-1.26502
-1.35936
-1.41796
-1.45245
-1.45255
-1.42899
-1.40183
-1.36793
-1.33501
-1.30414
-1.28285
-1.30518
-1.31614
-1.41729
-1.42111
-1.51348
-1.56935
-1.67333
-1.7761
-1.90429
-2.01238
-2.0988
-2.09695
-2.11872
-2.10781
-2.1491
-2.08702
-2.04067
-1.91822
-1.82342
-1.68107
-1.60226
-1.66167
-0.887221
-0.847068
-0.869493
-0.907358
-1.00571
-1.07966
-1.18547
-1.28841
-1.38093
-1.44729
-1.48078
-1.4824
-1.46119
-1.43079
-1.38721
-1.34281
-1.31734
-1.29381
-1.31981
-1.32294
-1.38832
-1.46085
-1.51377
-1.58565
-1.67632
-1.7729
-1.86212
-1.94862
-2.02946
-2.05771
-2.09879
-2.05238
-2.04575
-1.95015
-1.95915
-1.86677
-1.81459
-1.67752
-1.59126
-1.73811
-0.932302
-0.90834
-0.933051
-0.965814
-1.061
-1.13834
-1.24226
-1.3404
-1.42991
-1.49507
-1.52736
-1.52941
-1.50787
-1.47425
-1.4329
-1.39723
-1.36817
-1.3178
-1.36677
-1.36446
-1.44008
-1.46085
-1.57907
-1.62129
-1.7349
-1.78753
-1.88646
-1.94039
-2.03022
-2.05272
-2.13268
-2.11291
-2.1804
-2.12145
-2.1702
-2.07025
-2.04371
-1.86644
-1.73062
-1.81999
-0.952673
-0.937919
-0.964338
-0.99908
-1.09497
-1.18291
-1.2879
-1.38561
-1.4737
-1.54248
-1.57965
-1.58866
-1.57231
-1.543
-1.5143
-1.4668
-1.45491
-1.42229
-1.49312
-1.41379
-1.47602
-1.51168
-1.5795
-1.66998
-1.73918
-1.84255
-1.86715
-1.94089
-1.99542
-2.00191
-2.05369
-2.00313
-2.04437
-1.94521
-1.98882
-1.87565
-1.88702
-1.74961
-1.70245
-1.81759
-0.976883
-0.955943
-0.995714
-1.02939
-1.11972
-1.20529
-1.30948
-1.40646
-1.49827
-1.56716
-1.61431
-1.6353
-1.63546
-1.61935
-1.60309
-1.57348
-1.60145
-1.57159
-1.62172
-1.46413
-1.53323
-1.53142
-1.6593
-1.69303
-1.81081
-1.83062
-1.95137
-1.96996
-2.05472
-2.04107
-2.15908
-2.12747
-2.24473
-2.15585
-2.24458
-2.09705
-2.10259
-1.92171
-1.82659
-1.77208
-1.02874
-1.00205
-1.02937
-1.07125
-1.15698
-1.2462
-1.35173
-1.45763
-1.55021
-1.62237
-1.67551
-1.70822
-1.72133
-1.71715
-1.71604
-1.68576
-1.72268
-1.64721
-1.70746
-1.51171
-1.59445
-1.57458
-1.66887
-1.74315
-1.8398
-1.89819
-1.96925
-2.0634
-2.1236
-2.18947
-2.3029
-2.27734
-2.40445
-2.3185
-2.45407
-2.33891
-2.43423
-2.29321
-2.24962
-2.26879
-1.02694
-1.00707
-1.02193
-1.0645
-1.14751
-1.22661
-1.33184
-1.44299
-1.5375
-1.61649
-1.684
-1.73288
-1.76821
-1.77902
-1.80105
-1.77988
-1.82432
-1.73589
-1.78467
-1.5682
-1.63481
-1.62256
-1.7206
-1.7288
-1.87768
-1.87505
-2.05062
-2.04074
-2.19303
-2.1493
-2.31279
-2.21424
-2.35591
-2.20601
-2.37205
-2.19608
-2.33085
-2.11489
-2.08817
-2.02197
-1.08084
-1.06477
-1.07471
-1.10033
-1.19697
-1.2714
-1.38091
-1.46096
-1.55777
-1.63706
-1.71553
-1.77715
-1.82651
-1.84158
-1.88266
-1.8528
-1.92854
-1.81418
-1.89463
-1.61124
-1.70851
-1.62549
-1.75142
-1.72361
-1.85625
-1.80155
-1.99041
-2.02569
-2.27479
-2.14235
-2.28946
-2.16768
-2.33261
-2.15181
-2.31782
-2.1056
-2.23384
-1.93457
-1.94064
-1.7575
-1.04978
-1.03115
-1.04299
-1.03771
-1.14558
-1.20752
-1.32393
-1.41405
-1.49315
-1.56791
-1.65369
-1.72496
-1.79917
-1.82425
-1.87752
-1.85647
-1.94252
-1.85986
-1.94189
-1.69904
-1.73178
-1.7044
-1.77127
-1.69481
-1.86051
-1.69578
-2.06048
-2.06261
-2.30796
-2.11458
-2.34396
-2.11779
-2.31175
-2.08188
-2.32839
-1.9952
-2.21173
-1.79618
-1.77676
-1.50811
-1.11816
-1.10645
-1.11337
-1.10565
-1.18108
-1.26512
-1.36306
-1.44417
-1.53717
-1.59965
-1.67961
-1.74095
-1.82401
-1.85301
-1.93448
-1.89843
-2.00086
-1.91385
-1.97856
-1.75755
-1.73813
-1.70155
-1.77202
-1.6631
-1.86771
-1.61789
-2.18517
-2.03214
-2.3441
-2.10394
-2.33544
-2.12303
-2.34338
-2.02552
-2.27053
-1.95303
-2.1557
-1.70654
-1.63485
-1.26683
-1.04551
-1.02597
-1.04299
-1.00763
-1.06016
-1.14374
-1.24768
-1.3152
-1.42509
-1.50111
-1.59642
-1.66211
-1.75904
-1.79052
-1.88817
-1.86798
-1.99142
-1.89223
-2.01533
-1.77255
-1.70191
-1.64777
-1.73588
-1.5943
-1.85092
-1.53158
-2.24018
-2.02916
-2.37912
-2.08326
-2.3776
-2.06377
-2.36393
-2.01104
-2.30027
-1.78764
-2.18221
-1.56101
-1.56821
-0.997366
-1.14058
-1.14076
-1.12586
-1.12496
-1.11412
-1.18953
-1.2886
-1.34444
-1.44852
-1.52183
-1.63139
-1.69769
-1.81544
-1.85004
-1.99155
-1.96219
-2.08989
-2.00078
-2.06796
-1.83933
-1.71431
-1.63819
-1.71756
-1.54895
-1.82856
-1.46049
-2.25018
-2.03674
-2.47147
-2.08217
-2.44526
-2.0259
-2.43233
-1.9534
-2.35699
-1.80535
-2.10863
-1.525
-1.51125
-0.692831
-1.01622
-0.99342
-1.02368
-0.944376
-0.989165
-0.958835
-1.13002
-1.14766
-1.27989
-1.35481
-1.49492
-1.57505
-1.73641
-1.76868
-1.91891
-1.90415
-2.07399
-1.99379
-2.07252
-1.85278
-1.63521
-1.54103
-1.62245
-1.43246
-1.73353
-1.35715
-2.1918
-2.05366
-2.55456
-2.12058
-2.48536
-2.00845
-2.4197
-1.86098
-2.32593
-1.64421
-2.18331
-1.16862
-1.39129
-0.130858
-1.15123
-1.16687
-1.14988
-1.12923
-1.08794
-1.04024
-1.18436
-1.18888
-1.30706
-1.37345
-1.51452
-1.61266
-1.74101
-1.80529
-1.97823
-1.94652
-2.15907
-2.09961
-2.14785
-1.94891
-1.62825
-1.4831
-1.56007
-1.3393
-1.64598
-1.27545
-2.14521
-2.04527
-2.62305
-2.15531
-2.60965
-2.03675
-2.52483
-1.87082
-2.38283
-1.66333
-2.18731
-1.24031
-1.11849
0.50578
-1.00221
-0.950468
-1.0105
-0.868215
-0.963424
-0.762871
-0.975765
-0.950268
-1.10763
-1.17275
-1.35615
-1.4286
-1.63751
-1.70317
-1.9262
-1.92592
-2.15624
-2.09581
-2.13918
-1.87659
-1.53265
-1.31955
-1.37615
-1.13419
-1.46904
-1.13676
-2.06864
-2.03182
-2.68434
-2.19698
-2.70602
-2.00192
-2.54304
-1.74386
-2.3292
-1.37122
-1.98045
-0.616516
-0.804699
2.15647
-1.15554
-1.25343
-1.16697
-1.15087
-1.07701
-0.961503
-1.026
-1.0214
-1.13207
-1.20001
-1.3425
-1.45765
-1.6436
-1.73268
-1.9608
-1.99523
-2.24414
-2.22609
-2.24836
-1.97493
-1.53921
-1.24484
-1.28072
-0.991223
-1.32863
-1.0165
-2.01805
-2.00139
-2.78082
-2.27266
-2.84014
-2.112
-2.67267
-1.82908
-2.48307
-1.43167
-2.08335
-0.319871
-0.409057
3.96666
-1.34107
-0.940912
-1.09372
-0.770653
-0.854385
-0.65788
-0.753958
-0.748257
-0.900877
-0.970522
-1.16867
-1.2742
-1.50736
-1.62668
-1.89744
-2.00647
-2.23593
-2.27944
-2.28545
-1.88579
-1.42436
-1.02331
-1.03442
-0.68342
-1.08805
-0.877269
-1.9738
-1.96938
-2.8247
-2.31512
-2.91492
-2.09229
-2.63156
-1.69933
-2.29705
-1.01031
-1.47157
0.837547
1.93811
9.20362
-1.00808
-1.45655
-1.34685
-1.3291
-1.05537
-0.821602
-0.825889
-0.789895
-0.886487
-0.949345
-1.1088
-1.23686
-1.46878
-1.58427
-1.88145
-1.98964
-2.31811
-2.41457
-2.44445
-1.98554
-1.56519
-0.956638
-0.871106
-0.489286
-0.905066
-0.745131
-1.93489
-1.92252
-2.93115
-2.41203
-2.96249
-2.12086
-2.66975
-1.69825
-2.3282
-1.08827
-1.47617
1.78552
4.37463
15.5053
-3.57933
-0.859349
-1.17611
-0.747323
-0.712517
-0.524383
-0.585088
-0.573994
-0.722953
-0.806811
-0.990655
-1.09581
-1.33573
-1.49984
-1.82375
-2.00961
-2.35986
-2.48921
-2.44045
-1.81078
-1.40623
-0.648941
-0.55664
-0.23324
-0.779886
-0.778674
-1.99239
-2.00158
-3.07633
-2.42234
-2.95436
-2.02885
-2.50207
-1.50294
-1.9181
-0.208816
0.455343
6.32034
14.1893
32.0296
-0.230073
-0.26709
-0.28634
-0.308218
-0.349908
-0.385996
-0.428605
-0.470181
-0.502401
-0.552138
-0.586452