/*--------------------------------*- C++ -*----------------------------------*\
| =========                 |                                                 |
| \\      /  F ield         | OpenFOAM: The Open Source CFD Toolbox           |
|  \\    /   O peration     | Version:  v1806                                 |
|   \\  /    A nd           | Web:      www.OpenFOAM.com                      |
|    \\/     M anipulation  |                                                 |
\*---------------------------------------------------------------------------*/
FoamFile
{
    version     2.0;
    format      ascii;
    class       surfaceScalarField;
    location    "0.0595";
    object      phi;
}
// * * * * * * * * * * * * * * * * * * * * * * * * * * * * * * * * * * * * * //

dimensions      [0 3 -1 0 0 0 0];
oriented        oriented;


internalField   nonuniform List<scalar> 
187200
(
7.30747e-06
1.90579e-06
-9.21432e-06
4.45155e-05
-1.70965e-05
-2.01114e-05
6.61462e-05
-9.17752e-06
-1.2453e-05
8.58976e-05
-9.45412e-06
-1.02972e-05
0.000102855
-6.44339e-06
-1.05142e-05
0.000120407
-5.1409e-06
-1.24112e-05
0.000135682
-7.71482e-07
-1.45032e-05
0.000151725
6.41582e-07
-1.66844e-05
0.000165058
4.67461e-06
-1.80076e-05
0.000176206
6.23938e-06
-1.73866e-05
0.000187117
7.85978e-06
-1.87715e-05
0.000192393
1.3576e-05
-1.8852e-05
0.000182324
2.16948e-05
-1.16263e-05
0.000151912
3.74182e-05
-7.00668e-06
0.000106116
4.3863e-05
1.93309e-06
6.44459e-05
2.98432e-05
1.18265e-05
8.34331e-06
3.16632e-05
2.44392e-05
-4.74364e-05
4.80033e-05
7.77599e-06
-0.000146992
0.000100271
-7.15922e-07
-0.000272192
0.000133416
-8.21639e-06
-0.000504085
0.000217042
1.48509e-05
-0.000680833
0.000231817
-5.50685e-05
-0.000794991
0.000277264
-0.000163107
-0.000833216
0.000306924
-0.000268699
-0.00081196
0.000338231
-0.000359487
-0.000741969
0.000368187
-0.000438178
-0.000630805
0.000391384
-0.000502548
-0.000496285
0.000408313
-0.000542833
-0.00032913
0.000396733
-0.000563888
-0.000168896
0.000383406
-0.000543641
-3.82662e-05
0.000339456
-0.000470085
4.3532e-05
0.000298577
-0.000380375
7.39085e-05
0.000233833
-0.000264209
6.51756e-05
0.00017458
-0.000165847
3.88175e-05
0.000121077
-9.47185e-05
1.66979e-05
8.0744e-05
-5.86247e-05
2.5476e-06
5.54886e-05
-4.13386e-05
-4.01443e-06
4.28641e-05
-3.63019e-05
-6.26842e-06
3.28777e-05
-3.06236e-05
2.25282e-05
-2.87966e-05
6.26634e-06
1.16094e-05
-1.59698e-05
4.47028e-05
-2.80848e-05
-2.74479e-05
8.46467e-05
-2.36353e-05
-2.5486e-05
0.000115862
-1.49702e-05
-2.56989e-05
0.000137141
-2.61762e-06
-2.51045e-05
0.000154035
7.58513e-06
-2.962e-05
0.000161262
2.77042e-05
-3.57022e-05
0.00016437
3.92422e-05
-4.17088e-05
0.000157516
6.34641e-05
-5.19354e-05
0.000139424
8.34117e-05
-5.90809e-05
9.69509e-05
0.000125385
-7.50525e-05
3.43173e-05
0.000167552
-9.13428e-05
-5.02656e-05
0.000204305
-9.80273e-05
-0.000150626
0.000245899
-0.00010812
-0.000276296
0.000300506
-0.000130974
-0.000461321
0.000377761
-0.000162893
-0.000644996
0.000453735
-0.000238397
-0.000839113
0.000538596
-0.000296476
-0.00100922
0.000637268
-0.000366887
-0.00116235
0.00073177
-0.00044523
-0.00130206
0.000855631
-0.000498881
-0.0013945
0.000932121
-0.000607859
-0.00143874
0.00103665
-0.000715149
-0.0014219
0.00108827
-0.000798183
-0.00133491
0.00113313
-0.000881896
-0.00118976
0.00116019
-0.000937152
-0.000995952
0.00116452
-0.000966945
-0.000768621
0.00114378
-0.000962793
-0.000533435
0.00108256
-0.00092101
-0.000308252
0.00100574
-0.000847515
-0.000116337
0.000875609
-0.00072807
4.26551e-05
0.000736025
-0.000596439
0.000124139
0.000584327
-0.000431978
0.000149186
0.00045691
-0.000307378
0.000134578
0.000337429
-0.000201744
0.000103971
0.000249782
-0.000138432
7.08312e-05
0.000187114
-9.84851e-05
4.43938e-05
0.000146698
-7.73957e-05
1.76304e-05
0.000117026
-5.73843e-05
8.04042e-05
-4.02457e-05
1.91736e-05
4.61419e-06
-1.21783e-05
5.71922e-05
-3.31299e-05
-3.29733e-05
9.7614e-05
-2.46047e-05
-3.94524e-05
0.000126521
-2.85198e-06
-4.10246e-05
0.000142548
2.87319e-05
-4.73767e-05
0.000147923
5.86792e-05
-5.6469e-05
0.000139896
0.000101599
-6.58681e-05
0.000123184
0.000139099
-8.31448e-05
9.37617e-05
0.000201781
-0.000108894
3.6643e-05
0.000270027
-0.000129497
-4.75174e-05
0.000352726
-0.000143181
-0.000148657
0.000433462
-0.000164771
-0.000303572
0.000538553
-0.000179332
-0.000484365
0.000647317
-0.000220626
-0.000687935
0.000756822
-0.000252747
-0.000874976
0.000868442
-0.000303641
-0.00104056
0.000975261
-0.000355938
-0.00119074
0.00109822
-0.000409453
-0.00132684
0.00123513
-0.000461765
-0.00145163
0.0013743
-0.000517741
-0.00156142
0.00151028
-0.00054486
-0.0016239
0.00159204
-0.000597434
-0.00163234
0.00169762
-0.000652536
-0.00159319
0.00172851
-0.000679392
-0.00149569
0.00174991
-0.000714273
-0.00135496
0.00174262
-0.000723155
-0.00117842
0.00170071
-0.000712732
-0.000977658
0.00162406
-0.000681041
-0.000767565
0.00150637
-0.000633906
-0.000547949
0.00135985
-0.000573725
-0.000365816
0.00118708
-0.000493601
-0.000206008
0.00100489
-0.000428678
-9.05927e-05
0.000806968
-0.000338055
-8.82423e-06
0.00064476
-0.000269618
2.95027e-05
0.000497164
-0.000198061
4.3937e-05
0.000387326
-0.000151978
4.41972e-05
0.000307687
-0.000120833
3.475e-05
0.00025554
-9.93957e-05
1.58622e-05
0.00020612
-7.02064e-05
0.000136546
-4.02795e-05
1.99105e-05
2.01482e-06
-1.73109e-05
5.83718e-05
-2.57658e-05
-4.58253e-05
9.8232e-05
-6.21498e-06
-5.82496e-05
0.000121703
3.90519e-05
-6.53749e-05
0.000125787
9.70121e-05
-7.23642e-05
0.000114125
0.000155975
-8.56343e-05
9.2995e-05
0.00023368
-0.000110952
5.4856e-05
0.000313628
-0.00013639
3.62392e-08
0.00042529
-0.00016869
-7.9758e-05
0.000537702
-0.000187882
-0.000194474
0.000670492
-0.000203051
-0.000345311
0.000802311
-0.000218013
-0.000509831
0.000933331
-0.000230258
-0.000667823
0.00105135
-0.000246043
-0.000821441
0.00117835
-0.000267906
-0.000965563
0.00130569
-0.000293129
-0.00110098
0.00142901
-0.000318332
-0.00122113
0.00155094
-0.000332564
-0.00132739
0.00168111
-0.000339715
-0.00142324
0.00180375
-0.000333613
-0.00151977
0.00190275
-0.000295933
-0.00157764
0.0019418
-0.000291889
-0.00158471
0.00200262
-0.000297938
-0.00155737
0.00198221
-0.000281035
-0.00148186
0.00195591
-0.000281507
-0.00137875
0.0019053
-0.000265791
-0.00125237
0.00182194
-0.000247617
-0.00111105
0.00171041
-0.000227673
-0.000957905
0.00156176
-0.000208531
-0.00079294
0.0013984
-0.000203521
-0.000616408
0.00121365
-0.0002031
-0.000444381
0.00103217
-0.000199301
-0.000293723
0.000852709
-0.000196397
-0.000170499
0.000709274
-0.000187738
-8.61691e-05
0.000580484
-0.00016765
-2.79961e-05
0.000477467
-0.000148313
7.95639e-06
0.000404653
-0.000132918
2.11908e-05
0.000350911
-0.000108606
1.71621e-05
0.000286955
-7.68061e-05
0.000191155
-3.7447e-05
2.01648e-05
1.77922e-05
-3.59422e-05
5.97433e-05
1.11706e-05
-7.65149e-05
0.00010182
4.24446e-05
-9.0736e-05
0.000120251
0.000119869
-9.92484e-05
0.000117544
0.000204685
-0.000104966
8.87263e-05
0.000304463
-0.00011967
5.18223e-05
0.000421162
-0.000150579
1.3812e-05
0.000535603
-0.000183965
-3.48511e-05
0.000682439
-0.000208486
-0.000115369
0.000833977
-0.000215757
-0.000215101
0.000986527
-0.000216303
-0.000326207
0.00112553
-0.000212116
-0.000458019
0.00126785
-0.000202706
-0.00059984
0.00139545
-0.000202273
-0.000739176
0.00151405
-0.000196369
-0.000860688
0.00161713
-0.000189928
-0.000963227
0.00170413
-0.000172578
-0.0010452
0.0017738
-0.000140886
-0.00113549
0.00185403
-8.26285e-05
-0.00122332
0.00191945
-2.78686e-05
-0.00133802
0.00196302
5.44203e-05
-0.00140204
0.00191696
8.88671e-05
-0.00142681
0.00192901
9.83851e-05
-0.00143101
0.00187727
0.000109131
-0.00140004
0.00183019
9.47565e-05
-0.00135386
0.00177125
8.78742e-05
-0.00128979
0.00168219
7.56754e-05
-0.00121958
0.00157899
6.12086e-05
-0.00112547
0.00144477
2.28835e-05
-0.00100744
0.00130224
-2.18738e-05
-0.000863238
0.00114119
-7.17459e-05
-0.000700372
0.000991812
-0.000122511
-0.000538483
0.000841649
-0.000150828
-0.000382608
0.000724017
-0.000170618
-0.000247382
0.000624837
-0.00017958
-0.000136223
0.000530476
-0.000164168
-5.55553e-05
0.000470601
-0.000146615
-5.54561e-06
0.000422167
-0.000121266
9.25966e-06
0.000353084
-8.09347e-05
0.000234284
-3.38694e-05
1.58603e-05
6.3503e-05
-6.15712e-05
5.91509e-05
8.15767e-05
-0.000113697
0.000109496
0.000132334
-0.000140234
0.00012877
0.000237609
-0.000137014
0.000124311
0.000350232
-0.00014109
8.4516e-05
0.000493345
-0.000149087
6.04904e-05
0.000632737
-0.000187549
2.16343e-05
0.000787538
-0.00021308
-2.72966e-05
0.000952724
-0.000221355
-9.27201e-05
0.0011059
-0.000206498
-0.000166726
0.00124886
-0.000188329
-0.00025325
0.00137758
-0.000165521
-0.000342053
0.00149492
-0.000138273
-0.000427272
0.00158944
-0.000108778
-0.000508357
0.00167175
-7.66114e-05
-0.000583243
0.00172813
-3.61074e-05
-0.000682397
0.00176935
3.39304e-05
-0.000786084
0.00178385
9.3637e-05
-0.000879817
0.00178514
0.000162628
-0.000964849
0.00176947
0.000235012
-0.00108321
0.0017913
0.000290077
-0.00117715
0.00170145
0.000309448
-0.00123654
0.00168095
0.000307461
-0.00128515
0.00161598
0.000309899
-0.00130619
0.00155946
0.000291765
-0.00131657
0.00150463
0.000277002
-0.00131351
0.00143259
0.000246542
-0.0013014
0.00135612
0.000210761
-0.00126584
0.00125703
0.000152177
-0.00118457
0.00115622
6.47553e-05
-0.00107338
0.00103951
-9.50309e-06
-0.000917105
0.000926688
-9.11498e-05
-0.000742473
0.000816731
-0.000149715
-0.000556461
0.00072074
-0.000182734
-0.000380266
0.00065063
-0.000201987
-0.000232017
0.000570958
-0.000188732
-0.000110798
0.000520379
-0.000170997
-3.17086e-05
0.000478115
-0.000135038
5.59034e-06
0.00040387
-8.80846e-05
0.000272435
-3.25614e-05
1.74703e-05
0.000141694
-9.56616e-05
8.58065e-05
0.00018294
-0.000169699
0.000134741
0.000267195
-0.000183796
0.000154878
0.000389622
-0.000172149
0.000145702
0.000523343
-0.000163935
0.000112049
0.000697124
-0.000170126
9.95488e-05
0.000846604
-0.000201367
7.72374e-05
0.00102061
-0.000210761
5.5403e-05
0.00116873
-0.000194175
9.57633e-06
0.00131298
-0.000161254
-5.01991e-05
0.00143628
-0.000127648
-0.000119831
0.00153832
-9.11153e-05
-0.000191046
0.00161979
-5.36527e-05
-0.000264888
0.00167125
-7.962e-06
-0.00033489
0.00169817
4.3582e-05
-0.000399605
0.00169793
9.4912e-05
-0.000462334
0.00167857
0.000153504
-0.000534666
0.00163745
0.00021873
-0.000637239
0.00159639
0.000291321
-0.000743195
0.0015258
0.000349627
-0.000860157
0.00151242
0.000395847
-0.000991984
0.0014144
0.000418874
-0.00106387
0.00135245
0.000400377
-0.00115693
0.00131948
0.000389564
-0.00122474
0.00127313
0.000354134
-0.00128747
0.00124358
0.000323785
-0.00133608
0.00120163
0.000279569
-0.00136991
0.00115885
0.000231099
-0.00138091
0.00110242
0.000165611
-0.00133485
0.00104162
6.85357e-05
-0.00125161
0.000962587
-6.32046e-06
-0.00111816
0.000878273
-8.50348e-05
-0.000938632
0.000794681
-0.000157477
-0.000726769
0.000706494
-0.000197617
-0.000499685
0.000660645
-0.000237099
-0.000319612
0.000614182
-0.000223297
-0.000160969
0.000564011
-0.000202276
-5.52543e-05
0.000529919
-0.00015752
1.96123e-07
0.000450879
-0.000102459
0.00030849
-3.58594e-05
2.83973e-05
0.00023946
-0.000126162
0.000117112
0.000310132
-0.000215907
0.000183612
0.000427031
-0.000226335
0.000211418
0.000560906
-0.000199091
0.000196154
0.000716084
-0.000177477
0.000187244
0.000886672
-0.000180637
0.000190169
0.00103917
-0.000195495
0.000184831
0.00120897
-0.000183018
0.000161475
0.0013414
-0.000149309
0.000120376
0.00145969
-0.000105612
7.10423e-05
0.00155278
-6.71661e-05
1.37518e-05
0.00161564
-2.00291e-05
-4.96471e-05
0.00164902
3.4172e-05
-0.000113922
0.00164809
8.74303e-05
-0.000177488
0.0016222
0.000139535
-0.000243627
0.00156977
0.000194299
-0.000309923
0.00150037
0.000244498
-0.000383886
0.00142275
0.000288658
-0.000474292
0.00134887
0.000337922
-0.000582797
0.00126222
0.000372079
-0.000687177
0.00121627
0.000400527
-0.000842728
0.00116336
0.000406591
-0.000945921
0.00106997
0.000385674
-0.00107052
0.00107933
0.000364746
-0.00117672
0.00104762
0.000331701
-0.0012716
0.00104083
0.000297635
-0.00135325
0.00102522
0.000258056
-0.00141968
0.00100433
0.000220949
-0.00145866
0.00097873
0.000162669
-0.0014473
0.000936594
9.36677e-05
-0.00138966
0.000882506
2.2439e-05
-0.00127626
0.000814712
-4.98399e-05
-0.00109503
0.000750351
-0.000136901
-0.000886391
0.000689546
-0.00019169
-0.000640204
0.000646014
-0.000231556
-0.000412392
0.000640453
-0.000254084
-0.000216347
0.000593904
-0.000225939
-7.97236e-05
0.000573825
-0.000180529
-6.407e-06
0.000492686
-0.000115123
0.000342262
-4.01779e-05
4.76692e-05
0.000346993
-0.000155203
0.000156493
0.000460948
-0.00025964
0.000250855
0.00059935
-0.000266681
0.00029211
0.000740115
-0.000220464
0.000288878
0.000903097
-0.000183781
0.000286388
0.00106042
-0.000171254
0.000278443
0.00120895
-0.000161826
0.000283578
0.00134647
-0.000142642
0.00027438
0.00145539
-0.000104792
0.000240824
0.00154776
-5.45143e-05
0.000196171
0.00159868
-1.24441e-06
0.000140647
0.00161773
5.34426e-05
7.36732e-05
0.00160958
0.000106418
5.6921e-06
0.00156356
0.000152507
-6.27463e-05
0.00149342
0.000197213
-0.000135514
0.00140399
0.000238546
-0.000211558
0.0013056
0.000270818
-0.000288882
0.00120713
0.00029295
-0.000378691
0.00112402
0.000314658
-0.000485727
0.00103968
0.000329574
-0.000591547
0.000982367
0.000339725
-0.000740246
0.000970315
0.000341744
-0.000883696
0.000886579
0.000326843
-0.00101627
0.000906413
0.000305498
-0.00114627
0.00089227
0.000285346
-0.00125804
0.000897283
0.00025532
-0.00136231
0.00089312
0.000236369
-0.00145085
0.000889434
0.000203438
-0.00151801
0.000871101
0.000174788
-0.00154276
0.000837336
0.000124005
-0.00150733
0.000788789
5.82847e-05
-0.00140636
0.000736135
-2.23856e-05
-0.00123205
0.000678506
-0.000102469
-0.00100717
0.000635355
-0.00017069
-0.000745275
0.000604225
-0.000220106
-0.000490715
0.000632495
-0.000246602
-0.000269853
0.00061755
-0.000244509
-0.00010247
0.000604766
-0.000198324
-1.4927e-05
0.000534673
-0.00012953
0.000374391
-4.70558e-05
6.59405e-05
0.000449552
-0.000168499
0.000200542
0.000616233
-0.000289887
0.000320312
0.000771616
-0.000292035
0.000376389
0.000914369
-0.000230332
0.000390266
0.00106499
-0.000175775
0.000385436
0.00120334
-0.000138094
0.000377518
0.00133663
-0.000119765
0.000372552
0.00144522
-9.37835e-05
0.000362421
0.00152237
-5.68563e-05
0.000344954
0.00156987
-4.64646e-06
0.00030572
0.00159362
4.42959e-05
0.000235197
0.00158123
0.000107022
0.000165739
0.00152647
0.00015256
9.1732e-05
0.00144411
0.000193457
1.48498e-05
0.00134487
0.000225439
-6.64684e-05
0.00123529
0.000250023
-0.00014937
0.00112561
0.000262888
-0.000234396
0.00102625
0.000265904
-0.000331612
0.000952831
0.000268408
-0.000440893
0.000884367
0.0002646
-0.000560642
0.000834926
0.000267189
-0.000685654
0.00082729
0.000268036
-0.000847701
0.000779692
0.000268934
-0.000975516
0.000777712
0.000256517
-0.00111062
0.000774708
0.000252664
-0.00122604
0.000783435
0.000229273
-0.00134188
0.000781901
0.000227059
-0.00145083
0.0007809
0.000217478
-0.00153806
0.000756567
0.000201764
-0.00158805
0.000726321
0.000161006
-0.0015798
0.000688905
9.16337e-05
-0.00149977
0.000649253
6.85113e-06
-0.00134667
0.000609156
-8.37512e-05
-0.00112274
0.00057459
-0.000163165
-0.000858943
0.000542876
-0.000202445
-0.000568951
0.000572875
-0.000230372
-0.000319748
0.000613449
-0.000245102
-0.000127134
0.000617898
-0.000205746
-2.26445e-05
0.000566649
-0.000136466
0.000402948
-5.12012e-05
8.01342e-05
0.000545228
-0.00017581
0.00024335
0.000763767
-0.00031075
0.000388684
0.000935095
-0.000308813
0.000463841
0.00107129
-0.000232078
0.000493172
0.00119906
-0.0001634
0.000488678
0.00131435
-0.000106518
0.000479284
0.00142188
-7.58612e-05
0.000462864
0.00150061
-3.89672e-05
0.000434749
0.00155325
-2.76487e-06
0.000400278
0.00157401
3.03309e-05
0.00036509
0.0015513
7.75035e-05
0.000309433
0.00150162
0.000135264
0.00023344
0.00142636
0.000176112
0.000146228
0.0013208
0.000210529
6.00533e-05
0.00120164
0.000229402
-2.89928e-05
0.0010865
0.000237838
-0.000119068
0.000978927
0.000236758
-0.000215967
0.00089143
0.000231721
-0.000318796
0.000831539
0.000224122
-0.000426799
0.000775532
0.000216837
-0.00053807
0.000735228
0.000210969
-0.000641913
0.000717858
0.000213276
-0.00079526
0.000705593
0.000227445
-0.000919649
0.000677228
0.000224873
-0.00104774
0.000669555
0.000233247
-0.00117099
0.000672678
0.000234004
-0.00129438
0.000672587
0.000232705
-0.00142176
0.000660587
0.000247694
-0.00153182
0.000640459
0.000226169
-0.00160504
0.000616327
0.000183208
-0.00163186
0.000584847
0.000130885
-0.00158341
0.000559503
4.12946e-05
-0.0014471
0.000522122
-4.92697e-05
-0.00121306
0.000497308
-0.000156767
-0.000931095
0.000474089
-0.000213175
-0.000631933
0.000502848
-0.000229135
-0.000367501
0.000569197
-0.00022018
-0.00015059
0.000620162
-0.000219176
-2.94035e-05
0.000587373
-0.000141909
0.000431657
-5.81115e-05
9.25909e-05
0.000622418
-0.000169781
0.000281758
0.000893878
-0.000319278
0.000452401
0.00107869
-0.000314233
0.000546704
0.00120092
-0.000223937
0.000586892
0.00130507
-0.000146194
0.000588054
0.00139157
-7.83797e-05
0.000575794
0.00147037
-3.62224e-05
0.000546932
0.00152226
7.20706e-06
0.000507029
0.00154944
4.37228e-05
0.000454591
0.00153758
8.88737e-05
0.000397644
0.00149792
0.00011033
0.00033083
0.00142112
0.000147318
0.000262507
0.00131277
0.000181907
0.000179054
0.00119735
0.000206904
8.85572e-05
0.00107618
0.000215958
-4.76747e-06
0.000965732
0.000214088
-9.86513e-05
0.00086648
0.000206331
-0.000204465
0.000796388
0.000200856
-0.000306127
0.00074188
0.000191321
-0.000413346
0.000697639
0.000185112
-0.000513748
0.000656716
0.000178915
-0.000609303
0.00063259
0.000180822
-0.000725059
0.000623036
0.000198313
-0.00083979
0.000584867
0.000207092
-0.000958081
0.000564497
0.00022335
-0.00107746
0.000559957
0.000232105
-0.00121361
0.000549169
0.000259563
-0.00135221
0.000539561
0.00025962
-0.00147852
0.000524808
0.000241963
-0.00158259
0.000510765
0.00020963
-0.00163005
0.000496484
0.000135826
-0.00161283
0.00047932
6.29586e-05
-0.00151433
0.000444576
-2.09488e-05
-0.00132502
0.000420055
-0.000112059
-0.00103483
0.0004057
-0.000221796
-0.000703051
0.000422252
-0.000251186
-0.000401764
0.000493179
-0.000225269
-0.000173566
0.000589684
-0.000197719
-3.66965e-05
0.000595393
-0.00014489
0.00045576
-6.07991e-05
0.000100042
0.000681412
-0.000159035
0.000311269
0.00100042
-0.000317767
0.000507449
0.00119266
-0.000310151
0.000620987
0.00130136
-0.00021397
0.000668204
0.00138387
-0.00012602
0.000674497
0.00144337
-5.80985e-05
0.000659164
0.00149052
-4.82111e-06
0.000623198
0.00151301
4.52212e-05
0.000571169
0.00151374
8.77263e-05
0.000504368
0.00148283
0.000121547
0.000429401
0.00142041
0.000152481
0.000348808
0.00132865
0.000173053
0.000269717
0.00121379
0.000178071
0.00018927
0.00108815
0.000189646
0.000100204
0.000970664
0.000194581
1.26761e-05
0.000865615
0.000187645
-8.20044e-05
0.000780759
0.000180402
-0.000185334
0.000721609
0.000178109
-0.000282186
0.000665745
0.000172988
-0.0003812
0.000625355
0.000171298
-0.000471477
0.000581894
0.000165098
-0.000555447
0.000550469
0.000166091
-0.000637652
0.000528978
0.000176263
-0.000735511
0.000490476
0.00019225
-0.000846005
0.000465188
0.000209803
-0.000965601
0.000440428
0.000239123
-0.00110295
0.000430129
0.000256388
-0.00124659
0.000421884
0.000261317
-0.00138981
0.000415705
0.00025232
-0.00151013
0.000416289
0.000214794
-0.00160126
0.000411464
0.00017615
-0.00161844
0.000388638
0.00010787
-0.00156524
0.000345745
4.56232e-05
-0.0014062
0.000308465
-4.74441e-05
-0.00114234
0.000298487
-0.000156652
-0.000794553
0.000325652
-0.000251184
-0.0004529
0.00041043
-0.000258904
-0.000195615
0.00052394
-0.000191541
-4.39551e-05
0.000590407
-0.000146674
0.000478788
-6.69836e-05
0.000105069
0.000716276
-0.000139934
0.000336263
0.00107602
-0.000306796
0.000555976
0.00127774
-0.000304798
0.000686051
0.00137351
-0.000202234
0.000740236
0.0014345
-0.000104813
0.000745285
0.00146977
-3.14466e-05
0.000725231
0.00149187
1.8704e-05
0.000679078
0.00148439
7.47737e-05
0.000620176
0.00146017
0.000112465
0.000549136
0.00140656
0.000147307
0.000464269
0.00133143
0.000173838
0.000369863
0.00123012
0.000192938
0.00027526
0.00111462
0.000193775
0.000193378
0.000989922
0.000180105
0.000107524
0.000879675
0.000176843
2.7643e-05
0.00078288
0.000162616
-6.36541e-05
0.000708987
0.000163069
-0.000153605
0.000647765
0.000163796
-0.00024609
0.000594728
0.000163502
-0.000332133
0.000549244
0.000162154
-0.000410198
0.000501627
0.000158332
-0.000482605
0.000467763
0.000155113
-0.000547104
0.000435811
0.000157665
-0.000625535
0.000394316
0.00017459
-0.000721032
0.000367083
0.000193602
-0.000832861
0.000330672
0.000221586
-0.000962185
0.000314239
0.000245214
-0.00110309
0.000310382
0.000252402
-0.00125099
0.000319317
0.000244287
-0.00140102
0.000327146
0.000239174
-0.00151715
0.000314842
0.000212757
-0.00158906
0.000274583
0.000185968
-0.00158398
0.000220353
0.000120305
-0.00147265
0.000169251
2.78876e-05
-0.00123456
0.000142421
-8.20247e-05
-0.000893865
0.00017687
-0.000191915
-0.000511798
0.000292257
-0.000263892
-0.000220606
0.000452323
-0.000219574
-4.94137e-05
0.000565087
-0.000145872
0.000501238
-7.18646e-05
0.000107342
0.000729553
-0.000120619
0.000352687
0.00112165
-0.000290976
0.00059097
0.00133493
-0.000295478
0.000737364
0.00142371
-0.00019659
0.000797445
0.0014635
-8.90778e-05
0.00080049
0.0014719
-5.17126e-06
0.000774886
0.00146463
5.28485e-05
0.000728229
0.00143622
9.48254e-05
0.00066229
0.00139273
0.000133387
0.000580658
0.00132477
0.000163426
0.000487265
0.00123775
0.000187077
0.000386488
0.00113066
0.000200238
0.000284537
0.00101611
0.000200457
0.000195083
0.00089822
0.000181156
0.000114901
0.000795846
0.000164012
4.42834e-05
0.000701922
0.000151576
-3.83599e-05
0.000640346
0.000151284
-0.000121929
0.00057801
0.000153324
-0.000202051
0.000521253
0.000153597
-0.000269936
0.000465968
0.000151162
-0.00034117
0.000425164
0.000147697
-0.000402007
0.000386201
0.000142398
-0.000457639
0.000349386
0.000142056
-0.000520215
0.000306427
0.000150466
-0.00059534
0.000275357
0.000166851
-0.000697465
0.000241292
0.000191505
-0.000809435
0.000212428
0.00021378
-0.000942409
0.000217908
0.000225447
-0.0010942
0.000232023
0.000239083
-0.00124247
0.000231086
0.000244332
-0.00138662
0.000208316
0.00025068
-0.00149962
0.000164837
0.000222744
-0.00154899
9.93487e-05
0.000170372
-0.00149592
2.75816e-05
8.85959e-05
-0.0013094
-2.38025e-05
-2.02898e-05
-0.000998504
-7.46436e-06
-0.000126564
-0.000593528
0.000113845
-0.000226565
-0.00024568
0.000354809
-0.000250334
-5.9739e-05
0.000521403
-0.000142256
0.00051297
-7.14698e-05
0.000112057
0.000703716
-8.62201e-05
0.000367717
0.00112458
-0.000258595
0.000619358
0.00135296
-0.00026967
0.000779391
0.00143891
-0.000175231
0.000846691
0.00146625
-7.00498e-05
0.00084254
0.00145276
2.32923e-05
0.000809424
0.00142449
7.32566e-05
0.00075267
0.00137382
0.000119149
0.000683728
0.0013139
0.000147769
0.000605978
0.00123275
0.000169775
0.000514799
0.00113804
0.000190882
0.000413226
0.00103197
0.000200263
0.000309518
0.000921561
0.000198258
0.000211632
0.000812931
0.000183175
0.000127439
0.000720375
0.000159664
4.78706e-05
0.000636477
0.000145013
-1.8415e-05
0.000563322
0.00014331
-8.02944e-05
0.000496641
0.000143249
-0.000143299
0.000444626
0.000139632
-0.000211118
0.00039788
0.000135908
-0.000272261
0.000353426
0.000132882
-0.000324474
0.000310152
0.000128262
-0.000373151
0.000272123
0.00012594
-0.000424954
0.000229057
0.000129171
-0.000481984
0.000194038
0.000138349
-0.000568645
0.000164844
0.000163108
-0.000666552
0.000132343
0.000177992
-0.000790379
0.000138491
0.000203243
-0.000925074
0.000139118
0.000227599
-0.00107771
0.000125956
0.000257769
-0.00123649
0.000100953
0.000266143
-0.00137838
5.04748e-05
0.000256247
-0.00147196
-2.30085e-05
0.000215942
-0.00147315
-0.000116585
0.000145356
-0.00134761
-0.000196031
4.66909e-05
-0.00107213
-0.000218367
-6.45792e-05
-0.000683791
-0.000109686
-0.000164809
-0.000280181
0.000172583
-0.000221385
-6.19843e-05
0.000461904
-0.000158697
0.000522317
-7.13304e-05
0.000114921
0.000629141
-4.03464e-05
0.000376409
0.0010931
-0.000230006
0.000639668
0.00134122
-0.000251514
0.000817665
0.00142398
-0.000163069
0.000890864
0.00143605
-4.3004e-05
0.000887081
0.00140433
5.22147e-05
0.000851348
0.00135573
0.000104493
0.000794995
0.00129032
0.00013986
0.000720816
0.00122688
0.000161197
0.000629683
0.00114674
0.000177134
0.000526892
0.00105532
0.000185513
0.000418975
0.000945783
0.000194107
0.000314725
0.000837512
0.000188299
0.000224557
0.000728684
0.000174415
0.000154415
0.000634308
0.000156209
8.781e-05
0.000557595
0.000145488
1.84595e-05
0.000494264
0.000138409
-5.0745e-05
0.0004347
0.000131145
-0.000109643
0.000382304
0.000121219
-0.000161747
0.000332787
0.000117197
-0.000209015
0.000287889
0.000112805
-0.000255196
0.000245365
0.000110969
-0.000298079
0.00020626
0.000108747
-0.000345836
0.000166543
0.000110271
-0.000395967
0.000130247
0.000113922
-0.000460395
8.99191e-05
0.000139352
-0.000549739
5.53926e-05
0.000166293
-0.00064538
4.37028e-05
0.00019043
-0.00076181
3.06004e-05
0.000224948
-0.000901885
1.35529e-05
0.000252479
-0.00105884
-1.30235e-05
0.000270927
-0.00121529
-6.34739e-05
0.000270404
-0.00134361
-0.000138823
0.000244134
-0.00140043
-0.000246226
0.000186464
-0.00134001
-0.000354598
9.81443e-05
-0.00113136
-0.000420073
-6.947e-06
-0.000777325
-0.000350951
-0.000112766
-0.000357193
-7.41584e-05
-0.000173391
-6.77587e-05
0.000347257
-0.000174789
0.000511985
-5.74279e-05
0.000119745
0.000509055
3.40774e-07
0.000367217
0.00103615
-0.000190519
0.000641799
0.00129706
-0.000230425
0.000832305
0.00138387
-0.000150396
0.000911804
0.00138918
-3.26242e-05
0.000903295
0.00134713
6.57067e-05
0.000855036
0.00128242
0.00012157
0.000780196
0.00120824
0.000156915
0.000698857
0.00112721
0.00018101
0.000621921
0.00102968
0.000194004
0.000543659
0.000935488
0.000198096
0.000459196
0.00083554
0.000194706
0.000370347
0.000742103
0.000184258
0.000286609
0.000654795
0.000157626
0.000205893
0.000576589
0.000138436
0.000129259
0.000505284
0.000128946
5.04348e-05
0.000441448
0.000131641
-1.54679e-05
0.000383019
0.000117583
-6.95043e-05
0.000329316
0.000107024
-0.000113096
0.000277
9.93783e-05
-0.000153898
0.00023121
9.74808e-05
-0.000193021
0.000189588
9.48992e-05
-0.000232309
0.000151638
9.391e-05
-0.000272411
0.000113213
9.34304e-05
-0.000316767
7.39764e-05
0.000100627
-0.000374255
3.00913e-05
0.000117315
-0.000449088
-9.69417e-06
0.000139919
-0.000536976
-4.28392e-05
0.00017443
-0.000642589
-7.15863e-05
0.0002078
-0.000772538
-0.000100014
0.000243515
-0.000917254
-0.000145169
0.000276862
-0.00107195
-0.000205631
0.000296851
-0.00121661
-0.000284519
0.000290363
-0.0013067
-0.000404098
0.000247955
-0.00129951
-0.000536928
0.000175142
-0.00112977
-0.000678125
8.83057e-05
-0.000798821
-0.000663464
-1.8432e-05
-0.000383673
-0.000363931
-0.000125373
-5.7434e-05
0.000163071
-0.000142053
0.000492324
-3.77729e-05
0.000135921
0.000336658
3.6476e-05
0.000363537
0.000947099
-0.000138567
0.000640395
0.00121868
-0.000198476
0.000835597
0.00131024
-0.000121576
0.000928506
0.00130084
-4.56914e-06
0.000932493
0.00124959
9.35491e-05
0.000899869
0.00117025
0.000144791
0.000845976
0.00108757
0.000174566
0.000781353
0.00100863
0.000183202
0.000697935
0.000927223
0.000185871
0.000602794
0.000847854
0.000182775
0.00049894
0.000763391
0.000176003
0.000395484
0.000680531
0.000165029
0.00030026
0.000604357
0.000145661
0.000222788
0.000531269
0.000122793
0.00015661
0.000464141
0.000107321
9.3182e-05
0.000399298
0.000105578
3.17462e-05
0.000336531
0.000107925
-1.70495e-05
0.000280412
9.77001e-05
-6.15279e-05
0.000232138
8.93409e-05
-0.000101136
0.000185334
8.5484e-05
-0.00013935
0.000144512
8.32902e-05
-0.000174588
0.000104088
8.27869e-05
-0.000213747
6.95707e-05
8.28001e-05
-0.000256771
2.68539e-05
9.0146e-05
-0.000310268
-1.52886e-05
9.88765e-05
-0.000370796
-5.95117e-05
0.000110345
-0.000438384
-0.000111259
0.000136007
-0.00051767
-0.00016483
0.00017253
-0.000612897
-0.000218615
0.000213829
-0.000737601
-0.000276419
0.000255955
-0.000892082
-0.000342986
0.000291836
-0.0010663
-0.00042134
0.000311035
-0.00120367
-0.000574223
0.000307499
-0.00126118
-0.000747744
0.000268326
-0.00118549
-0.000931841
0.000178029
-0.000934455
-0.000982745
6.82417e-05
-0.000499716
-0.00076299
-3.56812e-05
-0.000101224
-0.000150409
-8.50131e-05
0.000394984
-3.88358e-06
0.000105435
0.000220429
1.07931e-05
0.000326475
0.000863856
-0.000137797
0.000610109
0.00113968
-0.000204635
0.000822362
0.00123889
-0.000140897
0.000928277
0.00122527
-3.03484e-05
0.000947401
0.00116603
6.44337e-05
0.000906562
0.00107494
0.000136145
0.000840135
0.000994476
0.000159517
0.000764006
0.000915946
0.000168816
0.000680646
0.000838868
0.000171714
0.000596624
0.000762484
0.000169392
0.000508623
0.000688653
0.00016274
0.000422983
0.00061597
0.000150202
0.000340779
0.000552516
0.000134045
0.000263769
0.000488211
0.000120067
0.000199708
0.000430357
9.78448e-05
0.000145842
0.000367166
8.59981e-05
8.99507e-05
0.000309552
8.28705e-05
3.4266e-05
0.000249583
8.65143e-05
-9.55942e-06
0.000193537
8.24268e-05
-5.24529e-05
0.000151157
7.70702e-05
-8.8762e-05
0.000105131
7.56891e-05
-0.000125738
6.75718e-05
7.34919e-05
-0.000160508
2.98111e-05
7.45294e-05
-0.000201433
-1.48963e-05
8.26745e-05
-0.000249897
-5.31417e-05
8.63169e-05
-0.000305139
-9.7117e-05
9.28482e-05
-0.000371103
-0.000151461
0.000106167
-0.000454715
-0.000212675
0.000131457
-0.00054819
-0.000290451
0.00016531
-0.000651393
-0.00038243
0.000209213
-0.000758572
-0.000495127
0.00025932
-0.000877333
-0.000614249
0.000311669
-0.00100579
-0.000784205
0.000338439
-0.00110914
-0.00097667
0.000332282
-0.00110211
-0.00120762
0.000268741
-0.000927807
-0.00131811
0.000161063
-0.000561027
-0.00117573
4.59595e-05
-0.000131524
-0.000552762
-2.71505e-05
0.000206686
5.6773e-05
7.6451e-05
0.000133262
1.07161e-05
0.000312394
0.000756261
-0.000128349
0.000581001
0.00105648
-0.000185407
0.000805119
0.00116453
-0.000149759
0.000923059
0.0011528
-4.54738e-05
0.000954797
0.00108815
4.61464e-05
0.000916656
0.000993743
0.000119341
0.000856799
0.000908069