/*--------------------------------*- C++ -*----------------------------------*\
| =========                 |                                                 |
| \\      /  F ield         | OpenFOAM: The Open Source CFD Toolbox           |
|  \\    /   O peration     | Version:  v1806                                 |
|   \\  /    A nd           | Web:      www.OpenFOAM.com                      |
|    \\/     M anipulation  |                                                 |
\*---------------------------------------------------------------------------*/
FoamFile
{
    version     2.0;
    format      ascii;
    class       volScalarField;
    location    "0.1305";
    object      p;
}
// * * * * * * * * * * * * * * * * * * * * * * * * * * * * * * * * * * * * * //

dimensions      [0 2 -2 0 0 0 0];


internalField   nonuniform List<scalar> 
64000
(
0.000198737
-0.0190368
-0.0269216
0.122058
0.363698
0.632754
0.939323
1.25875
1.60687
1.9957
2.42463
2.95577
3.63469
4.24737
4.8816
5.46852
6.13035
6.66157
7.27167
7.71221
8.27605
8.28736
8.76023
8.87349
9.29055
9.49792
9.81105
9.94826
10.1187
10.1749
10.204
10.1682
10.0803
10.0054
9.88047
9.81116
9.72069
9.67298
9.62869
9.6167
-0.236697
-0.311884
-0.232682
-0.0370208
0.230392
0.50826
0.821294
1.13857
1.51459
1.82844
2.41227
3.00803
3.63934
4.25725
4.90454
5.48819
6.08563
6.73387
7.36774
7.87873
8.31992
8.34307
8.80492
8.97529
9.37801
9.58168
9.86285
9.98527
10.1534
10.1769
10.2662
10.1982
10.1203
10.0596
9.9137
9.84394
9.73908
9.679
9.62006
9.60652
-0.706296
-0.710069
-0.50838
-0.272266
-0.00527937
0.291102
0.60173
0.919953
1.23275
1.77401
2.26417
2.85276
3.41449
4.12642
4.82234
5.42356
6.12649
6.69373
7.32711
7.78963
8.18955
8.09439
8.5363
8.66028
9.03368
9.20749
9.46416
9.5977
9.75814
9.86273
9.91571
10.0101
9.95734
9.94747
9.83037
9.78835
9.68777
9.633
9.57517
9.55217
-1.23141
-1.11784
-0.882824
-0.634607
-0.395129
-0.129527
0.215781
0.466041
0.969338
1.43794
1.90248
2.61893
3.30462
3.93235
4.63364
5.27462
5.9729
6.54736
7.1772
7.63988
8.02272
7.8336
8.24906
8.35545
8.71156
8.89059
9.1549
9.30744
9.50942
9.63306
9.75715
9.83279
9.84166
9.86826
9.75928
9.76834
9.66101
9.57862
9.50238
9.47338
-1.89359
-1.70571
-1.43034
-1.22442
-0.926146
-0.673936
-0.304762
0.00468992
0.511086
1.01272
1.54739
2.10197
2.79261
3.51301
4.26831
4.94288
5.70214
6.30954
6.95535
7.4526
7.86282
7.62478
8.03622
8.12517
8.47637
8.66142
8.93028
9.11405
9.31962
9.48196
9.62445
9.72522
9.74321
9.78747
9.70455
9.62937
9.54618
9.45131
9.41716
9.36794
-2.61442
-2.46216
-2.24371
-1.92004
-1.62845
-1.32231
-0.90114
-0.586717
-0.0681119
0.377247
0.898485
1.52308
2.27957
3.03708
3.84747
4.58759
5.39437
5.97178
6.77815
7.36454
7.77392
7.57977
8.01649
8.12461
8.46427
8.65434
8.90395
9.06947
9.26568
9.42124
9.58006
9.72085
9.77174
9.83399
9.63691
9.56324
9.51121
9.35004
9.3062
9.27643
-3.35592
-3.28205
-3.14105
-2.90688
-2.52506
-2.28101
-1.77173
-1.6753
-1.17653
-0.645131
0.0466596
0.792902
1.6189
2.46443
3.35728
4.20587
5.07713
5.81849
6.44178
7.19918
7.79767
7.61181
8.10899
8.2299
8.55102
8.7395
8.94036
9.09026
9.24723
9.39088
9.51702
9.66078
9.71697
9.81196
9.70426
9.50334
9.45968
9.27566
9.20958
9.16514
-4.12138
-4.05776
-3.99814
-3.80842
-3.67785
-3.32455
-3.04372
-2.76511
-2.13654
-1.53488
-0.776331
0.0288143
0.914521
1.8393
2.81523
3.7537
4.71207
5.55392
6.41041
6.96132
7.97069
7.7281
8.25559
8.423
8.70373
8.89551
9.06056
9.17258
9.27865
9.40423
9.51936
9.60772
9.66429
9.72313
9.66469
9.41042
9.3397
9.18356
9.06563
9.03824
-4.93467
-4.91589
-4.79412
-4.71581
-4.48102
-4.33528
-3.95478
-3.72192
-3.12893
-2.42634
-1.65485
-0.767521
0.198179
1.18805
2.24113
3.27392
4.31876
5.27155
6.26725
6.88344
8.05183
8.1364
8.45835
8.73093
8.92586
9.12744
9.23069
9.31406
9.40001
9.4813
9.49754
9.57136
9.59706
9.61794
9.65632
9.34146
9.26118
9.07284
8.92008
8.87528
-5.82171
-5.76555
-5.69942
-5.6265
-5.44327
-5.36557
-4.92854
-4.49766
-4.18048
-3.40432
-2.49763
-1.55305
-0.508205
0.590998
1.73615
2.88793
4.04146
5.12901
6.20709
6.91191
8.17131
8.57063
8.73197
9.08855
9.20704
9.39521
9.46737
9.49786
9.53696
9.51201
9.52197
9.49259
9.51513
9.51389
9.47993
9.29641
9.0418
8.91453
8.74505
8.67564
-6.78611
-6.70107
-6.66805
-6.60397
-6.5015
-6.38806
-5.9551
-5.50446
-4.90121
-4.44569
-3.46122
-2.35707
-1.19887
0.0297284
1.30594
2.60017
3.88615
5.11953
6.31082
7.13479
8.48005
8.98885
9.11994
9.51294
9.57183
9.77785
9.73369
9.78563
9.67737
9.63425
9.57023
9.52411
9.42836
9.38042
9.38858
9.19662
8.89825
8.69627
8.49478
8.40472
-7.78751
-7.70537
-7.68395
-7.64739
-7.65158
-7.4493
-7.02707
-6.51842
-5.89229
-5.14396
-4.44802
-3.27164
-1.90575
-0.509247
0.928751
2.37959
3.8215
5.21099
6.5379
7.50382
8.93602
9.42964
9.60499
9.97976
10.0145
10.1238
10.0946
9.98283
9.90604
9.78617
9.53211
9.41174
9.3283
9.20841
9.12335
9.00756
8.66639
8.43117
8.24504
8.12718
-8.85733
-8.7715
-8.75936
-8.82447
-8.78586
-8.58733
-8.15242
-7.62568
-6.91288
-6.08101
-5.12747
-4.21042
-2.65266
-1.0342
0.572929
2.20516
3.7988
5.3551
6.81007
8.07284
9.51383
9.89821
10.2122
10.5185
10.5592
10.7022
10.5987
10.3983
10.0533
9.8037
9.68583
9.46325
9.26121
9.06006
8.89789
8.73125
8.40598
8.08799
7.83995
7.71535
-9.94973
-9.86006
-9.8993
-9.97184
-9.93134
-9.70074
-9.27331
-8.70229
-7.99677
-7.07463
-6.00602
-4.97983
-3.41157
-1.61078
0.226067
2.04816
3.7674
5.5254
7.22342
8.78924
10.1284
10.2338
10.8223
11.0814
11.1421
11.0413
10.82
10.679
10.498
10.1925
9.81624
9.43664
9.07303
8.78246
8.5155
8.31752
8.04561
7.72457
7.47948
7.34702
-11.0819
-11.0272
-11.0644
-11.1412
-11.1021
-10.9334
-10.4604
-9.89893
-9.10086
-8.15062
-6.93554
-5.66727
-4.08752
-2.28702
-0.10325
1.98504
3.97721
5.95958
7.8506
9.43722
10.8552
11.5363
11.8687
12.1402
12.056
11.9255
11.8394
11.5365
11.0922
10.5677
10.0328
9.49304
8.97613
8.50246
8.15631
7.80134
7.54135
7.22742
6.9158
6.75016
-12.1674
-12.1422
-12.1924
-12.2613
-12.2292
-12.0786
-11.6824
-11.1421
-10.3359
-9.28958
-7.92624
-6.4212
-4.64579
-2.47666
-0.292907
1.87074
4.0172
6.23114
8.30872
10.4915
11.8637
12.6175
13.0696
13.4386
13.5145
13.3104
12.6362
12.2511
11.6088
10.9477
10.229
9.5022
8.81194
8.19338
7.67311
7.2709
6.95157
6.7034
6.5609
6.26454
-13.4074
-13.3921
-13.432
-13.5094
-13.4869
-13.4027
-13.0478
-12.539
-11.6812
-10.4516
-8.77245
-6.83874
-4.88184
-2.71375
-0.371165
1.97383
4.27484
6.69643
9.26839
11.5346
13.1282
14.0059
14.6104
14.9305
14.8531
14.4443
13.8717
12.904
12.121
11.3322
10.3695
9.43844
8.55161
7.77398
7.14319
6.65033
6.23957
5.89053
5.65287
5.68117
-14.0718
-14.1506
-14.2416
-14.3264
-14.3684
-14.4064
-14.1384
-13.704
-12.8245
-11.5164
-9.68117
-7.30759
-5.4092
-3.13617
-0.564259
2.09607
4.70845
7.29779
9.94424
12.6849
14.4109
15.5074
16.2193
16.5532
16.4213
15.9351
15.0557
13.9102
12.9959
11.5908
10.4744
9.49472
8.42127
7.39972
6.5286
5.89484
5.42676
5.18556
4.92284
4.77036
-15.596
-15.5995
-15.6016
-15.713
-15.7258
-15.8277
-15.6364
-15.3421
-14.4607
-13.0092
-10.5298
-8.16184
-5.96307
-3.40884
-0.602386
2.2076
5.24042
8.01692
11.0313
14.0554
15.5316
16.9541
17.8175
18.1922
17.8792
17.3359
16.3636
14.9996
13.4963
12.1998
10.6711
9.16644
7.85057
6.75572
5.90323
5.18459
4.72327
4.13306
3.99267
3.84239
-15.1395
-15.4077
-15.442
-15.6809
-15.8479
-16.2087
-16.4122
-16.3912
-15.4207
-13.7497
-11.356
-9.06934
-6.61134
-3.75208
-0.600406
2.85972
6.15534
9.34677
12.3785
15.3428
16.7499
18.0005
18.8985
19.4971
19.4228
18.7746
17.483
15.8135
14.2755
12.4048
10.9139
9.48739
7.96514
6.58987
5.43335
4.52638
3.88854
3.50109
3.06215
2.94966
-17.2631
-16.9737
-16.9286
-17.0327
-17.2063
-17.5068
-17.8878
-17.9024
-16.9777
-15.3127
-12.8048
-10.5294
-7.3916
-4.00995
-0.249893
3.51366
7.33434
10.8703
13.9229
16.8002
18.0896
19.194
19.9154
20.2957
20.2017
19.3159
17.8132
16.0076
13.9797
11.7994
10.183
9.11841
7.51238
5.9831
4.70558
3.77735
3.0488
2.70865
2.34948
2.19049
-17.4183
-17.4352
-17.5294
-17.6982
-18.0481
-18.4466
-18.8132
-18.829
-18.0165
-16.5423
-13.8853
-11.4315
-7.86493
-4.0688
-0.0887115
4.30005
8.37546
12.3971
15.6249
18.3163
19.7489
20.8898
21.478
21.4709
21.1729
20.1848
18.349
16.0784
13.6748
11.1392
8.89747
7.18942
5.81031
4.72415
3.68912
2.82433
2.09531
1.71467
1.48073
1.13628
-17.9171
-17.8775
-18.023
-18.2672
-18.6661
-19.2224
-19.4739
-19.4011
-18.6542
-17.1929
-14.9722
-12.1112
-8.34805
-4.1911
0.0621206
4.96484
9.60007
13.9009
17.3505
19.8751
21.469
22.6331
23.2169
23.1369
22.3707
21.1759
19.2477
16.777
14.0498
11.3659
8.83531
7.01752
4.79715
3.08069
2.10676
1.41504
0.821116
0.488125
0.410583
0.270335
-17.7458
-17.9148
-18.0389
-18.3429
-18.7802
-19.4085
-19.6383
-19.4404
-18.6939
-17.3018
-15.471
-12.4234
-8.5956
-4.28944
0.28439
5.4279
10.6413
15.0302
18.8699
21.6595
23.2492
24.4818
25.0002
24.8629
23.9902
22.3598
20.1373
17.5758
14.6008
11.6138
8.82072
6.60173
4.64105
2.85302
1.73363
0.789587
-0.0093441
-0.540486
-0.754384
-0.910297
-17.2432
-17.3427
-17.634
-17.9941
-18.4468
-19.0823
-19.2557
-18.9253
-18.1228
-16.8237
-15.2703
-12.4847
-8.57922
-4.24603
0.514935
6.12991
11.5499
16.3119
20.1442
23.3438
25.0693
26.4562
26.9053
26.5924
25.5867
23.8268
21.3353
18.4521
15.2891
12.1578
9.07255
6.489
4.26104
2.92786
1.71891
0.745445
-0.0986051
-0.628551
-0.928189
-0.969416
-16.3835
-16.4754
-16.7618
-17.1153
-17.5856
-18.0754
-18.1663
-17.6976
-16.8498
-15.6562
-14.1464
-12.1164
-8.043
-3.84647
0.982856
6.66243
12.4728
17.6214
21.8043
24.9472
26.9997
28.7112
29.0663
28.5797
27.2729
25.2275
22.4728
19.3323
15.9322
12.629
9.23116
6.0877
3.99851
2.83661
1.49509
0.480422
-0.416656
-0.981679
-1.45071
-1.68941
-15.1599
-15.2794
-15.4931
-15.8619
-16.2257
-16.5078
-16.4614
-15.8739
-15.0054
-13.8709
-12.3814
-10.8802
-7.15446
-2.98031
1.66897
7.11952
13.0959
18.3846
22.8253
26.3126
28.9789
31.1546
31.4952
30.5967
28.9429
26.55
23.5237
20.1867
16.6245
13.249
9.65631
6.39427
4.31467
3.53428
2.09559
1.05152
0.0740228
-0.589283
-1.16229
-1.41738
-13.4793
-13.6414
-13.5967
-14.0448
-14.2742
-14.2686
-14.0392
-13.3832
-12.4905
-11.3496
-9.90307
-8.14086
-5.7903
-1.59449
3.1142
8.42836
14.4646
19.9946
25.0224
28.9026
30.757
32.0409
32.5907
32.1021
30.3711
27.5475
24.128
20.5123
16.7413
13.2215
9.42081
6.0464
3.65206
2.71274
1.20907
0.190733
-0.773984
-1.3535
-1.95006
-2.20315
-11.5739
-11.76
-11.7583
-11.886
-11.9874
-11.7113
-11.0789
-10.2934
-9.30937
-8.10863
-6.65552
-4.71905
-2.69073
0.462707
5.93657
11.72
17.3958
22.6274
27.1886
30.4679
31.4763
32.4487
32.7559
31.9809
30.2723
27.7734
24.3978
20.8261
17.0092
13.5532
10.113
6.82898
4.59808
3.11012
1.58521
0.478749
-0.607918
-1.25551
-1.8923
-2.11941
-9.20251
-9.42064
-9.44816
-9.21852
-9.21364
-8.57912
-7.86138
-6.95565
-5.85864
-4.46003
-2.72291
-0.644932
1.87312
4.46213
8.84857
13.8939
19.0667
23.5462
27.6598
30.8474
31.2327
32.3411
32.3203
31.6721
29.7358
26.9456
23.8108
20.4049
16.5904
13.1924
9.93524
7.32594
4.87821
3.17266
1.60469
0.56161
-0.478712
-0.931467
-1.33139
-1.35133
-6.86817
-7.09179
-7.08634
-6.69401
-6.3509
-5.44064
-4.45944
-3.31946
-2.07328
-0.54116
1.31314
3.59427
6.2676
8.57256
11.7526
15.7621
19.7833
23.9063
27.771
30.8316
30.8868
31.9153
31.6927
30.9238
29.419
26.4853
23.1516
19.9085
16.2351
12.746
9.48092
7.61061
5.23653
3.4017
1.61554
0.630095
-0.389726
-0.652765
-0.940701
-0.85806
-4.63251
-4.63448
-4.45227
-4.00381
-3.29133
-2.14405
-0.832813
0.463328
1.92128
3.57173
5.46917
7.79441
10.1148
12.3596
14.3211
17.5501
21.3746
24.9283
28.0954
30.5927
30.935
31.5612
31.1279
30.2869
28.5639
26.0251
22.3049
19.3259
15.152
11.857
9.14236
7.57475
5.49408
3.07874
1.39044
0.485464
-0.465466
-0.460189
-0.656691
-0.320979
-2.54785
-2.35088
-2.05606
-1.4645
-0.585452
0.902709
2.55529
3.99407
5.60773
7.50085
9.35058
11.0379
12.9714
15.205
17.097
19.356
22.4877
25.7513
28.6343
30.4757
30.8328
31.3726
30.5913
29.6586
27.685
25.1747
21.5721
18.9359
13.9753
11.0043
8.5839
7.3756
4.84194
3.38076
1.18468
0.213616
-0.698799
-0.42944
-0.540748
0.0994632
-0.407594
0.0114291
0.508422
1.16706
2.21272
3.86882
5.76628
7.33403
9.0621
10.5236
11.9669
13.6716
15.6894
17.8533
20.08
22.0339
24.643
26.9971
28.9118
30.71
30.6256
31.1425
29.9666
28.7061
26.7926
24.3061
20.9672
18.5923
13.2395
10.2251
7.95343
7.05958
4.31301
3.09334
1.11775
0.266293
-1.01611
-0.365312
-0.475329
0.655571
1.42355
1.94482
2.61514
3.43457
4.70113
6.26933
8.39908
9.95023
11.2247
12.6778
14.3394
16.2667
18.2602
20.333
22.456
24.4502
26.5583
28.4873
29.919
31.3049
29.8309
30.571
29.1746
27.8301
25.988
23.6233
20.2421
18.0961
12.7192
9.52914
6.84798
6.05177
4.05889
2.54135
1.16838
-0.18376
-1.24937
-0.661401
-0.574143
1.15619
3.51032
3.9898
4.60841
5.66163
6.84747
8.60535
10.6067
11.7751
13.2811
15.0701
16.8802
18.8251
20.7908
22.713
24.6396
26.4521
28.1675
29.7676
30.8323
31.7148
29.0031
30.4366
28.6419
27.1608
25.151
23.1648
19.4633
17.5741
12.059
8.92012
6.42645
4.87796
3.46572
2.57801
0.537642
0.456062
-1.57686
-0.351019
-0.728874
2.19731
5.38795
5.4508
6.2681
7.05494
8.42561
9.91557
12.1281
13.3391
15.1158
16.9886
18.845
20.7485
22.5997
24.4872
26.3297
28.0761
29.4169
30.7388
31.4234
31.8554
28.9218
29.1944
28.2859
26.5565
24.3725
22.1873
19.0999
17.1724
11.4294
8.34771
5.78476
4.19562
2.55615
1.80158
0.470239
-0.0882626
-1.19479
-0.740243
-0.567904
3.52387
6.86904
7.62455
7.83973
8.99387
10.0161
11.5141
13.074
15.0389
16.8457
18.6949
20.438
22.279
24.0155
25.7525
27.3357
28.8828
30.1426
31.1891
31.7084
31.8036
28.9698
28.5837
27.5396
25.6631
24.0005
21.8637
19.0999
16.7173
10.9123
7.64212
4.91628
3.68575
1.91498
1.5674
-0.0245284
0.346126
-0.867223
1.44348
0.342829
8.00983
7.93149
8.03596
8.75825
9.40872
10.7456
12.1389
14.0956
15.7416
17.7229
19.7876
21.6029
23.4019
25.0419
26.6289
28.0308
29.4142
30.5442
31.4948
31.9366
31.6633
29.0176
27.955
26.8729
25.3187
23.7167
21.8531
19.2009
16.5713
10.567
7.04807
4.21355
3.29533
1.64288
1.21345
-0.387007
0.226046
-1.2142
1.94555
3.22429
13.0481
5.98566
9.09547
9.38557
10.4167
11.4182
12.915
14.7027
16.6129
18.3766
20.296
22.1405
23.9756
25.6019
27.1177
28.3921
29.6601
30.7607
31.5853
31.995
31.5971
29.2654
27.8932
26.7412
25.3557
23.7593
22.0142
19.2119
16.0618
10.2569
6.59232
3.80256
2.98097
1.57736
1.38083
-0.0665376
1.04822
0.596454
6.03408
10.9667
26.0519
-0.0641332
-0.0510559
-0.00689963
0.141164
0.378825
0.658163
0.968613
1.28616
1.62068
2.04975
2.42203
3.0795
3.69659
4.30631
4.9324
5.50901
6.15215
6.69877
7.17266
7.80652
8.18248
8.23223
8.63021
8.81576
9.20653
9.40954
9.68823
9.82322
9.99783
10.0448
10.1385
10.1043
10.0286
9.98796
9.84692
9.80733
9.69449
9.67185
9.62578
9.61713
-0.333049
-0.31518
-0.210986
-0.0387638
0.24717
0.529613
0.844814
1.17861
1.46111
1.95763
2.41141
3.04416
3.69176
4.28013
4.94044
5.53019
6.20317
6.77893
7.39196
7.84487
8.19922
8.23658
8.63514
8.82839
9.20022
9.39326
9.65662
9.78772
9.94487
10.0132
10.0501
10.1231
10.0517
10.0555
9.87539
9.81784
9.72481
9.67104
9.61856
9.60612
-0.729723
-0.684087
-0.542248
-0.254874
-0.00177347
0.276371
0.643153
0.840033
1.22438
1.80141
2.29146
2.90133
3.52859
4.16885
4.84396
5.44912
6.15499
6.72408
7.34785
7.73102
8.02723
7.95148
8.30367
8.44861
8.81529
8.99132
9.24291
9.38693
9.56133
9.67485
9.79176
9.88352
9.85268
9.92449
9.79234
9.7929
9.66881
9.60774
9.56019
9.52538
-1.19722
-1.17673
-0.892792
-0.643738
-0.405052
-0.130008
0.173243
0.536161
0.978813
1.48294
2.02619
2.64571
3.31337
3.93797
4.63329
5.2798
5.99592
6.56822
7.20119
7.56041
7.8085
7.66638
7.9861
8.14019
8.4926
8.68618
8.95578
9.13617
9.36866
9.5244
9.66728
9.77437
9.81538
9.85858
9.7649
9.67247
9.68467
9.54261
9.48652
9.45276
-1.76611
-1.59475
-1.40306
-1.18578
-0.860788
-0.703251
-0.309213
0.0388696
0.526088
1.04441
1.59651
2.16192
2.81201
3.51729
4.26362
4.95218
5.69672
6.29839
6.95159
7.37667
7.6568
7.47391
7.83061
7.95972
8.32026
8.52848
8.80013
8.98126
9.22837
9.42429
9.59873
9.72155
9.72466
9.78997
9.67223
9.60543
9.52805
9.44124
9.38584
9.34351
-2.49961
-2.35953
-2.1365
-1.89308
-1.55861
-1.35464
-0.941698
-0.569144
-0.0901167
0.367862
0.8944
1.52655
2.27083
3.03679
3.83859
4.59945
5.41838
6.08222
6.8223
7.32581
7.59728
7.45949
7.79678
7.96136
8.31195
8.5349
8.80746
9.02407
9.27128
9.42038
9.60751
9.73953
9.81187
9.82933
9.62038
9.55144
9.46057
9.35293
9.28456
9.24681
-3.29402
-3.22055
-3.04467
-2.82277
-2.40774
-2.25157
-1.82385
-1.64615
-1.1928
-0.63152
0.0580948
0.803404
1.62895
2.46271
3.37611
4.25484
5.11342
5.86574
6.60836
7.19505
7.65737
7.5488
7.94448
8.12664
8.45079
8.64647
8.86654
9.04844
9.25702
9.40596
9.58535
9.7132
9.78119
9.84953
9.68762
9.50113
9.41528
9.27374
9.20186
9.13968
-4.08175
-4.03108
-3.92717
-3.79842
-3.51385
-3.3828
-3.10327
-2.74698
-2.14999
-1.51878
-0.765311
0.0735429
0.95454
1.89582
2.87122
3.81115
4.7788
5.636
6.49683
7.14863
7.85151
7.75424
8.15837
8.36181
8.6448
8.81581
9.01616
9.17665
9.32872
9.4639
9.55706
9.68612
9.72735
9.81186
9.67638
9.42276
9.31862
9.16455
9.07121
9.01433
-4.91432
-4.88089
-4.79421
-4.71819
-4.45596
-4.3846
-4.09631
-3.70515
-3.12132
-2.41734
-1.62087
-0.719282
0.244966
1.27005
2.3326
3.37242
4.42257
5.39526
6.38227
7.15364
8.01949
8.13382
8.43438
8.68249
8.89162
9.02656
9.18935
9.32858
9.4144
9.48219
9.50281
9.48615
9.56181
9.6004
9.72121
9.3471
9.2376
9.05436
8.92383
8.85635
-5.8191
-5.7976
-5.71785
-5.66906
-5.44737
-5.46289
-5.07851
-4.62568
-4.05332
-3.36456
-2.48825
-1.50869
-0.458223
0.661935
1.84024
3.00054
4.16152
5.25838
6.32272
7.21388
8.18445
8.5762
8.75735
9.05997
9.19367
9.31453
9.4425
9.4999
9.58056
9.42141
9.46696
9.51476
9.50578
9.56889
9.46737
9.37486
9.05939
8.89377
8.75072
8.66511
-6.81735
-6.76008
-6.74349
-6.65777
-6.47127
-6.46328
-6.10183
-5.81047
-5.04599
-4.24811
-3.38741
-2.32151
-1.14442
0.103334
1.40116
2.7217
4.01335
5.24738
6.41037
7.41366
8.46453
9.01139
9.16173
9.50285
9.56055
9.73044
9.75637
9.84392
9.50832
9.5427
9.48005
9.23697
9.26198
9.19495
9.31902
9.14077
8.92611
8.67295
8.48698
8.38644
-7.8196
-7.77856
-7.75514
-7.68757
-7.70636
-7.52762
-7.18626
-6.70996
-6.1933
-5.40517
-4.27452
-3.11712
-1.83207
-0.419057
1.03374
2.51023
3.96413
5.35241
6.64032
7.76595
8.88596
9.47106
9.6588
9.99324
10.0804
10.1692
10.1642
9.78406
9.80613
9.52029
9.3652
9.48625
9.35526
9.33544
9.15505
8.94688
8.69261
8.43284
8.23609
8.11609
-8.90336
-8.86233
-8.85664
-8.91347
-8.84491
-8.62387
-8.32396
-7.83223
-7.16102
-6.41031
-5.4186
-3.97127
-2.48002
-0.914832
0.703881
2.35509
3.97284
5.53096
6.9719
8.25674
9.42757
9.93935
10.2411
10.5668
10.6594
10.8002
10.4306
10.4427
9.9981
9.99849
9.86627
9.52984
9.28431
9.05219
8.99004
8.75115
8.33795
8.14637
7.8314
7.67725
-10.0162
-9.97953
-10.0338
-10.1131
-10.0319
-9.77985
-9.37733
-8.8716
-8.35485
-7.44109
-6.49584
-4.90693
-3.15618
-1.4258
0.37934
2.2068
4.00515
5.76724
7.39998
8.85976
10.0321
10.4486
10.8802
11.2837
11.4382
11.2452
11.0158
10.7465
10.7598
10.4553
9.95487
9.58148
9.21118
8.86229
8.55878
8.3631
8.04471
7.65804
7.55637
7.31804
-11.1818
-11.1886
-11.2533
-11.3388
-11.2605
-11.064
-10.5644
-10.0286
-9.23395
-8.57911
-7.42729
-5.904
-3.79952
-1.87949
0.110658
2.11983
4.12463
6.10096
7.93147
9.54318
10.7726
11.4808
11.859
12.2169
12.1174
12.1356
12.1223
11.8305
11.361
10.7501
10.1942
9.59913
9.06433
8.60233
8.17959
7.85281
7.56298
7.16848
6.84037
6.70351
-12.3056
-12.3182
-12.381
-12.455
-12.4087
-12.2717
-11.9008
-11.3566
-10.5044
-9.47764
-8.20736
-6.73623
-4.47099
-2.3298
-0.172579
1.98861
4.16935
6.38228
8.41398
10.2653
11.727
12.8506
13.3735
13.6209
13.7279
13.5861
13.1555
12.6009
11.8811
11.1487
10.3447
9.57606
8.86791
8.24829
7.74083
7.30925
7.07345
6.6921
6.48684
6.29638
-13.5527
-13.5559
-13.6253
-13.7248
-13.6849
-13.635
-13.3053
-12.7906
-11.92
-10.6625
-9.06799
-7.15315
-4.99579
-2.76908
-0.34647
2.08191
4.40944
6.70573
8.94571
11.2255
13.3452
14.2076
14.7712
15.1164
15.0904
14.7741
14.19
13.3732
12.4881
11.5131
10.4976
9.51786
8.59936
7.80398
7.14168
6.64372
6.23894
6.00758
5.53432
5.4713
-14.3285
-14.431
-14.5456
-14.6978
-14.6668
-14.7615
-14.4765
-14.04
-13.1725
-11.8559
-10.1232
-7.89703
-5.29844
-3.22171
-0.629449
2.10013
4.68855
7.08783
9.63813
13.0191
14.5867
15.6732
16.4033
16.7328
16.6132
16.1578
15.338
14.3
13.1563
11.9094
10.6815
9.51198
8.39244
7.3965
6.57534
5.95412
5.4924
5.18551
5.01759
4.68548
-15.7533
-15.7128
-15.806
-15.8628
-15.9768
-16.1244
-15.9382
-15.6339
-14.7769
-13.3326
-11.3556
-8.80861
-5.80243
-3.43857
-0.707798
2.25909
5.19382
7.89775
11.3937
14.4141
15.8083
17.1661
18.005
18.3582
18.1502
17.552
16.529
15.2182
13.7676
12.3035
10.7958
9.35377
8.00372
6.84392
5.8957
5.18771
4.59503
4.14713
3.93274
3.63853
-15.5975
-15.6957
-15.908
-15.9821
-16.2884
-16.6541
-16.772
-16.7665
-15.8999
-14.4001
-12.3203
-9.77576
-6.50288
-3.68698
-0.658166
2.80661
6.19902
9.29602
12.8223
15.7397
17.3066
18.4786
19.2616
19.6921
19.5396
18.7919
17.5346
16.0234
14.3114
12.529
10.8798
9.34093
7.8326
6.48819
5.357
4.49252
3.83861
3.29744
3.03379
2.77735
-17.1339
-17.0359
-17.1454
-17.1966
-17.5156
-17.9606
-18.2019
-18.2899
-17.5109
-16.0153
-13.8532
-11.2419
-7.39401
-4.03662
-0.408125
3.66147
7.60637
11.2027
14.3936
17.2965
18.7548
19.7781
20.5043
20.6989
20.474
19.3977
17.7834
16.0504
13.9575
11.9039
10.1351
8.68402
7.11169
5.63514
4.41157
3.54188
2.88057
2.34922
2.09532
1.81558
-17.6369
-17.6749
-17.8222
-18.0783
-18.358
-18.9484
-19.2393
-19.3653
-18.7423
-17.3534
-15.1888
-12.4574
-8.19564
-4.32575
-0.151362
4.57567
9.06695
12.9715
16.0481
18.874
20.3282
21.3564
21.87
21.6957
21.5203
20.6509
18.5315
15.8993
13.6788
11.2604
8.97615
7.11778
5.50823
4.24433
3.17582
2.35239
1.69014
1.17999
1.1233
1.00169
-18.2871
-18.2018
-18.3658
-18.6805
-19.0087
-19.7577
-20.0751
-20.1522
-19.6316
-18.3567
-16.2858
-13.3903
-9.33217
-4.75168
-0.187686
5.29443
10.428
14.9977
17.9695
20.4125
21.9578
23.0767
23.5476
23.231
22.5011
21.545
19.578
16.8122
13.8502
11.1832
8.75823
6.64892
4.55489
2.92184
1.79613
1.10653
0.486905
0.165617
-0.0533274
-0.0526996
-18.134
-18.1558
-18.3898
-18.7592
-19.1966
-20.0157
-20.3956
-20.394
-19.9193
-18.7549
-16.8732
-14.0286
-10.2227
-5.1951
-0.184834
5.77771
11.4431
16.2498
19.3338
22.0736
23.755
24.8895
25.2636
24.9694
24.0435
22.5245
20.4756
17.6898
14.5472
11.2797
8.64375
6.41797
4.3139
2.58174
1.33335
0.424323
-0.368856
-0.875822
-1.15134
-1.27892
-17.5686
-17.6608
-18.0053
-18.4469
-19.0114
-19.7882
-20.1792
-20.102
-19.6059
-18.5222
-16.8284
-14.2438
-10.7336
-5.51816
-0.113417
6.11274
12.149
17.2482
21.1535
23.6985
25.4466
26.8569
27.181
26.7364
25.7585
24.0329
21.5058
18.5598
15.3473
11.8876
8.44567
6.41137
4.20384
2.61671
1.31821
0.345023
-0.520327
-1.03081
-1.29079
-1.36298
-16.6474
-16.7172
-17.0687
-17.5487
-18.1319
-18.7927
-19.1918
-19.0465
-18.5116
-17.4692
-15.9544
-13.7118
-10.2708
-5.70363
0.200301
6.46603
12.7716
18.2715
22.5384
25.6787
27.3383
29.0777
29.4783
28.932
27.6496
25.6383
22.8258
19.5628
16.0345
12.5033
8.70176
6.13809
4.05975
2.51549
1.16065
0.137344
-0.746214
-1.31154
-1.76225
-1.81743
-15.4544
-15.6305
-15.771
-16.1881
-16.7122
-17.1917
-17.5345
-17.2972
-16.6877
-15.677
-14.2968
-12.3458
-9.2066
-5.04425
0.857303
6.99037
13.458
19.3676
23.59
27.1388
29.5992
31.6661
32.1717
31.2478
29.5879
27.1307
23.9904
20.5171
16.8215
13.1732
9.35776
6.38616
4.6717
3.08251
1.67228
0.653363
-0.305797
-1.0503
-1.60053
-1.65776
-13.7581
-13.9684
-13.9847
-14.3113
-14.6533
-14.8813
-15.0609
-14.6894
-13.9845
-12.9823
-11.6654
-9.85284
-7.1876
-3.26454
1.9693
8.32362
15.0751
20.8552
25.6023
29.5866
31.5569
32.5287
32.9623
32.7148
31.0638
28.1775
24.6382
20.8757
17.0117
13.2948
9.28005
6.14894
4.03519
2.30661
0.820932
-0.193266
-1.13034
-1.81797
-2.28608
-2.54936
-11.8499
-12.0396
-11.9945
-12.1285
-12.2995
-12.2563
-11.9925
-11.4303
-10.6242
-9.56717
-8.19864
-6.38678
-3.97011
-0.4249
4.75132
11.0433
17.6196
23.1348
27.7422
31.1004
32.3914
32.9178
33.0378
32.4241
31.0054
28.265
24.8187
21.1244
17.2308
13.6996
9.94906
6.65854
4.52242
2.68519
1.12222
0.0662643
-1.02715
-1.68442
-2.02634
-2.32613
-9.59579
-9.72411
-9.64762
-9.53927
-9.48734
-9.13865
-8.46701
-7.69661
-6.73924
-5.50359
-3.95865
-2.00937
0.473536
3.73596
8.31033
13.5617
19.1363
24.0564
28.1915
31.4091
32.4409
32.9348
32.947
32.0314
30.0979
27.471
24.1808
20.6471
16.8454
13.3707
9.85675
7.06657
4.67967
2.7781
1.11455
0.129899
-0.923443
-1.39112
-1.62355
-1.67733
-7.32308
-7.38659
-7.22665
-6.93665
-6.56079
-5.85208
-4.8707
-3.76849
-2.62056
-1.179
0.564967
2.69406
5.2184
8.10291
11.6667
15.7563
20.182
24.5435
28.4753
31.3762
32.0675
32.5989
32.4949
31.3698
29.4713
26.765
23.4891
20.1822
16.4296
12.8916
9.43502
7.2442
5.11646
3.13787
1.16273
0.264775
-0.830601
-1.07186
-1.26253
-1.1176
-4.87655
-4.84208
-4.56225
-4.11203
-3.44831
-2.30388
-1.04488
0.311631
1.66568
3.23835
5.08782
7.24328
9.62622
12.0999
14.7926
18.0551
21.91
25.6854
29.017
31.2887
31.9021
32.3417
32.1007
30.7898
28.8229
26.084
22.7593
19.6097
15.3149
11.9708
9.06714
6.9579
5.09285
3.31837
1.11443
0.151688
-0.940366
-0.916004
-1.16892
-0.768546
-2.60764
-2.44427
-2.08133
-1.52125
-0.591849
0.843082
2.48027
4.02334
5.6031
7.18841
8.93856
10.8885
13.0479
15.3723
17.6729
20.4178
23.7075
26.858
29.4556
31.4012
31.8198
32.092
31.3688
30.081
28.0516
25.3115
21.9984
19.1286
14.1774
11.0079
8.49479
6.63028
4.44059
3.36353
1.41367
-0.301568
-1.2131
-0.956545
-1.34131
-0.614952
-0.226011
0.0691976
0.44472
1.20566
2.21005
3.82798
5.80001
7.44583
8.94845
10.524
12.0305
13.8349
15.948
18.2199
20.5514
23.0025
25.6946
28.0756
30.0114
31.53
31.2626
31.3807
30.5765
29.2537
27.2317
24.5762
21.2841
18.6651
13.3646
10.1926
7.69655
6.22642
3.9286
2.75948
1.13127
0.269533
-1.77609
-0.97806
-1.77173
-0.458484
1.76807
2.0497
2.7108
3.33698
4.59591
6.12498
8.38214
9.97983
11.4928
13.0129
14.6674
16.5239
18.6774
20.9044
23.2291
25.3715
27.2831
29.0579
30.8682
31.9907
30.6925
30.6856
29.7003
28.2804
26.2813
23.8072
20.5094
18.0678
12.6335
9.41507
6.6703
5.51602
3.41696
2.21416
0.369941
-0.19921
-1.64179
-1.55028
-2.28311
-0.405552
3.64939
4.18676
4.77053
5.8103
6.85485
8.34074
10.5397
12.1165
13.6403
15.4204
17.4402
19.6876
21.585
23.6637
25.5239
27.1285
28.7945
30.5154
31.7824
32.2964
30.1237
30.0663
28.9489
27.3751
25.1315
23.0716
19.8401
17.4577
11.9379
8.69424
5.96332
4.60758
2.85802
1.96639
0.0200531
-0.20262
-2.04223
-1.12711
-2.74265
0.410176
5.51066
5.61372
6.36276
7.23073
8.57718
9.91687
12.1138
13.7562
15.5253
17.467
19.422
21.2653
23.0344
24.8829
26.7516
28.3861
29.8217
31.2076
31.9525
32.1123
29.6117
29.2766
28.2017
26.5372
24.3292
22.318
19.4426
16.9425
11.4317
8.03185
5.39615
3.83002
2.01933
1.46095
-0.401491
-0.487205
-2.22904
-1.24623
-2.56605
2.2158
7.09805
7.75316
8.01648
9.11326
10.2128
11.6619
13.5176
15.4725
17.2853
19.1958
20.8399
22.6627
24.3906
26.1171
27.6632
29.1832
30.4724
31.7124
32.2269
32.1092
29.501
28.6689
27.4826
25.7514
24.0899
22.03
19.2837
16.5328
10.9104
7.38187
4.52046
3.16703
1.31165
1.03628
-0.613748
-0.129102
-1.5491
0.430134
0.0116034
7.73426
8.29011
8.21437
8.87373
9.5826
11.0216
12.1028
14.3553
16.3751
18.3061
20.3071
22.0485
23.7403
25.3145
26.9124
28.3446
29.7778
30.8352
31.9089
32.2986
31.9039
29.4135
28.1135
26.8927
25.3431
23.7919
21.9947
19.2777
16.2702
10.4818
6.88769
3.9585
3.0302
1.21086
0.814429
-0.791278
-0.274198
-1.35799
1.84006
3.99784
15.2601
6.244
9.3464
9.65667
10.6668
11.6554
13.0874
15.0073
17.0902
18.9731
20.946
22.7271
24.4842
26.0565
27.5314
28.8308
30.0832
31.0301
31.9661
32.2949
31.8155
29.6059
28.1207
26.8856
25.4186
23.815
22.1573
19.2955
15.9234
10.1512
6.3714
3.48746
2.63314
1.09931
0.937788
-0.383453
0.644817
0.66423
6.40933
13.8363
31.7242
-0.105036
-0.0554763
0.033907
0.196942
0.425288
0.720691
1.01931
1.31232
1.64656
2.11423
2.6436
3.19536
3.79049
4.34406
4.95895
5.5384
6.1995
6.75599
7.37098
7.85826
8.25504
8.15782
8.6294
8.79433
9.18193
9.40177
9.71206
9.88902
10.0649
10.1162
10.1813
10.2002
10.0439
9.98604
9.85685
9.80065
9.68199
9.6566
9.62386
9.61455
-0.271478
-0.231635
-0.126883
0.0433662
0.323454
0.58558
0.925086
1.15362
1.49831
2.09795
2.58324
3.15723
3.76505
4.35409
5.00863
5.62517
6.31137
6.86914
7.5079
7.89344
8.21866
8.15518
8.49893
8.68236
9.06184
9.29026
9.58823
9.74529
9.91699
9.95944
10.0333
10.0266
10.0017
10.0117
9.8539
9.81564
9.71435
9.66866
9.61478
9.58212
-0.613631
-0.554886
-0.416475
-0.179813
0.0288894
0.31219
0.615527
0.97096
1.36156
1.87823
2.41244
2.99003
3.61061
4.22339
4.88012
5.5125
6.2212
6.78341
7.4205
7.71875
7.97461
7.80523
8.10067
8.24182
8.60287
8.81447
9.1082
9.30694
9.46551
9.64488
9.72115
9.8202
9.82542
9.82914
9.76491
9.76395
9.64833
9.60656
9.55055
9.54
-1.08829
-1.0214
-0.834607
-0.562446
-0.417439
-0.0845554
0.267372
0.616766
1.06463
1.57339
2.12757
2.71655
3.35438
3.95612
4.63925
5.31012
6.01885
6.59222
7.21418
7.4879
7.67534
7.47879
7.73556
7.88898
8.25439
8.48361
8.79438
8.92319
9.21056
9.3919
9.61651
9.73041
9.76723
9.80112
9.70259
9.66984
9.57421
9.55085
9.46742
9.45084
-1.56454
-1.4719
-1.31712
-1.12037
-0.861419
-0.59383
-0.232857
0.129573
0.609839
1.12113
1.66702
2.20085
2.82067
3.49738
4.24845
4.9416
5.69428
6.28963
6.94444
7.20708
7.45238
7.23982
7.5657
7.70186
8.06998
8.30909
8.60091
8.84191
9.11388
9.34022
9.52357
9.65667
9.72474
9.76823
9.61964
9.59329
9.4927
9.42551
9.37186
9.34085
-2.28493
-2.14769
-2.03159
-1.78997
-1.52472
-1.24348
-0.863678
-0.493932
-0.0445867
0.386205
0.894183
1.522
2.261
3.01058
3.82377
4.59195
5.35595
6.05859
6.77152
7.16276
7.43314
7.26177
7.56847
7.73894
8.09913
8.33338
8.61801
8.83941
9.01924
9.28072
9.44085
9.66161
9.762
9.7894
9.56238
9.52845
9.43048
9.34597
9.27479
9.23754
-3.04515
-3.01046
-2.86331
-2.65204
-2.36812
-2.10746
-1.75579
-1.5916
-1.18609
-0.624098
0.0592462
0.80115
1.62773
2.4571
3.34379
4.16639
5.10694
5.8619
6.61566
7.14469
7.5306
7.40606
7.74342
7.92514
8.23758
8.44383
8.53403
8.84913
9.07847
9.241
9.45276
9.61955
9.67694
9.78446
9.62899
9.49276
9.40402
9.26388
9.18554
9.12522
-3.87278
-3.84607
-3.77994
-3.66295
-3.45795
-3.26751
-3.07981
-2.72725
-2.15308
-1.51826
-0.773417
0.0598421
0.975485
1.95328
2.90748
3.83891
4.79291
5.66988
6.53632
7.17088
7.76216
7.64831
7.99858
8.20726
8.48069
8.65605
8.7709
8.95879
8.988
9.38811
9.55941
9.59199
9.65206
9.71849
9.53793
9.4519
9.30631
9.17355
9.05703
8.99809
-4.73107
-4.72349
-4.68047
-4.61934
-4.4675
-4.37569