/*--------------------------------*- C++ -*----------------------------------*\
| =========                 |                                                 |
| \\      /  F ield         | OpenFOAM: The Open Source CFD Toolbox           |
|  \\    /   O peration     | Version:  v1806                                 |
|   \\  /    A nd           | Web:      www.OpenFOAM.com                      |
|    \\/     M anipulation  |                                                 |
\*---------------------------------------------------------------------------*/
FoamFile
{
    version     2.0;
    format      ascii;
    class       surfaceScalarField;
    location    "0.1305";
    object      phi;
}
// * * * * * * * * * * * * * * * * * * * * * * * * * * * * * * * * * * * * * //

dimensions      [0 3 -1 0 0 0 0];
oriented        oriented;


internalField   nonuniform List<scalar> 
187200
(
1.13523e-06
8.40979e-06
-9.56684e-06
4.82367e-05
-1.77449e-05
-2.93555e-05
6.57418e-05
-4.64177e-06
-1.28616e-05
7.94522e-05
-2.85996e-06
-1.08493e-05
8.96179e-05
-1.8156e-07
-9.98397e-06
0.000102081
-3.68045e-07
-1.20955e-05
0.000115368
1.03781e-06
-1.43245e-05
0.000132515
5.0421e-07
-1.76509e-05
0.00015025
2.19529e-06
-1.99285e-05
0.000169295
8.22437e-07
-1.98661e-05
0.000188073
2.34273e-06
-2.11204e-05
0.000201075
6.48775e-06
-1.94897e-05
0.000203366
1.00176e-05
-1.23084e-05
0.00019111
1.85541e-05
-6.29789e-06
0.000162689
2.44112e-05
4.00907e-06
0.000139066
1.41746e-05
9.44767e-06
0.000103602
1.06497e-05
2.48129e-05
6.30225e-05
2.16034e-05
1.89763e-05
-2.80202e-05
7.94987e-05
1.15444e-05
-0.000188077
0.000135436
2.46215e-05
-0.000458622
0.000215611
5.49336e-05
-0.000641134
0.00021781
-3.52998e-05
-0.000786128
0.000268443
-0.00012345
-0.000826458
0.00028606
-0.000245731
-0.000812821
0.000319341
-0.000332977
-0.000742341
0.000348501
-0.000418981
-0.00063099
0.000375936
-0.000487286
-0.000488
0.000392921
-0.00053591
-0.00031344
0.000386138
-0.000560698
-0.000141842
0.000371962
-0.000543561
-1.28189e-05
0.000340316
-0.000469339
6.9397e-05
0.000292309
-0.000374525
9.83273e-05
0.00022906
-0.000257989
8.88395e-05
0.000166163
-0.000156674
5.62397e-05
0.000115154
-8.25535e-05
3.08323e-05
7.45225e-05
-4.91139e-05
1.26767e-05
4.98719e-05
-3.17151e-05
2.20817e-06
3.62346e-05
-2.57657e-05
-3.77211e-06
2.53358e-05
-1.93551e-05
1.61972e-05
-1.99698e-05
-7.6702e-06
4.05114e-05
-2.44304e-05
3.19957e-05
-1.45157e-05
-4.28919e-05
6.81062e-05
-7.61902e-06
-3.31313e-05
9.47523e-05
-3.48827e-08
-2.94704e-05
0.000111904
1.02412e-05
-2.75743e-05
0.000124359
1.78125e-05
-3.06352e-05
0.000131794
2.90455e-05
-3.54419e-05
0.000136921
3.64172e-05
-4.10381e-05
0.000139819
4.99623e-05
-5.06622e-05
0.000123067
7.37147e-05
-5.61402e-05
8.7509e-05
0.000112676
-7.47747e-05
3.31479e-05
0.00014812
-8.7271e-05
-4.02434e-05
0.0001784
-9.49912e-05
-0.000129852
0.000214066
-0.000105905
-0.000236463
0.000263164
-0.000132143
-0.000383916
0.000329038
-0.000167411
-0.000534642
0.000404189
-0.000242814
-0.000694812
0.000481159
-0.000299386
-0.000844024
0.000591917
-0.000363206
-0.00100395
0.000704152
-0.00040879
-0.00117137
0.00082603
-0.000443001
-0.00127492
0.00091105
-0.000589698
-0.00135338
0.00101184
-0.000664933
-0.00135053
0.00104775
-0.000764539
-0.00127564
0.00109408
-0.000849633
-0.0011364
0.00111889
-0.000909638
-0.000948378
0.00112993
-0.000942018
-0.000724162
0.0011094
-0.000940698
-0.000497647
0.00105719
-0.000897569
-0.000272384
0.000975138
-0.000828439
-7.79621e-05
0.000848028
-0.000702133
8.16836e-05
0.000706185
-0.00057352
0.000157337
0.000560417
-0.00040701
0.0001818
0.000428352
-0.00028665
0.000161907
0.000314613
-0.000179564
0.000126239
0.000229005
-0.000118813
8.65755e-05
0.000170139
-8.06028e-05
5.17342e-05
0.000133446
-6.23703e-05
2.15507e-05
0.000102318
-4.67985e-05
6.6634e-05
-2.88885e-05
9.86594e-06
4.40025e-05
-1.33553e-05
4.36434e-05
-7.45645e-06
-4.0834e-05
7.89936e-05
2.14122e-06
-4.5109e-05
0.00010293
2.20499e-05
-4.60198e-05
0.000112736
5.04441e-05
-5.00085e-05
0.000114347
7.58134e-05
-5.96115e-05
0.000105069
0.000104661
-6.63368e-05
9.1314e-05
0.000136998
-8.68246e-05
5.8274e-05
0.000192722
-0.000109719
5.34221e-06
0.000252857
-0.00012621
-6.81491e-05
0.000323533
-0.000137365
-0.00016445
0.000402676
-0.000158254
-0.000308263
0.000499823
-0.000177609
-0.000467649
0.000595812
-0.000222359
-0.000642347
0.000698762
-0.000260899
-0.000800831
0.000802062
-0.000314541
-0.000934012
0.000910875
-0.000373504
-0.00104941
0.00102634
-0.000429781
-0.00116454
0.00118413
-0.000477083
-0.0013003
0.00134419
-0.000504271
-0.00143724
0.00147138
-0.000508412
-0.00150755
0.001578
-0.00059664
-0.00154441
0.00166846
-0.000619764
-0.00151794
0.00168115
-0.000659866
-0.0014305
0.00170662
-0.000699972
-0.00129392
0.00169475
-0.000712436
-0.00112228
0.00165976
-0.000701468
-0.000926019
0.00157998
-0.000666835
-0.000720037
0.00146592
-0.000614705
-0.000505999
0.00131394
-0.000552841
-0.000332251
0.00114394
-0.000469664
-0.00017567
0.000952649
-0.000403044
-5.46661e-05
0.000754825
-0.000315412
2.79382e-05
0.000591758
-0.00024601
6.07391e-05
0.000454201
-0.000172388
7.10907e-05
0.000353013
-0.00013436
6.36343e-05
0.000278997
-0.000101401
4.53759e-05
0.00023339
-8.16844e-05
2.12866e-05
0.000181668
-5.52607e-05
0.000118236
-3.03151e-05
1.25402e-05
5.10463e-05
-1.95825e-05
4.31346e-05
1.4767e-05
-5.28156e-05
7.21699e-05
3.54989e-05
-6.23913e-05
8.45884e-05
7.80229e-05
-6.83903e-05
8.46414e-05
0.000122919
-7.25268e-05
7.15185e-05
0.000176032
-8.70957e-05
4.93888e-05
0.000237985
-0.000111194
9.22841e-06
0.000314116
-0.000136958
-4.43908e-05
0.000411104
-0.000164763
-0.000125194
0.000517414
-0.000183755
-0.000242024
0.0006403
-0.000199937
-0.000374605
0.00075704
-0.000221783
-0.000514957
0.000879272
-0.000239097
-0.000649598
0.00098831
-0.000257856
-0.000777794
0.00110883
-0.00028187
-0.000891024
0.00122761
-0.00031232
-0.0009921
0.00135546
-0.00034351
-0.00107996
0.00147224
-0.000358037
-0.00117433
0.00163795
-0.000359461
-0.00128636
0.00177558
-0.000319363
-0.0014198
0.00185569
-0.000250873
-0.00147878
0.00192024
-0.000283264
-0.00151335
0.00196194
-0.000258914
-0.00148928
0.00191782
-0.000260735
-0.00141974
0.00190407
-0.00026698
-0.00131883
0.00184932
-0.000255476
-0.0011959
0.00177405
-0.000237223
-0.00105839
0.00165628
-0.000213809
-0.000909874
0.00150768
-0.00019028
-0.000750746
0.00133849
-0.000183672
-0.000573771
0.00115029
-0.000183319
-0.000404464
0.000968887
-0.000185546
-0.000256833
0.000788131
-0.000180937
-0.00013495
0.000642923
-0.000173047
-5.45749e-05
0.000528294
-0.000154468
7.00371e-07
0.00043211
-0.000134372
2.98483e-05
0.000363049
-0.000113199
3.77245e-05
0.000317981
-9.24673e-05
2.19409e-05
0.00025713
-5.96797e-05
0.000167006
-2.683e-05
1.1305e-05
7.42162e-05
-3.44736e-05
4.12192e-05
6.06035e-05
-7.57486e-05
7.23462e-05
9.90281e-05
-9.46544e-05
7.84551e-05
0.00016915
-9.72348e-05
6.36224e-05
0.000244604
-0.000106852
3.21211e-05
0.000332031
-0.000124497
-1.03891e-05
0.000436025
-0.00015553
-5.62639e-05
0.00054407
-0.000184079
-0.000108486
0.00067265
-0.000209324
-0.000175319
0.000806709
-0.000222463
-0.000257774
0.000949195
-0.00022644
-0.000355376
0.0010788
-0.000224162
-0.000465307
0.00120809
-0.000218883
-0.000582066
0.0013249
-0.000219826
-0.000691521
0.00143777
-0.000219488
-0.000786237
0.00153982
-0.000217494
-0.000863367
0.00163781
-0.000205216
-0.000919057
0.0016982
-0.000170266
-0.00099557
0.0018028
-8.83341e-05
-0.00110206
0.00187401
8.06742e-06
-0.00124879
0.00188357
0.000118849
-0.00131346
0.00186547
0.000119444
-0.00136448
0.00187177
0.000141197
-0.00136915
0.0017948
0.000127682
-0.00134503
0.00176816
0.000111788
-0.00130148
0.00170259
0.000103173
-0.00124098
0.0016257
8.78576e-05
-0.00117485
0.00151647
7.36742e-05
-0.00108392
0.00138677
2.99779e-05
-0.000966859
0.00123745
-1.60185e-05
-0.000824724
0.00107553
-6.73783e-05
-0.000658496
0.000922708
-0.000120048
-0.000487606
0.000769495
-0.000152254
-0.000326698
0.00064734
-0.000165326
-0.000191067
0.000559794
-0.000167131
-8.78484e-05
0.000482058
-0.000153164
-2.03932e-05
0.00042473
-0.000129135
1.77955e-05
0.000383667
-0.000103873
2.02791e-05
0.000316268
-6.1622e-05
0.000208244
-2.09611e-05
5.86994e-06
0.000128799
-6.04517e-05
4.31305e-05
0.000141645
-0.0001183
7.28535e-05
0.000207554
-0.000138247
7.41417e-05
0.000303787
-0.000135925
5.00385e-05
0.000405313
-0.000136606
6.79415e-06
0.000528883
-0.000153608
-2.9403e-05
0.000661794
-0.000189571
-5.56425e-05
0.000794011
-0.0002237
-9.44154e-05
0.000948795
-0.000237372
-0.000151056
0.00109161
-0.00022826
-0.000214997
0.00122366
-0.00021052
-0.000284067
0.00133594
-0.000188062
-0.000353179
0.0014397
-0.000162505
-0.000418938
0.00152512
-0.000134468
-0.00047927
0.00159904
-0.000100935
-0.000523938
0.00164761
-6.31281e-05
-0.00058032
0.00168257
1.16147e-05
-0.000657712
0.00168869
8.68971e-05
-0.000736625
0.00170649
0.000175219
-0.000844664
0.00169357
0.000288475
-0.00100017
0.00168183
0.000357249
-0.00108601
0.00159323
0.000358079
-0.00117437
0.00159286
0.000367273
-0.00122634
0.00149892
0.000347844
-0.00125419
0.00147416
0.000321852
-0.00126673
0.00141722
0.000297908
-0.00126692
0.00136312
0.000262766
-0.00125415
0.00128359
0.000220114
-0.00122191
0.00118907
0.00016546
-0.00113962
0.00108557
6.95843e-05
-0.00102734
0.000971802
-8.54552e-06
-0.000868003
0.000857577
-9.42091e-05
-0.000686294
0.000745182
-0.000157397
-0.000499777
0.000652721
-0.000191898
-0.000321487
0.000583734
-0.00020223
-0.000179844
0.000521852
-0.000181436
-7.20107e-05
0.000469519
-0.000152622
-2.84892e-06
0.000432263
-0.000117757
1.60646e-05
0.000365189
-6.7834e-05
0.000242885
-1.85793e-05
3.46352e-06
0.000219105
-9.37677e-05
4.8155e-05
0.000263711
-0.000166756
8.56083e-05
0.000354515
-0.000184414
8.96546e-05
0.000476907
-0.000177166
6.15973e-05
0.000606202
-0.000172831
1.73273e-05
0.000762119
-0.000188965
2.19108e-06
0.000903288
-0.000226356
-1.53398e-05
0.00104663
-0.000235086
-3.83532e-05
0.00119549
-0.000223678
-7.07645e-05
0.00131565
-0.000191627
-0.000110643
0.00142024
-0.000156705
-0.000161623
0.00150432
-0.000117404
-0.000215634
0.00156922
-7.55066e-05
-0.000265449
0.00160475
-2.9809e-05
-0.000311573
0.00161903
2.61269e-05
-0.000349748
0.0015981
8.76899e-05
-0.000391893
0.00157502
0.000149699
-0.000431949
0.00150759
0.000221157
-0.000513042
0.00147108
0.000316504
-0.000598966
0.00137929
0.000400206
-0.000763998
0.00137117
0.000475696
-0.000870689
0.00122302
0.000476899
-0.000984879
0.00124107
0.000465976
-0.00108516
0.00116495
0.000434243
-0.00116481
0.0011611
0.000392719
-0.001232
0.0011301
0.00035431
-0.00128852
0.0011111
0.000308539
-0.00132428
0.00107063
0.000248709
-0.00133706
0.00102368
0.000178175
-0.0012882
0.000964732
7.19734e-05
-0.00120635
0.000886094
3.85411e-06
-0.00106895
0.000802105
-8.193e-05
-0.000881033
0.000715938
-0.000158674
-0.000665565
0.000639239
-0.000201985
-0.000435614
0.00058438
-0.000230597
-0.000258961
0.000555113
-0.000209913
-0.000115493
0.000508881
-0.000182827
-2.25505e-05
0.000476371
-0.000137049
1.41566e-05
0.000407419
-7.8935e-05
0.000276775
-1.97333e-05
6.04944e-06
0.000339427
-0.000126371
6.22767e-05
0.000420518
-0.000213033
0.000103497
0.000537044
-0.000223749
0.000110968
0.000668087
-0.000198651
8.97979e-05
0.000809127
-0.000181754
7.63472e-05
0.00097352
-0.000197948
8.44719e-05
0.00111674
-0.000221575
7.95948e-05
0.00125686
-0.000205351
7.10898e-05
0.00137703
-0.000173034
3.86638e-05
0.00147942
-0.000131347
-2.07631e-06
0.00155202
-9.10393e-05
-4.55296e-05
0.00159451
-4.67381e-05
-9.18144e-05
0.00160753
7.97476e-06
-0.000133638
0.00158226
6.43099e-05
-0.000171353
0.0015348
0.000121951
-0.000210051
0.00145303
0.00018377
-0.000248593
0.00137196
0.000241596
-0.000285393
0.00125285
0.000291539
-0.000345956
0.00118182
0.000349828
-0.000422252
0.00104606
0.000409524
-0.000562251
0.00104943
0.000461733
-0.000705354
0.000901606
0.000464517
-0.0008391
0.000933397
0.00044142
-0.000981626
0.000890918
0.00041656
-0.00110034
0.000905889
0.000373923
-0.00120584
0.000901195
0.000334408
-0.00129981
0.000909365
0.000295708
-0.00137283
0.000899567
0.000244083
-0.00141539
0.000885523
0.000180717
-0.00140573
0.000847857
0.000107207
-0.00134327
0.000794219
2.94183e-05
-0.0012242
0.000727085
-4.40444e-05
-0.0010378
0.000662388
-0.000132854
-0.000816351
0.000612495
-0.000194708
-0.00057187
0.000566576
-0.000226678
-0.000346821
0.000568494
-0.000238428
-0.000169297
0.000535111
-0.000203753
-4.93323e-05
0.000512624
-0.00015622
8.0411e-06
0.000441465
-9.1417e-05
0.000306576
-2.17588e-05
1.977e-05
0.000473897
-0.00015424
0.000104568
0.000591528
-0.000255807
0.000174527
0.000729369
-0.000262284
0.000199148
0.000864027
-0.000220561
0.000176381
0.0010206
-0.000188706
0.000175145
0.00116757
-0.000192817
0.000184007
0.00130077
-0.000192888
0.000178404
0.00142427
-0.000161804
0.000162453
0.00151566
-0.000122686
0.000133992
0.00158151
-7.36261e-05
9.67193e-05
0.00161288
-2.35864e-05
5.33847e-05
0.00160952
2.83251e-05
4.00019e-06
0.00157031
8.6606e-05
-3.97857e-05
0.0014934
0.000132647
-7.9778e-05
0.00139349
0.000181301
-0.000118694
0.00126624
0.000225705
-0.000155653
0.00114741
0.000261511
-0.000199516
0.00100897
0.000287749
-0.000248835
0.000919215
0.000311923
-0.000339184
0.000790223
0.000346187
-0.000447045
0.000783338
0.000373955
-0.000613222
0.00067628
0.000391502
-0.000752198
0.000700286
0.000372087
-0.000914765
0.000692308
0.000361178
-0.00105329
0.000715708
0.00032871
-0.00118062
0.00073201
0.000296509
-0.00130131
0.000752786
0.000277274
-0.00140115
0.000763633
0.000235768
-0.00147322
0.000756881
0.000200714
-0.0014965
0.000726956
0.000144181
-0.00145788
0.00068542
7.01762e-05
-0.00135229
0.000640259
-1.87628e-05
-0.00117463
0.00058671
-0.000101976
-0.000937786
0.000546821
-0.000171173
-0.000674694
0.000514498
-0.000211014
-0.000423394
0.000542357
-0.000225162
-0.000216215
0.000550058
-0.000222127
-6.75308e-05
0.000535439
-0.000171501
2.46554e-06
0.000474413
-0.000102946
0.000334871
-2.58271e-05
3.92887e-05
0.000607775
-0.000173166
0.000147295
0.000769537
-0.000286016
0.000244252
0.000920314
-0.000287902
0.000280043
0.00105549
-0.000227249
0.000273862
0.00120382
-0.000177034
0.000270413
0.00133051
-0.000159483
0.000265456
0.00144956
-0.000143836
0.000266506
0.0015372
-0.000113986
0.000247429
0.00160259
-6.78491e-05
0.000213957
0.00162765
-1.26724e-05
0.000171982
0.00161888
3.5971e-05
0.000117723
0.00157079
9.29843e-05
6.32338e-05
0.0014884
0.000136402
1.19777e-05
0.00136721
0.000177445
-3.29277e-05
0.00122874
0.000209652
-7.65898e-05
0.00107506
0.000234842
-0.000114936
0.00093755
0.000248211
-0.000161063
0.000800532
0.000254565
-0.000203147
0.000705658
0.000255642
-0.000296754
0.000609124
0.000274707
-0.000382162
0.000581125
0.00028762
-0.000549929
0.000527029
0.000317018
-0.000692481
0.000531211
0.000311626
-0.000852575
0.000538144
0.000314258
-0.000994853
0.000561479
0.000296508
-0.00113368
0.000583798
0.000287037
-0.00126796
0.000613042
0.000274023
-0.00139398
0.000622355
0.000267301
-0.0014868
0.000617041
0.000232659
-0.00153409
0.000597326
0.000176916
-0.00152013
0.000570628
0.000100836
-0.00143748
0.000537566
2.00491e-05
-0.00127845
0.000504792
-7.71138e-05
-0.00104594
0.000477618
-0.000163309
-0.000779654
0.000451131
-0.000202919
-0.00049687
0.000473064
-0.00021349
-0.000268306
0.000524624
-0.00020313
-9.56852e-05
0.0005403
-0.000177481
-6.83451e-06
0.000492676
-0.000107115
0.000357287
-2.92512e-05
5.69978e-05
0.00072654
-0.000175763
0.000190963
0.000936858
-0.000301287
0.00031349
0.00109758
-0.000299797
0.000364696
0.00122959
-0.000225305
0.000375177
0.00135431
-0.000160977
0.000359766
0.00146122
-0.000115301
0.000346325
0.00155596
-9.29523e-05
0.000329691
0.0016178
-6.39613e-05
0.000310729
0.00164574
-2.41883e-05
0.000271728
0.00163861
2.80445e-05
0.00021755
0.00158556
8.74978e-05
0.000154786
0.00149801
0.000135547
9.23758e-05
0.00137891
0.000171897
3.28085e-05
0.00122613
0.000200654
-2.00058e-05
0.00106385
0.000217709
-6.64911e-05
0.000898281
0.000223266
-0.000106079
0.00075715
0.00021999
-0.000151957
0.000631907
0.000214504
-0.00019486
0.000541034
0.000207528
-0.000278036
0.000472401
0.000219899
-0.00035694
0.000429452
0.000230577
-0.000501193
0.000407025
0.000264256
-0.000635297
0.000393284
0.000272032
-0.000780738
0.000398972
0.000284614
-0.000915687
0.000417639
0.000278789
-0.00105799
0.000439698
0.000286406
-0.0012087
0.000462525
0.000301223
-0.00134712
0.000471463
0.000289305
-0.00146249
0.000476415
0.000255997
-0.00153976
0.00047014
0.000204463
-0.00156298
0.000447257
0.000146594
-0.00150632
0.000430287
5.06116e-05
-0.00136811
0.000405344
-3.87634e-05
-0.00113421
0.000389689
-0.000145972
-0.000847303
0.000376696
-0.000212467
-0.000550108
0.000397287
-0.000221417
-0.000299326
0.000467663
-0.000193822
-0.000107914
0.000528494
-0.000179606
-1.14012e-05
0.000504063
-0.000107902
0.000378775
-3.28907e-05
6.91299e-05
0.000826141
-0.00016873
0.000228307
0.00108315
-0.000305466
0.00037295
0.00125562
-0.00030268
0.00044225
0.00137729
-0.000217005
0.00046259
0.00147517
-0.000141191
0.000442532
0.00155877
-7.74956e-05
0.000416806
0.0016254
-4.37218e-05
0.000381102
0.00165908
-5.58137e-06
0.00033777
0.00166024
2.88342e-05
0.000295089
0.0016175
6.37887e-05
0.000232405
0.00153702
0.000111222
0.000160085
0.00141005
0.000160278
8.76742e-05
0.00125978
0.000191539
2.13127e-05
0.00108451
0.000207979
-3.43656e-05
0.000910231
0.0002093
-8.0193e-05
0.000742529
0.00020158
-0.000115127
0.000604033
0.000188051
-0.000153938
0.000490715
0.000180003
-0.000194837
0.000406092
0.000175841
-0.000263977
0.000350872
0.000190669
-0.000335153
0.000297426
0.000203202
-0.00045154
0.000287581
0.000235832
-0.000561131
0.000252784
0.000250094
-0.000683647
0.00025325
0.000268238
-0.000807881
0.000261842
0.000280031
-0.000950703
0.000280627
0.000301892
-0.00110288
0.000304112
0.000310587
-0.00125326
0.000323965
0.000297883
-0.00138433
0.000337043
0.000270439
-0.00148571
0.000345709
0.000225809
-0.0015238
0.000343787
0.000141557
-0.00150999
0.000329208
8.72682e-05
-0.001418
0.000304418
8.9447e-06
-0.00123334
0.000286837
-8.18098e-05
-0.000952897
0.000284345
-0.000188094
-0.000627556
0.000310019
-0.000238071
-0.000339058
0.000384806
-0.000205643
-0.000135275
0.000480743
-0.00015603
-1.90501e-05
0.000501387
-0.000113548
0.000396077
-3.63517e-05
7.90082e-05
0.000895588
-0.000148454
0.000261478
0.00119765
-0.000296965
0.000430014
0.00138264
-0.000295551
0.00051554
0.0014917
-0.000199932
0.00053761
0.00156763
-0.00011453
0.000520036
0.00162416
-4.78167e-05
0.000478084
0.00166095
6.40742e-06
0.000424009
0.00167095
4.22101e-05
0.000355148
0.00164257
8.65275e-05
0.000285779
0.00157298
0.000113892
0.00022073
0.00146484
0.000137234
0.000139688
0.00131501
0.000176087
5.94428e-05
0.00114149
0.000198538
-1.25861e-05
0.000952144
0.000204396
-6.81683e-05
0.000771234
0.000194579
-0.000108277
0.000607221
0.000175416
-0.000134891
0.000472519
0.000158128
-0.000160426
0.000365009
0.00015124
-0.000191351
0.000281689
0.000155328
-0.000243537
0.000229174
0.000173885
-0.000302219
0.000164617
0.000191494
-0.000386549
0.000151097
0.000220816
-0.000469271
0.000101245
0.000234263
-0.000568075
9.90237e-05
0.000253032
-0.000683376
9.97062e-05
0.000277436
-0.0008186
0.000119505
0.000296346
-0.000965026
0.000146471
0.000304068
-0.00111378
0.000172176
0.000300549
-0.00125947
0.000198039
0.000284691
-0.00138709
0.000216986
0.000256346
-0.00148385
0.00021929
0.000221253
-0.00152022
0.000198398
0.00016718
-0.00146537
0.000167816
8.17533e-05
-0.00130531
0.000139744
-1.29677e-05
-0.00104233
0.000141749
-0.000120382
-0.000701463
0.000182262
-0.000213112
-0.000369444
0.000287538
-0.000234752
-0.00014211
0.000417728
-0.00016432
-2.4792e-05
0.000481824
-9.77545e-05
0.000411771
-4.04839e-05
8.29278e-05
0.00093944
-0.000126779
0.000282439
0.00128047
-0.000282334
0.000472654
0.00147607
-0.000283648
0.000572654
0.00157455
-0.000182851
0.000596996
0.00163074
-8.74541e-05
0.000578377
0.0016629
-2.01194e-05
0.000522844
0.00166981
4.66671e-05
0.000446525
0.00164835
9.89223e-05
0.000358952
0.00159724
0.000132913
0.000266846
0.00150699
0.000158096
0.000181062
0.00137948
0.000171138
9.09949e-05
0.00121273
0.000192351
5.24618e-06
0.00102579
0.000201447
-6.80172e-05
0.000828282
0.000197126
-0.000118225
0.000643089
0.000178354
-0.000146055
0.000483381
0.000151669
-0.000157254
0.000351124
0.000132593
-0.000165369
0.000244667
0.000128457
-0.000184272
0.000161172
0.000139422
-0.000209332
9.39395e-05
0.000160298
-0.000252595
2.59186e-05
0.000181963
-0.000303676
-4.01926e-06
0.000206199
-0.000368332
-5.33363e-05
0.000219239
-0.000446332
-6.35334e-05
0.000240558
-0.000538284
-6.873e-05
0.000260388
-0.000651782
-4.2443e-05
0.000275446
-0.000784721
-4.83068e-06
0.000284241
-0.000935656
3.16597e-05
0.000291452
-0.001097
6.32792e-05
0.000296108
-0.00125307
8.02524e-05
0.000292801
-0.001385
8.14507e-05
0.000269769
-0.00146707
6.00277e-05
0.000220438
-0.00146818
2.32019e-05
0.000145723
-0.00136117
-1.55085e-05
4.82403e-05
-0.00113069
-3.01171e-05
-5.86133e-05
-0.000811039
1.63215e-05
-0.000153708
-0.000437874
0.000137164
-0.000222792
-0.000166178
0.000335294
-0.000189262
-2.38508e-05
0.00044371
-0.000104215
0.000429233
-4.13127e-05
8.77352e-05
0.000942346
-9.06405e-05
0.000303246
0.00131784
-0.000252881
0.000512301
0.00152716
-0.000260143
0.000625088
0.00162026
-0.000158495
0.000648976
0.00166013
-5.32823e-05
0.000620369
0.00166988
2.16254e-05
0.000550737
0.0016494
9.00479e-05
0.000457082
0.00160149
0.000140509
0.000351341
0.0015265
0.000176477
0.000240261
0.00141842
0.000199643
0.000133146
0.00127501
0.000211585
3.26487e-05
0.00110084
0.000212385
-5.81918e-05
0.000906431
0.000210204
-0.000135593
0.000714236
0.000191447
-0.000191146
0.000534438
0.000164203
-0.000209999
0.000369169
0.000133066
-0.000201765
0.000231269
0.000111622
-0.000185758
0.000119332
0.000109329
-0.00017806
2.85187e-05
0.000124956
-0.000168687
-6.08757e-05
0.000145444
-0.000191022
-0.000119913
0.00016817
-0.000217908
-0.000161985
0.000184852
-0.000265107
-0.000204069
0.000197933
-0.000324683
-0.000217151
0.000213194
-0.000398524
-0.000221751
0.000226861
-0.000487277
-0.000198945
0.000245256
-0.000605018
-0.000155626
0.000268536
-0.00074497
-0.000116699
0.000288311
-0.000904839
-8.36812e-05
0.000306829
-0.00107678
-6.10646e-05
0.000313259
-0.00124212
-5.49185e-05
0.000301713
-0.0013725
-7.67884e-05
0.000267187
-0.00143118
-0.000121558
0.000203442
-0.00138002
-0.000180651
0.000113981
-0.00119351
-0.000218972
2.34811e-06
-0.00088391
-0.00019423
-9.90484e-05
-0.000508192
-6.09101e-05
-0.000177645
-0.000172116
0.000200553
-0.000201333
-3.47209e-05
0.000409966
-0.000103651
0.000431589
-3.70809e-05
8.54207e-05
0.000922019
-6.50941e-05
0.000310808
0.00131962
-0.000227164
0.000533765
0.00154348
-0.000239269
0.000657934
0.00163597
-0.000139878
0.000686161
0.00166287
-3.09605e-05
0.000645028
0.00164407
6.69429e-05
0.00056413
0.00160313
0.000127164
0.000455682
0.00153175
0.000178196
0.000333525
0.00143983
0.000208822
0.000204831
0.00131848
0.000228639
7.85276e-05
0.0011672
0.000234116
-3.92788e-05
0.000989977
0.000228666
-0.000147048
0.000801417
0.000212782
-0.000222628
0.000606343
0.000183473
-0.000257842
0.000422285
0.000147367
-0.000259308
0.000256385
0.00011425
-0.000234061
0.000112277
9.3745e-05
-0.000193612
-1.28971e-05
9.17805e-05
-0.000150241
-0.000119115
0.000104265
-0.000128695
-0.000205287
0.000122868
-0.000130545
-0.000262173
0.000144111
-0.000142475
-0.000309836
0.000159782
-0.000178334
-0.000344249
0.000176039
-0.00021746
-0.0003652
0.000187173
-0.000270652
-0.000372372
0.000203813
-0.000334497
-0.000359677
0.000224576
-0.000418697
-0.000323535
0.000252109
-0.000544718
-0.000268266
0.000277588
-0.000696938
-0.000231126
0.000299667
-0.000872517
-0.000202814
0.000317328
-0.00105652
-0.000192864
0.000321951
-0.00122302
-0.000213414
0.000303123
-0.00133733
-0.000260221
0.000252977
-0.00135202
-0.000338193
0.000172227
-0.00123616
-0.000402998
6.81681e-05
-0.000965972
-0.000419264
-4.51593e-05
-0.000606445
-0.000285865
-0.000134575
-0.000229433
-6.89133e-06
-0.000169566
-2.68224e-05
0.000328367
-0.000121007
0.000438079
-3.3314e-05
9.95626e-05
0.000825798
-3.341e-06
0.00033574
0.00125588
-0.000172445
0.000569979
0.00150163
-0.000192385
0.000704977
0.00159929
-9.83204e-05
0.000725711
0.00161785
2.42812e-05
0.000672476
0.00158548
0.000111834
0.000572941
0.00152525
0.000177412
0.00044608
0.00143697
0.000221633
0.000305849
0.00132989
0.000250176
0.000160889
0.00119808
0.000265362
2.39185e-05
0.00103977
0.000264395
-0.000101857
0.000866326
0.000249425
-0.000204553
0.000682843
0.00022127
-0.000273234
0.000495201
0.000179823
-0.000300042
0.000315149
0.000133943
-0.000288393
0.000148917
9.58194e-05
-0.000251782
2.88505e-06
7.27812e-05
-0.000189413
-0.000139482
6.42159e-05
-0.000133134
-0.000245255
6.98635e-05
-8.93846e-05
-0.000335174
8.61389e-05
-6.54163e-05
-0.000397232
0.00011109
-6.04631e-05
-0.000447763
0.000132974
-6.99893e-05
-0.000482043
0.000147319
-9.32301e-05
-0.000501184
0.000159222
-0.000138712
-0.00050472
0.000177829
-0.000202077
-0.000499162
0.000202851
-0.000281293
-0.000475544
0.000231226
-0.000369306
-0.000441738
0.000261485
-0.00050277
-0.000389197
0.000291536
-0.000669128
-0.000351438
0.000314984
-0.000856896
-0.000336345
0.00033125
-0.00104453
-0.000353536
0.00032776
-0.0012009
-0.000399631
0.00029578
-0.00127631
-0.000492805
0.000230014
-0.00122628
-0.000587143
0.000134124
-0.000997012
-0.000677515
2.89794e-05
-0.00064938
-0.000556053
-7.74454e-05
-0.000276217
-0.000245999
-0.000134057
-1.72032e-05
0.000196996
-0.000127641
0.00044196
-2.10797e-05
9.58822e-05
0.000705133
2.4784e-05
0.000327726
0.00117643
-0.000152392
0.000574863
0.0014397
-0.00018521
0.000724702
0.00153576
-8.63106e-05
0.00075163
0.00154284
4.80808e-05
0.000698658
0.0014925
0.000145944
0.000589794
0.00141807
0.000216045
0.00044806
0.00132281
0.000255897
0.000293868
0.0012095
0.000274586
0.000131184
0.00107761
0.000283152
-2.50521e-05
0.000924087
0.000271919
-0.000162093
0.000755813
0.000247554
-0.000274082
0.000579787
0.000215045
-0.000344803
0.000398179
0.000167743
-0.000367288
0.000221012
0.000116621
-0.000343702
5.06544e-05
7.46775e-05
-0.000281406
-0.000103783
4.43731e-05
-0.000201609
-0.000244204
2.49261e-05
-0.000117487
-0.000353853
2.44756e-05
-4.41672e-05
-0.000449047
4.05535e-05
-1.00363e-06
-0.000514605
7.42091e-05
2.01255e-05
-0.000566272
9.73792e-05
2.60097e-05
-0.000603604
0.000115675
2.08089e-05
-0.000628578
0.000132594
-2.05789e-06
-0.000635189
0.000153335
-5.24136e-05
-0.000626028
0.000177223
-0.000129669
-0.000603633
0.000205346
-0.000225926
-0.000583824
0.000238343
-0.000333821
-0.000550607
0.000269305
-0.000474361
-0.000518459
0.000307562
-0.000651106
-0.000498411
0.000338812
-0.000843344
-0.000513854
0.000352557
-0.0010327
-0.000549372
0.000339098
-0.00115609
-0.000665091
0.00029568
-0.00116579
-0.000790068
0.000212626
-0.00103527
-0.000907881
9.98442e-05
-0.000711509
-0.000872627
-7.19221e-06
-0.00033505
-0.000538473
-8.39856e-05
-2.99408e-05
-2.10534e-05
-8.70613e-05
0.000396362
1.5662e-05
0.000124794
0.000491704
8.86356e-05
0.000333763
0.00103473
-6.72633e-05
0.000581445
0.00131558
-0.000123561
0.000736302
0.00141798
-3.70783e-05
0.000763958
0.0014282
8.69861e-05
0.000699638
0.00137298
0.000183838
0.000573185
0.0012888
0.00025572
0.000415595
0.00118394
0.000296459
0.000245053
0.00106744
0.000312597
7.23031e-05
0.000939366
0.000310993
-8.50958e-05
0.00079804
0.000283447
-0.000219206
0.000646556
0.000243368
-0.000330369
0.000484368
0.000206583
-0.000400178
0.000310774
0.000157213
-0.000415214
0.000132637
0.000103411
-0.000375135
-4.23678e-05
5.2944e-05
-0.000304529
-0.000178972
4.58517e-06
-0.000210453
-0.000314748
-2.35315e-05
-0.000100519
-0.00043346
-3.03278e-05
-8.77735e-06
-0.000534959
-5.83027e-06
5.25807e-05
-0.000610632
3.46684e-05
0.000103534
-0.000670894
5.3667e-05
0.000132516
-0.00070877
7.61837e-05
0.000137147
-0.000730361
9.71515e-05
0.00011413
-0.000735037
0.000122868
7.56549e-05
-0.00073629
0.000148738
1.71157e-05
-0.000723716
0.000178622
-6.9242e-05
-0.000708827
0.000211364
-0.00017928
-0.000686934
0.000246364
-0.000300054
-0.000681043
0.000283361
-0.00045743
-0.000663875
0.000322841
-0.000644126
-0.000686141
0.000358985
-0.000840553
-0.000728965
0.00037602
-0.00100978
-0.000847119
0.000351256
-0.00109014
-0.000993592
0.000283879
-0.00101982
-0.00115721
0.000179012
-0.000778372
-0.00117966
6.55845e-05
-0.000360582
-0.000935287
-2.09769e-05
-5.6043e-05
-0.000283411
-4.21827e-05
0.000284403
5.59166e-05
0.000120052
0.000287092
8.456e-05
0.000304702
0.000911258
-6.11814e-05
0.000549135
0.00119231
-0.000121163
0.000712206
0.00129198
-3.70711e-05
0.000763424
0.00128978
8.71986e-05
0.000717416
0.00122637
0.000192623
0.000602281
0.0011367
0.000267242
0.000441213
0.00104018
0.000304824
0.000255319
0.00094407
0.000309265
6.42249e-05
0.000836655
0.000293804
-0.000111782
0.000717586
0.000256462
-0.000258797
0.000584735
0.000208836
-0.000379838
0.000435005
0.000170404
-0.000462361
0.000270564
0.000122733
-0.000479702
8.81781e-05
6.17997e-05
-0.000445885
-7.72111e-05
1.02853e-06
-0.000356846
-0.000211217
-5.67939e-05
-0.000241897
-0.000347478
-8.22193e-05
-0.000116673
-0.000476312
-8.23741e-05
-6.19743e-08
-0.00058505
-6.65225e-05
8.21767e-05
-0.000675105
-1.77648e-05
0.000144683
-0.000743734
1.03347e-05
0.000195533
-0.000789438
2.98187e-05
0.000229916
-0.000817677
5.29344e-05
0.000242735
-0.000826912
7.90557e-05
0.000222866
-0.000825528
0.000109108
0.000166994
-0.000812255
0.000144409
8.92767e-05
-0.000807991
0.000176883
-6.51749e-06
-0.000799845
0.000208704
-0.000131288
-0.000803641
0.000247373
-0.000275952
-0.000811881
0.00029267
-0.00045245
-0.000854118
0.000344476
-0.000659342
-0.000914312
0.000392239
-0.00086156
-0.00105516
0.000410259
-0.00100853
-0.00122474
0.000378121
-0.00101485
-0.00143889
0.000288004
-0.00085453
-0.00151881
0.000178832
-0.000472927
-0.00137734
6.04519e-05
-7.65682e-05
-0.000709073
2.93035e-05
0.000121272
8.65645e-05
7.53078e-05
0.000146271
6.55122e-05
0.000278433
0.000771667
-6.35353e-05
0.000523231
0.00106539
-0.000117877
0.000703047
0.00117806
-6.58968e-05