/*--------------------------------*- C++ -*----------------------------------*\
| =========                 |                                                 |
| \\      /  F ield         | OpenFOAM: The Open Source CFD Toolbox           |
|  \\    /   O peration     | Version:  v1806                                 |
|   \\  /    A nd           | Web:      www.OpenFOAM.com                      |
|    \\/     M anipulation  |                                                 |
\*---------------------------------------------------------------------------*/
FoamFile
{
    version     2.0;
    format      ascii;
    class       volVectorField;
    location    "0.1305";
    object      U_0;
}
// * * * * * * * * * * * * * * * * * * * * * * * * * * * * * * * * * * * * * //

dimensions      [0 1 -1 0 0 0 0];


internalField   nonuniform List<vector> 
64000
(
(-0.0136871 -0.00947538 -0.0120398)
(0.0110337 -0.00891358 -0.0102565)
(0.0130041 0.000223383 -0.0012929)
(0.0153931 0.000859936 0.000271128)
(0.0140759 0.000502187 0.000680105)
(0.013651 -0.000793814 0.00107919)
(0.013387 -0.00229757 0.000817644)
(0.0109396 -0.00334137 0.00176819)
(0.010144 -0.00447243 0.0022763)
(0.00491894 -0.0045158 0.00309524)
(0.00102546 -0.00592787 0.00353756)
(-0.00887719 -0.00887189 0.0062609)
(-0.0198532 -0.0137316 0.00478774)
(-0.0381345 -0.0189992 0.00394544)
(-0.0549176 -0.0207593 0.00355988)
(-0.0834268 -0.0216738 0.00226704)
(-0.0953405 -0.00732757 -0.000160108)
(-0.130552 -0.0106738 -0.00390952)
(-0.115453 -0.0158048 0.00286419)
(-0.16215 -0.0335923 -0.0156934)
(-0.10941 -0.0212906 -0.0137105)
(-0.0397415 -0.0229689 -0.0322083)
(-0.0768076 -0.00355793 -0.0160209)
(-0.0728639 -0.0030979 -0.0327263)
(-0.0987548 0.00370219 -0.0429681)
(-0.0893983 0.0116602 -0.0538022)
(-0.0801316 0.0228513 -0.058388)
(-0.0444831 0.0348572 -0.0550984)
(-0.0139286 0.0435268 -0.0501093)
(0.0359183 0.0583959 -0.032762)
(0.0862262 0.0449384 -0.0351976)
(0.12304 0.0384769 -0.0243471)
(0.136277 0.0281796 -0.0109335)
(0.133167 0.01333 -0.00417383)
(0.115106 0.00521307 0.00297428)
(0.0910599 -0.00299227 0.00510148)
(0.0678244 -0.00614622 0.00912641)
(0.0441587 -0.00561743 0.00935794)
(0.0243585 -0.00357797 0.00828913)
(0.00516515 -0.00231573 0.00633688)
(-0.0105134 0.0177594 -0.008645)
(0.00103663 -0.00418097 -0.00913341)
(0.0116436 0.0011723 -0.00465233)
(0.0196691 0.00275888 -0.00270687)
(0.0233983 0.0050602 -0.00291476)
(0.0242791 0.00549759 -0.00261737)
(0.023747 0.00767558 -0.00411464)
(0.0178224 0.0085573 -0.00351564)
(0.0114873 0.0133012 -0.00706169)
(-0.0051453 0.0153981 -0.00511449)
(-0.0269264 0.0196648 -0.00961159)
(-0.0611582 0.0258493 -0.000424485)
(-0.100828 0.0342205 -0.0059509)
(-0.147789 0.0500602 -0.00841104)
(-0.195525 0.0624549 -0.0131932)
(-0.246181 0.0706865 -0.0191233)
(-0.303897 0.0773352 -0.0453421)
(-0.396144 0.076905 -0.0613214)
(-0.42929 0.0829451 -0.0785332)
(-0.496407 0.0850285 -0.0912609)
(-0.41507 0.117 -0.0823082)
(-0.317958 0.139624 -0.120577)
(-0.341884 0.189134 -0.122983)
(-0.326464 0.2077 -0.138132)
(-0.324937 0.23186 -0.150648)
(-0.282566 0.252744 -0.158946)
(-0.237575 0.27452 -0.161513)
(-0.166366 0.291539 -0.151332)
(-0.0953119 0.300894 -0.131022)
(-0.0298187 0.307716 -0.108029)
(0.038263 0.289336 -0.0661479)
(0.112364 0.253293 -0.0466738)
(0.142341 0.202987 -0.0354519)
(0.155156 0.153717 -0.0249459)
(0.146457 0.105531 -0.00971315)
(0.122073 0.0654605 -0.00244166)
(0.098301 0.0386655 0.00232795)
(0.0695249 0.0244235 0.00312519)
(0.041405 0.0157045 0.00375014)
(0.0105993 0.00857876 0.00479578)
(-0.00207278 0.0198206 -0.00022549)
(0.00718832 -0.000972266 -0.00507716)
(0.0170085 0.00229902 -0.0053937)
(0.025051 0.00832785 -0.00584138)
(0.0265121 0.0157876 -0.0074502)
(0.0248396 0.0244541 -0.00823378)
(0.0188243 0.0359072 -0.00994921)
(0.00632844 0.0497925 -0.00917662)
(-0.0121624 0.0681089 -0.00385767)
(-0.0448113 0.084654 -0.0062281)
(-0.0784212 0.108853 -0.00920923)
(-0.126214 0.136178 -0.0134664)
(-0.175856 0.166755 -0.0191572)
(-0.246604 0.193623 -0.0326722)
(-0.32722 0.212881 -0.0380065)
(-0.415609 0.225303 -0.0455012)
(-0.483809 0.230102 -0.0638044)
(-0.560265 0.244814 -0.082975)
(-0.585433 0.278647 -0.100736)
(-0.63947 0.316598 -0.111575)
(-0.537945 0.351144 -0.093107)
(-0.412453 0.396866 -0.121891)
(-0.418295 0.451862 -0.114513)
(-0.391448 0.480288 -0.117782)
(-0.381402 0.511392 -0.122832)
(-0.333754 0.530764 -0.123365)
(-0.287966 0.544736 -0.119365)
(-0.22096 0.546351 -0.104891)
(-0.160349 0.537873 -0.0823028)
(-0.0959296 0.516235 -0.0587895)
(-0.0447872 0.493193 -0.0376367)
(0.00056117 0.437764 -0.0243315)
(0.0384677 0.36623 -0.00953228)
(0.0654796 0.293552 -0.00736104)
(0.0716045 0.219545 -0.00724746)
(0.0714346 0.157082 -0.00824835)
(0.0683791 0.110024 -0.00361663)
(0.0547682 0.0768424 -0.00158231)
(0.0378966 0.0510269 0.00153457)
(0.0117861 0.0271807 0.00454051)
(-0.00101211 0.0210935 0.000215781)
(0.00805102 0.00375332 -0.00450734)
(0.0179415 0.0108416 -0.0062325)
(0.0223393 0.0252936 -0.00866399)
(0.021955 0.045422 -0.00918276)
(0.0171661 0.06736 -0.0105998)
(0.00717013 0.0957451 -0.00649805)
(-0.0126617 0.128387 -0.00728957)
(-0.0432378 0.163216 -0.0111663)
(-0.0850375 0.200152 -0.0138639)
(-0.129471 0.240514 -0.0198722)
(-0.191375 0.276376 -0.0262301)
(-0.264278 0.30435 -0.0294774)
(-0.346881 0.316374 -0.0305399)
(-0.420542 0.334078 -0.0339501)
(-0.490805 0.353146 -0.0402939)
(-0.543604 0.382411 -0.0571864)
(-0.605334 0.410755 -0.0676734)
(-0.617564 0.458661 -0.0783483)
(-0.663209 0.507204 -0.0746958)
(-0.543606 0.533533 -0.0313344)
(-0.395471 0.571861 -0.0435318)
(-0.392628 0.607689 -0.0288859)
(-0.364919 0.612357 -0.0248148)
(-0.356363 0.624857 -0.0243192)
(-0.317754 0.622223 -0.0211136)
(-0.283415 0.613509 -0.0178298)
(-0.232727 0.591262 -0.0103462)
(-0.188707 0.563967 0.0014379)
(-0.143301 0.528984 0.00867608)
(-0.114762 0.488297 0.0133842)
(-0.0861062 0.445342 0.0118234)
(-0.0622145 0.388992 0.00578585)
(-0.0346577 0.324534 -0.00157941)
(-0.0127201 0.258838 -0.00397207)
(0.00643637 0.198323 -0.00468567)
(0.0241071 0.146289 -0.0051015)
(0.0282682 0.112184 -0.00509964)
(0.0277168 0.0765574 -0.000236067)
(0.0106067 0.0397366 0.00388147)
(-0.00149615 0.0236266 -0.00128446)
(0.00867194 0.0165165 -0.00638371)
(0.0229247 0.0333875 -0.0107956)
(0.0301452 0.0637108 -0.0106276)
(0.0266559 0.0969114 -0.0113852)
(0.0178742 0.139257 -0.0143976)
(0.00301278 0.186631 -0.0109273)
(-0.0261741 0.237486 -0.00828552)
(-0.064575 0.289877 -0.00928801)
(-0.113443 0.334976 -0.0119246)
(-0.166944 0.370046 -0.0155057)
(-0.237622 0.389084 -0.0184349)
(-0.309973 0.407105 -0.0195988)
(-0.378237 0.424952 -0.0220941)
(-0.434501 0.450519 -0.0236153)
(-0.493913 0.478341 -0.0269525)
(-0.533375 0.507677 -0.0322104)
(-0.5767 0.538266 -0.0308619)
(-0.567762 0.59784 -0.0249498)
(-0.599711 0.645894 -0.0264028)
(-0.47764 0.669053 0.0210888)
(-0.321939 0.683828 0.0201208)
(-0.319288 0.687893 0.0390573)
(-0.300858 0.655571 0.0400353)
(-0.306232 0.640255 0.0393653)
(-0.286869 0.611629 0.0427239)
(-0.272533 0.580363 0.0458655)
(-0.240213 0.540625 0.0511712)
(-0.216322 0.499117 0.0443316)
(-0.189606 0.457469 0.0350873)
(-0.169959 0.412388 0.0244352)
(-0.156392 0.378812 0.0150919)
(-0.147474 0.342828 0.00882935)
(-0.124955 0.311797 -0.00195369)
(-0.100134 0.270698 -0.00920408)
(-0.068649 0.206939 -0.0110674)
(-0.0258076 0.159314 -0.00967371)
(-0.000567026 0.129679 -0.00924253)
(0.0126866 0.0949243 -0.00175846)
(0.00886882 0.0469572 0.00367377)
(0.000446879 0.0311759 -0.00248549)
(0.0154193 0.0376013 -0.00971426)
(0.0356714 0.0701067 -0.0117178)
(0.039719 0.119515 -0.0124034)
(0.0360666 0.170873 -0.0184832)
(0.0283505 0.229653 -0.0173531)
(0.00937266 0.295702 -0.0115971)
(-0.021783 0.350992 -0.00554858)
(-0.0710762 0.394854 -0.00725136)
(-0.135489 0.423567 -0.0099121)
(-0.202707 0.445666 -0.0126274)
(-0.266815 0.462637 -0.0128088)
(-0.3197 0.485447 -0.0113641)
(-0.371249 0.509473 -0.00834398)
(-0.408887 0.533473 -0.0032799)
(-0.450258 0.556826 0.000268772)
(-0.467919 0.585037 0.00262658)
(-0.481433 0.615087 0.00544105)
(-0.464335 0.669158 0.00336402)
(-0.48491 0.707981 0.0120206)
(-0.366482 0.715077 0.0560305)
(-0.233077 0.683569 0.0588417)
(-0.24933 0.65572 0.0786664)
(-0.250876 0.590852 0.0835324)
(-0.26869 0.555276 0.0834183)
(-0.268638 0.512017 0.0807494)
(-0.269667 0.473358 0.0774105)
(-0.257437 0.431236 0.0688969)
(-0.245353 0.386732 0.0633503)
(-0.232607 0.347427 0.0438711)
(-0.223722 0.306176 0.0306826)
(-0.207724 0.273306 0.0175064)
(-0.193717 0.250094 0.00376522)
(-0.1754 0.238857 -0.00365728)
(-0.174214 0.224468 -0.0154477)
(-0.142273 0.184873 -0.0124649)
(-0.0680364 0.150852 -0.0105763)
(-0.0212444 0.127914 -0.00945021)
(0.0041575 0.0988058 -0.00357809)
(0.00560105 0.0467366 0.00507774)
(0.0033083 0.0393697 -0.00347353)
(0.0284499 0.0571113 -0.0122391)
(0.0614046 0.0981385 -0.0149687)
(0.0717358 0.157634 -0.0174931)
(0.0635539 0.222253 -0.0248519)
(0.0552096 0.291624 -0.020914)
(0.0258853 0.357249 -0.0122748)
(-0.0312357 0.390103 -0.0027885)
(-0.0947489 0.421864 -0.00701117)
(-0.153681 0.447931 -0.0079928)
(-0.200067 0.477578 -0.00813984)
(-0.24625 0.508645 -0.0060798)
(-0.285229 0.538741 -0.00231567)
(-0.322751 0.564065 0.00196408)
(-0.349209 0.589083 0.00738254)
(-0.372578 0.607276 0.0122691)
(-0.372755 0.631213 0.0210693)
(-0.377568 0.640364 0.0241963)
(-0.344469 0.657633 0.0255047)
(-0.357936 0.673458 0.019782)
(-0.292545 0.66756 0.0547073)
(-0.181327 0.571014 0.0616275)
(-0.198364 0.536678 0.0770068)
(-0.21398 0.467912 0.0830618)
(-0.242585 0.436535 0.0817271)
(-0.25957 0.399447 0.0799034)
(-0.276059 0.371477 0.0758793)
(-0.281013 0.339678 0.0656837)
(-0.283106 0.307445 0.0495847)
(-0.282417 0.274136 0.0317423)
(-0.280216 0.242958 0.0154953)
(-0.268226 0.216049 0.00180604)
(-0.250877 0.195745 -0.00638065)
(-0.224239 0.183734 -0.0106654)
(-0.216791 0.184968 -0.0158105)
(-0.185917 0.17846 -0.0178642)
(-0.10212 0.154627 -0.0162551)
(-0.0351185 0.133554 -0.0134386)
(0.000122501 0.104607 -0.00674642)
(0.00619368 0.0499815 0.00360707)
(0.00492576 0.0505204 -0.00546946)
(0.0362594 0.0779889 -0.0161818)
(0.0801259 0.123916 -0.0168693)
(0.0958694 0.181917 -0.0142411)
(0.0932098 0.242767 -0.0175446)
(0.0766274 0.317319 -0.0114326)
(0.0222008 0.350427 -0.00162312)
(-0.0345638 0.382573 -0.000419014)
(-0.0785415 0.425628 -0.00250565)
(-0.126033 0.464802 -0.00171795)
(-0.16671 0.500184 -0.00112286)
(-0.204881 0.528141 0.00360977)
(-0.233686 0.550484 0.00923427)
(-0.257354 0.566908 0.0160792)
(-0.270665 0.581127 0.020301)
(-0.284521 0.584718 0.0259376)
(-0.282767 0.588087 0.0300001)
(-0.284748 0.571116 0.0304359)
(-0.259131 0.566078 0.0278796)
(-0.265641 0.53005 0.0134407)
(-0.250291 0.535156 0.0318902)
(-0.16565 0.415871 0.0438801)
(-0.166533 0.394601 0.0523234)
(-0.195776 0.344451 0.0635014)
(-0.229419 0.326325 0.0648784)
(-0.260507 0.302414 0.0667243)
(-0.286218 0.286189 0.0663588)
(-0.304199 0.264319 0.0555673)
(-0.318704 0.243055 0.0415376)
(-0.326935 0.216315 0.016726)
(-0.328034 0.190062 0.00676581)
(-0.314344 0.168938 -0.00487952)
(-0.297264 0.155793 -0.0141761)
(-0.264215 0.149208 -0.015868)
(-0.252363 0.153998 -0.0202309)
(-0.224362 0.175216 -0.0181827)
(-0.13708 0.15548 -0.0173769)
(-0.0525778 0.138522 -0.0121043)
(-0.00297583 0.107704 -0.00683925)
(0.00609196 0.0503762 0.00458198)
(0.00395959 0.0687032 -0.00743684)
(0.0432852 0.109308 -0.0190859)
(0.0998114 0.164198 -0.0197654)
(0.122355 0.219877 -0.0140125)
(0.127617 0.282016 -0.0161466)
(0.0905467 0.338163 -0.0109912)
(0.0302121 0.364703 -0.000800451)
(-0.00654406 0.405479 0.00386441)
(-0.0483804 0.444012 0.0031382)
(-0.0911599 0.481946 0.00576669)
(-0.125415 0.505503 0.00906546)
(-0.155808 0.520696 0.0131577)
(-0.17494 0.530532 0.0214886)
(-0.190852 0.529764 0.0259053)
(-0.201898 0.521048 0.0285812)
(-0.211647 0.500358 0.0297333)
(-0.213328 0.479857 0.0292819)
(-0.217197 0.443874 0.0254028)
(-0.21413 0.422059 0.0187383)
(-0.213669 0.368287 0.0051198)
(-0.23413 0.375791 0.00339011)
(-0.179427 0.289638 0.0235191)
(-0.149986 0.276438 0.0272352)
(-0.188459 0.252411 0.0418216)
(-0.223813 0.245807 0.0471498)
(-0.263867 0.233241 0.0542174)
(-0.297025 0.224248 0.0570406)
(-0.325014 0.21 0.0484647)
(-0.349373 0.193461 0.0307379)
(-0.364896 0.168973 0.0128899)
(-0.366727 0.149562 0.00260922)
(-0.354688 0.131607 0.000761516)
(-0.337159 0.118703 -0.00613051)
(-0.303902 0.120704 -0.0163581)
(-0.26987 0.125704 -0.0248235)
(-0.245832 0.160454 -0.026048)
(-0.169889 0.158156 -0.0199855)
(-0.0664659 0.145906 -0.018501)
(-0.00686291 0.113038 -0.00885625)
(0.00777798 0.0536815 0.00280533)
(0.00288705 0.0888104 -0.00875063)
(0.0506674 0.149338 -0.0222958)
(0.118638 0.210031 -0.0230413)
(0.149745 0.263173 -0.0156829)
(0.150062 0.321726 -0.016161)
(0.106656 0.351696 -0.00999946)
(0.0506177 0.392368 -0.000233007)
(0.0177499 0.425807 0.00943646)
(-0.0126667 0.452167 0.0122952)
(-0.0492557 0.475904 0.0169535)
(-0.0840696 0.493245 0.0175179)
(-0.109328 0.496929 0.026923)
(-0.126812 0.488505 0.032108)
(-0.142725 0.464131 0.0364252)
(-0.153905 0.433051 0.036264)
(-0.165673 0.392787 0.0336054)
(-0.174436 0.354697 0.0282812)
(-0.181021 0.309874 0.0218567)
(-0.190165 0.280369 0.0124581)
(-0.188088 0.240143 0.00266104)
(-0.219373 0.236866 -0.00953359)
(-0.182816 0.203949 0.00923758)
(-0.138705 0.196864 0.0121661)
(-0.17887 0.189459 0.0274055)
(-0.213492 0.186286 0.0368926)
(-0.259824 0.180352 0.0477508)
(-0.29604 0.173651 0.0531412)
(-0.331848 0.163416 0.0433163)
(-0.362949 0.146836 0.0320935)
(-0.379222 0.127289 0.0244859)
(-0.38797 0.105094 0.0217979)
(-0.382459 0.0857258 0.0209426)
(-0.363789 0.0698685 0.0164492)
(-0.33181 0.0715423 0.00810892)
(-0.29606 0.0818244 -0.00579016)
(-0.265874 0.12139 -0.023428)
(-0.193062 0.146723 -0.0203797)
(-0.0884747 0.14148 -0.0148839)
(-0.0123436 0.116557 -0.00800482)
(0.00877873 0.0548877 0.00391734)
(0.00375719 0.113142 -0.00977207)
(0.0596148 0.196368 -0.0278221)
(0.137516 0.259055 -0.0273707)
(0.175949 0.310703 -0.0177098)
(0.168628 0.352801 -0.0132135)
(0.126578 0.377182 -0.0112464)
(0.0837573 0.414282 -0.000604772)
(0.0475463 0.442426 0.0124087)
(0.0179078 0.459777 0.021203)
(-0.0128094 0.468334 0.0239266)
(-0.0429057 0.469149 0.0297668)
(-0.0701426 0.461096 0.0369294)
(-0.0915816 0.437647 0.040653)
(-0.110139 0.398194 0.0420788)
(-0.125367 0.351284 0.0405818)
(-0.139437 0.301148 0.0348074)
(-0.153025 0.258138 0.026158)
(-0.16261 0.2171 0.0174933)
(-0.175989 0.189137 0.00735729)
(-0.176702 0.165786 -0.0025118)
(-0.205765 0.155738 -0.0142605)
(-0.170406 0.151171 0.00127062)
(-0.125205 0.148184 0.00459125)
(-0.164202 0.143408 0.0194775)
(-0.196051 0.139493 0.0319617)
(-0.243381 0.132539 0.043462)
(-0.28391 0.128555 0.0481345)
(-0.32223 0.11712 0.0423599)
(-0.356723 0.102806 0.0439486)
(-0.385384 0.0803477 0.0451192)
(-0.402713 0.0563997 0.0452499)
(-0.406445 0.038497 0.0328691)
(-0.391879 0.0278428 0.0299741)
(-0.359614 0.0262825 0.0195653)
(-0.307975 0.0397274 0.00709391)
(-0.272152 0.0748271 -0.0114429)
(-0.209812 0.119025 -0.0225779)
(-0.100118 0.132936 -0.0161129)
(-0.0140899 0.112973 -0.00835002)
(0.00892881 0.0545232 0.0031347)
(0.00497566 0.136093 -0.0097037)
(0.0659106 0.239149 -0.0305256)
(0.15359 0.305539 -0.029624)
(0.192969 0.349175 -0.015869)
(0.18351 0.376012 -0.00936844)
(0.149369 0.40168 -0.00760504)
(0.112484 0.426236 0.00260587)
(0.0772013 0.445741 0.0122084)
(0.0460576 0.455223 0.0194227)
(0.0159949 0.45204 0.0327492)
(-0.0110323 0.440279 0.0386636)
(-0.0400643 0.416904 0.0422211)
(-0.0682338 0.382385 0.0445732)
(-0.0915889 0.333329 0.0439884)
(-0.110199 0.281791 0.0393898)
(-0.125252 0.229117 0.032814)
(-0.139597 0.187508 0.02209)
(-0.149446 0.153164 0.0130158)
(-0.161683 0.13013 0.00357127)
(-0.164793 0.118449 -0.00566638)
(-0.187862 0.107491 -0.0141981)
(-0.147709 0.115867 -0.0016098)
(-0.106079 0.108689 0.000980723)
(-0.138973 0.101163 0.0154359)
(-0.168051 0.093111 0.0280323)
(-0.213485 0.0853809 0.0396356)
(-0.251312 0.079136 0.0431362)
(-0.293107 0.0672955 0.0520603)
(-0.334676 0.052074 0.059154)
(-0.367871 0.0328238 0.0653795)
(-0.389227 0.00896534 0.065295)
(-0.399294 -0.0175807 0.0573171)
(-0.402261 -0.0365714 0.0330297)
(-0.382275 -0.0371597 0.0249375)
(-0.343085 -0.0236851 0.0220052)
(-0.296893 0.0172439 0.0150016)
(-0.222663 0.0784097 -0.0143792)
(-0.119167 0.116365 -0.0183382)
(-0.0212213 0.109456 -0.00796607)
(0.0116544 0.0549985 0.0026303)
(0.00525442 0.157745 -0.0073067)
(0.0719834 0.28098 -0.0308444)
(0.164195 0.349342 -0.0299233)
(0.20502 0.38054 -0.0133697)
(0.201908 0.400086 -0.00305831)
(0.171992 0.421698 0.00123907)
(0.137809 0.436218 0.0052993)
(0.104453 0.444739 0.0150585)
(0.0718467 0.446969 0.0237171)
(0.0412642 0.437119 0.0333509)
(0.0120779 0.413448 0.0458662)
(-0.018543 0.376543 0.0465112)
(-0.0506565 0.332702 0.0447166)
(-0.0804091 0.27937 0.0413052)
(-0.102055 0.225332 0.0355331)
(-0.117127 0.175159 0.0279008)
(-0.130161 0.135329 0.0172386)
(-0.138328 0.106097 0.00846311)
(-0.145518 0.0862627 0.00104056)
(-0.148334 0.0774572 -0.00745096)
(-0.159363 0.0671614 -0.0109625)
(-0.114573 0.0859389 -0.00257921)
(-0.0813123 0.0686612 -0.000344958)
(-0.107571 0.0564114 0.0121193)
(-0.130793 0.0426194 0.0233761)
(-0.172052 0.0372026 0.0323657)
(-0.209577 0.0309013 0.0495363)
(-0.25049 0.0199636 0.0609113)
(-0.290777 0.00219573 0.0700634)
(-0.336065 -0.0224837 0.0702955)
(-0.381441 -0.054923 0.0615831)
(-0.416049 -0.089311 0.0504067)
(-0.420118 -0.120712 0.0360232)
(-0.403882 -0.134203 0.0112179)
(-0.356379 -0.119508 -0.00030706)
(-0.304569 -0.0718305 0.00214766)
(-0.235916 0.0169259 0.0104621)
(-0.127425 0.0739124 -0.0186136)
(-0.0244145 0.0921411 -0.00579501)
(0.010863 0.0478265 0.00329147)
(0.00588997 0.169146 -0.00477359)
(0.0729152 0.309931 -0.0308284)
(0.165015 0.379181 -0.0305329)
(0.209888 0.403555 -0.0124685)
(0.217446 0.416058 0.00281567)
(0.193366 0.429065 0.0104782)
(0.156552 0.43704 0.0152895)
(0.125147 0.438497 0.0180075)
(0.0945628 0.433877 0.0276046)
(0.0597477 0.416141 0.0355119)
(0.0262791 0.385343 0.0436035)
(-0.00717468 0.339016 0.0495301)
(-0.0422379 0.287878 0.0418823)
(-0.0752977 0.231707 0.0353531)
(-0.0995311 0.17909 0.0291151)
(-0.11352 0.131457 0.02183)
(-0.122184 0.0941639 0.0123587)
(-0.125639 0.0664048 0.00479799)
(-0.127281 0.0466339 -0.00102245)
(-0.125858 0.0368746 -0.00653538)
(-0.11614 0.0276867 -0.00625252)
(-0.0733448 0.0454253 -0.00332392)
(-0.0563543 0.0194779 -0.00116207)
(-0.0717339 0.00718774 0.00938925)
(-0.0856569 -0.00570307 0.0168244)
(-0.115795 -0.0151848 0.03168)
(-0.150108 -0.0256441 0.0449859)
(-0.195119 -0.0411885 0.0564459)
(-0.248104 -0.0631057 0.0611209)
(-0.303481 -0.093966 0.0598172)
(-0.358063 -0.125138 0.0537866)
(-0.399585 -0.157567 0.0429404)
(-0.422917 -0.186864 0.0270424)
(-0.414211 -0.208656 0.014442)
(-0.378192 -0.20458 -0.00839572)
(-0.312895 -0.16617 -0.00720428)
(-0.245988 -0.0727646 -0.00591642)
(-0.150143 0.0407779 -0.00248984)
(-0.0281885 0.0739388 -0.0164351)
(0.0136986 0.0464233 0.00327207)
(0.00622864 0.178733 6.98659e-05)
(0.0729325 0.332425 -0.0284763)
(0.163508 0.40457 -0.0308046)
(0.213765 0.426218 -0.0113868)
(0.230759 0.430802 0.00854054)
(0.211286 0.432331 0.0215451)
(0.177427 0.434983 0.0279508)
(0.14553 0.433952 0.0306421)
(0.110806 0.422805 0.0323297)
(0.0740806 0.39912 0.0341844)
(0.0354642 0.362546 0.0408081)
(-0.00169801 0.311912 0.0450417)
(-0.0384049 0.254607 0.0378694)
(-0.0726304 0.194775 0.0274201)
(-0.0969556 0.141466 0.0207454)
(-0.110534 0.0967247 0.0158506)
(-0.114718 0.0604247 0.00817739)
(-0.113899 0.0319026 0.00237601)
(-0.107086 0.0118837 -0.00118199)
(-0.0976593 -0.00427842 -0.0046983)
(-0.0720571 -0.0110003 -0.00130823)
(-0.0359833 -0.0130022 -0.00266217)
(-0.0259516 -0.040738 5.79531e-05)
(-0.0278522 -0.0542513 0.00445001)
(-0.0404527 -0.0724143 0.0131311)
(-0.0699606 -0.0832912 0.0279137)
(-0.102715 -0.0983503 0.0410271)
(-0.145192 -0.117416 0.0480618)
(-0.194869 -0.136914 0.0521932)
(-0.252772 -0.159171 0.0515066)
(-0.312159 -0.18662 0.0470812)
(-0.367753 -0.220193 0.037952)
(-0.405444 -0.255249 0.0252973)
(-0.416887 -0.283486 0.00813922)
(-0.387335 -0.294495 -0.00869698)
(-0.326646 -0.259758 -0.0212418)
(-0.236058 -0.183036 -0.0152627)
(-0.147255 -0.0339748 -0.000172083)
(-0.0467201 0.0431112 -0.00683312)
(0.0124906 0.0355462 0.000955109)
(0.00383051 0.166149 0.000589895)
(0.0658957 0.331294 -0.0281815)
(0.155859 0.409559 -0.0303188)
(0.210806 0.432858 -0.0109304)
(0.236162 0.433556 0.0119689)
(0.227171 0.430059 0.0256298)
(0.198458 0.429129 0.0338357)
(0.163538 0.420251 0.0381885)
(0.124611 0.403155 0.0378407)
(0.0825468 0.373971 0.0349787)
(0.0388937 0.330486 0.0319772)
(-0.00355967 0.276613 0.0329965)
(-0.0444775 0.213707 0.0250153)
(-0.078742 0.154388 0.0177576)
(-0.0981503 0.103811 0.0124128)
(-0.107448 0.0620681 0.00841592)
(-0.108379 0.0283269 0.00362439)
(-0.0991767 0.00206668 -0.000560558)
(-0.0886719 -0.0260629 -0.00416984)
(-0.0687677 -0.0504504 -0.00270247)
(-0.0370244 -0.0609262 -0.00248212)
(-0.0108582 -0.0846664 -0.00421907)
(0.00122383 -0.107099 -0.00166971)
(0.00219334 -0.126472 0.00346877)
(-0.00252237 -0.14538 0.0124862)
(-0.020189 -0.158082 0.0197632)
(-0.0515528 -0.168714 0.0274923)
(-0.0888248 -0.179957 0.0368294)
(-0.134444 -0.196242 0.0413664)
(-0.190186 -0.21683 0.0442124)
(-0.252498 -0.241858 0.042768)
(-0.314784 -0.275628 0.0378399)
(-0.366076 -0.314339 0.0263816)
(-0.395626 -0.35385 0.0110645)
(-0.386455 -0.374553 -0.00847796)
(-0.340741 -0.362357 -0.0238428)
(-0.250751 -0.283614 -0.028521)
(-0.156229 -0.147126 -0.0139321)
(-0.0495955 0.0064278 -0.0121652)
(0.0106554 0.0233828 0.00289674)
(0.00602869 0.15477 0.00802888)
(0.0663466 0.328015 -0.019598)
(0.15314 0.411997 -0.02362)
(0.213807 0.433234 -0.00292035)
(0.249438 0.430217 0.0201121)
(0.249203 0.42187 0.0299424)
(0.220524 0.413801 0.0386184)
(0.181037 0.399665 0.0411929)
(0.135799 0.380661 0.0401034)
(0.0863906 0.349694 0.034445)
(0.036809 0.307082 0.0284404)
(-0.01031 0.247942 0.0245014)
(-0.0502977 0.184529 0.0171436)
(-0.0776957 0.1285 0.0104807)
(-0.0941525 0.0796189 0.0041117)
(-0.100164 0.0365606 0.00086308)
(-0.0952137 0.000655996 -0.00247714)
(-0.0902891 -0.0349557 -0.00660484)
(-0.0789349 -0.0689486 -0.00332995)
(-0.0473434 -0.0991124 -0.0010932)
(-0.0175873 -0.125421 -0.00559491)
(0.00936051 -0.153658 -0.00567303)
(0.0276202 -0.174889 -0.00134318)
(0.0325066 -0.193848 0.00193348)
(0.0315371 -0.207589 0.00620572)
(0.0186923 -0.221133 0.0114936)
(-0.00195346 -0.229006 0.0178926)
(-0.037164 -0.236634 0.0226774)
(-0.0814452 -0.245727 0.0311126)
(-0.130271 -0.262812 0.0359076)
(-0.189951 -0.286824 0.0384743)
(-0.254562 -0.321502 0.0363154)
(-0.313682 -0.362981 0.0289815)
(-0.356572 -0.411864 0.0150941)
(-0.366118 -0.446928 -0.00336901)
(-0.33511 -0.45033 -0.0204446)
(-0.256149 -0.389982 -0.0308194)
(-0.147397 -0.252926 -0.0249794)
(-0.0450414 -0.0650165 0.00237279)
(-0.000145252 0.00886892 0.00440148)
(-0.00170507 0.132048 0.00186319)
(0.0492348 0.310137 -0.0228016)
(0.135438 0.401735 -0.0285561)
(0.205017 0.42923 -0.00544214)
(0.255531 0.427062 0.0106064)
(0.267668 0.412694 0.0267728)
(0.245276 0.396871 0.0343966)
(0.204123 0.378176 0.0350008)
(0.153879 0.355331 0.0309947)
(0.097298 0.323115 0.0245943)
(0.034924 0.273633 0.0185393)
(-0.0219259 0.21356 0.0197665)
(-0.0590288 0.1558 0.00871654)
(-0.0837276 0.100669 -0.00107503)
(-0.0978898 0.0512206 -0.00729968)
(-0.101361 0.00811225 -0.0103171)
(-0.0986456 -0.0336057 -0.0118334)
(-0.0876955 -0.0750292 -0.00803434)
(-0.0702903 -0.106867 -0.00319493)
(-0.040895 -0.1455 -0.00485095)
(-0.00590046 -0.178795 -0.00875195)
(0.0264772 -0.208761 -0.00543915)
(0.0483383 -0.233318 -0.00190191)
(0.0584469 -0.2516 0.000736181)
(0.0628296 -0.266771 0.00280087)
(0.0574825 -0.280541 0.0053687)
(0.0417752 -0.287221 0.00801505)
(0.0161192 -0.295103 0.0126099)
(-0.0211332 -0.298179 0.0168714)
(-0.070915 -0.310743 0.0232816)
(-0.12727 -0.325935 0.0300827)
(-0.188821 -0.357542 0.0325519)
(-0.252279 -0.401415 0.0284425)
(-0.305601 -0.459886 0.0175948)
(-0.32944 -0.514709 -0.00221509)
(-0.322235 -0.547116 -0.0225242)
(-0.266588 -0.505844 -0.0381525)
(-0.16659 -0.368292 -0.0334832)
(-0.0435889 -0.162266 -0.0114277)
(0.011465 -0.01947 0.000371231)
(-0.00469713 0.131844 0.00889529)
(0.0376219 0.323561 -0.00865332)
(0.1217 0.421152 -0.0148119)
(0.197342 0.446134 -0.000269009)
(0.257031 0.437535 0.0096258)
(0.277204 0.411269 0.0252678)
(0.259965 0.393202 0.0325333)
(0.218251 0.384134 0.0333641)
(0.162792 0.371103 0.0291479)
(0.0930256 0.342828 0.0225378)
(0.0214773 0.293473 0.0208393)
(-0.0302807 0.240446 0.0232539)
(-0.0651281 0.18582 0.0102492)
(-0.0880349 0.126746 -0.00227889)
(-0.0978643 0.07096 -0.0109719)
(-0.100772 0.0119616 -0.0167234)
(-0.0972576 -0.0403878 -0.0172348)
(-0.0832641 -0.0879444 -0.0131105)
(-0.0683904 -0.131317 -0.00988605)
(-0.0378488 -0.172308 -0.0134003)
(0.000104372 -0.204833 -0.0111685)
(0.0347422 -0.239221 -0.00618859)
(0.0641495 -0.271131 -0.00387527)
(0.0791683 -0.29904 -0.0030381)
(0.0854538 -0.316407 -0.00166539)
(0.0860389 -0.328212 0.00100985)
(0.0796602 -0.334244 0.00213292)
(0.0603816 -0.342321 0.00372681)
(0.0287077 -0.34721 0.00700398)
(-0.00905693 -0.358802 0.0118295)
(-0.0587504 -0.373559 0.0147142)
(-0.122983 -0.40314 0.0174271)
(-0.191661 -0.447204 0.0180177)
(-0.257369 -0.518173 0.0106605)
(-0.303278 -0.596886 -0.00357172)
(-0.306112 -0.660028 -0.0208662)
(-0.250205 -0.651981 -0.0410747)
(-0.16496 -0.513473 -0.0477202)
(-0.0484329 -0.283071 -0.0191448)
(0.0111496 -0.0705049 0.00667734)
(-0.0175435 0.217765 -0.00383833)
(0.0123384 0.444849 -0.0195915)
(0.0918992 0.551619 -0.022515)
(0.168279 0.583378 -0.00918307)
(0.236165 0.573582 0.00444371)
(0.278801 0.537346 0.0228316)
(0.29238 0.509251 0.0304292)
(0.263437 0.488962 0.0281009)
(0.196022 0.460902 0.019904)
(0.105074 0.417132 0.0127048)
(0.0214075 0.363822 0.0124144)
(-0.0378046 0.307817 0.013471)
(-0.0799651 0.243144 0.00149568)
(-0.107381 0.171212 -0.0123834)
(-0.125123 0.0961446 -0.0241445)
(-0.129027 0.025334 -0.0279827)
(-0.117074 -0.0364374 -0.0311778)
(-0.0984028 -0.0936397 -0.0248003)
(-0.0758253 -0.143794 -0.022391)
(-0.0368014 -0.181529 -0.0257847)
(0.00300649 -0.21242 -0.0225959)
(0.0342694 -0.243803 -0.0126266)
(0.0617545 -0.276715 -0.00639542)
(0.0867051 -0.308542 -0.00361894)
(0.109323 -0.330521 -0.00258392)
(0.119495 -0.341505 -0.0025288)
(0.114448 -0.348318 -0.00338954)
(0.101033 -0.358732 -0.00142042)
(0.0765296 -0.36901 0.000322361)
(0.0394139 -0.38972 0.00373458)
(-0.00591479 -0.418309 0.00859174)
(-0.0621316 -0.460743 0.0100368)
(-0.135916 -0.503398 0.0101012)
(-0.215919 -0.578053 0.0079533)
(-0.274651 -0.662984 -0.00116824)
(-0.301049 -0.752462 -0.0176728)
(-0.251236 -0.776122 -0.0327999)
(-0.175373 -0.687126 -0.0515885)
(-0.0528098 -0.394615 -0.0184569)
(0.0222735 -0.125566 0.00969865)
(-0.0125982 0.236825 0.00599424)
(0.0103845 0.474926 -0.0266199)
(0.0815743 0.596774 -0.033254)
(0.162422 0.648509 -0.0286648)
(0.22953 0.651758 -0.0183209)
(0.278547 0.624644 0.000305366)
(0.297108 0.584293 0.00992003)
(0.2561 0.534437 0.0119876)
(0.176675 0.480895 0.00985708)
(0.0827572 0.425859 0.00782243)
(-1.97947e-05 0.371084 0.0099414)
(-0.0617709 0.313606 0.0103123)
(-0.112011 0.246493 0.000274239)
(-0.146302 0.170625 -0.0116817)
(-0.156911 0.0946712 -0.0213034)
(-0.148977 0.0262356 -0.0317211)
(-0.134606 -0.0380322 -0.038778)
(-0.111337 -0.0970988 -0.0386913)
(-0.0795949 -0.146998 -0.0362491)
(-0.032505 -0.186544 -0.0366353)
(0.00955688 -0.21821 -0.0330056)
(0.0404838 -0.245647 -0.0260458)
(0.0685086 -0.267241 -0.0177471)
(0.0947586 -0.286732 -0.0109296)
(0.123641 -0.302208 -0.00639699)
(0.142921 -0.308283 -0.00153797)
(0.143123 -0.305744 -0.000600043)
(0.130076 -0.30802 0.000729396)
(0.103224 -0.315729 0.00316479)
(0.0696606 -0.339672 0.00796259)
(0.0286778 -0.37514 0.0129409)
(-0.0125949 -0.444992 0.0151971)
(-0.0737335 -0.531332 0.0113239)
(-0.152469 -0.646833 0.00729886)
(-0.227748 -0.762826 0.00166381)
(-0.272185 -0.882194 -0.00912524)
(-0.251928 -0.932338 -0.0262344)
(-0.159816 -0.880142 -0.0389385)
(-0.0538452 -0.583866 -0.0452144)
(-0.00254988 -0.194104 0.027871)
(-0.00702755 0.216125 0.0121293)
(0.0152675 0.438709 -0.0191598)
(0.0725096 0.565668 -0.0301341)
(0.144779 0.623025 -0.0265655)
(0.209781 0.629739 -0.0163322)
(0.259128 0.609049 -0.00101696)
(0.278784 0.566181 0.0115007)
(0.242803 0.511898 0.0160878)
(0.168349 0.462037 0.0168352)
(0.0748617 0.412841 0.0161036)
(-0.0121315 0.366111 0.0167327)
(-0.0819 0.314153 0.0142483)
(-0.140138 0.253985 0.00529388)
(-0.174996 0.186342 -0.00804164)
(-0.18532 0.119064 -0.0239591)
(-0.178308 0.0479248 -0.0370677)
(-0.158873 -0.0214978 -0.0489031)
(-0.128686 -0.0790454 -0.0537092)
(-0.0898816 -0.130698 -0.0530626)
(-0.0358293 -0.175039 -0.0481616)
(0.0133637 -0.212618 -0.0427047)
(0.0529025 -0.240084 -0.0357638)
(0.0875815 -0.257266 -0.0299297)
(0.118868 -0.267284 -0.025425)
(0.156207 -0.270039 -0.0209058)
(0.187241 -0.271585 -0.0125091)
(0.191055 -0.264271 -0.00487645)
(0.175568 -0.258902 -0.00186064)
(0.142129 -0.255205 -0.000947005)
(0.0974295 -0.266125 0.00589479)
(0.036484 -0.285221 0.0148596)
(-0.0301621 -0.343769 0.0224359)
(-0.102476 -0.423119 0.0287462)
(-0.167122 -0.554743 0.0306615)
(-0.21477 -0.715974 0.0249559)
(-0.248508 -0.892019 0.0159144)
(-0.237559 -1.01207 -0.00164158)
(-0.163761 -1.02727 -0.0248427)
(-0.0270153 -0.806622 -0.0400198)
(0.0319674 -0.34811 -0.00398646)
(-0.00472729 0.193072 0.0110789)
(0.0198283 0.392858 -0.0115772)
(0.0747956 0.523239 -0.0223258)
(0.141047 0.586564 -0.0200795)
(0.20309 0.60312 -0.00935265)
(0.249537 0.587581 0.00522235)
(0.263519 0.549457 0.0174346)
(0.225862 0.496952 0.0235235)
(0.152621 0.445223 0.0251209)
(0.0627669 0.395356 0.0252692)
(-0.0225297 0.352687 0.0231951)
(-0.0958959 0.310697 0.0182513)
(-0.159216 0.261266 0.0103507)
(-0.198449 0.206629 -0.00403761)
(-0.211586 0.14217 -0.0196646)
(-0.205901 0.0744838 -0.0378249)
(-0.179156 0.00749222 -0.0515908)
(-0.140933 -0.0523548 -0.064821)
(-0.0997862 -0.101621 -0.0649013)
(-0.0423731 -0.147947 -0.0593377)
(0.013502 -0.189921 -0.0511133)
(0.0628747 -0.221887 -0.0437162)