/*--------------------------------*- C++ -*----------------------------------*\
| =========                 |                                                 |
| \\      /  F ield         | OpenFOAM: The Open Source CFD Toolbox           |
|  \\    /   O peration     | Version:  v1806                                 |
|   \\  /    A nd           | Web:      www.OpenFOAM.com                      |
|    \\/     M anipulation  |                                                 |
\*---------------------------------------------------------------------------*/
FoamFile
{
    version     2.0;
    format      ascii;
    class       volVectorField;
    location    "0.1385";
    object      U;
}
// * * * * * * * * * * * * * * * * * * * * * * * * * * * * * * * * * * * * * //

dimensions      [0 1 -1 0 0 0 0];


internalField   nonuniform List<vector> 
64000
(
(-0.0175535 -0.00239858 -0.0109691)
(-0.00035062 -0.00195633 -0.0103271)
(-0.00230926 0.0066782 -0.0016482)
(-0.00568704 0.00764501 -0.000863041)
(-0.0114378 0.00719761 -0.00119717)
(-0.0172635 0.00634798 -0.00126134)
(-0.0246234 0.00495385 -0.00159414)
(-0.0355003 0.00451028 -0.00026071)
(-0.0468051 0.00303368 0.000183518)
(-0.0604408 0.00168819 0.000490634)
(-0.0724903 -0.00114873 0.000984798)
(-0.0894719 -0.00463274 0.00108852)
(-0.105312 -0.00919682 0.000630005)
(-0.128783 -0.0134107 0.000193848)
(-0.14789 -0.0136323 8.07503e-05)
(-0.182423 -0.0107562 -0.000423504)
(-0.1977 -0.00312384 -0.00139415)
(-0.231508 -0.0102906 -0.00505287)
(-0.21642 -0.0142422 0.00284733)
(-0.274287 -0.0338468 -0.0216455)
(-0.212889 -0.0161664 -0.0118911)
(-0.119277 -0.0209462 -0.0330378)
(-0.146341 -0.00388281 -0.0175816)
(-0.140456 -0.00467315 -0.0364576)
(-0.163073 0.0018914 -0.0465347)
(-0.147521 0.00970217 -0.0574886)
(-0.131813 0.0207223 -0.0613989)
(-0.0862867 0.0323837 -0.0583159)
(-0.0487495 0.0387859 -0.0555065)
(0.00151084 0.0533971 -0.038996)
(0.050868 0.0456267 -0.0362839)
(0.0932152 0.0393612 -0.0262806)
(0.111051 0.0282708 -0.0138612)
(0.113037 0.0142573 -0.0064784)
(0.0990788 0.00584984 0.00272507)
(0.0791119 -0.00130072 0.00342325)
(0.0598909 -0.00529842 0.0062304)
(0.0381715 -0.00487511 0.00668715)
(0.0210673 -0.00314349 0.00602393)
(0.00418072 -0.00166413 0.00390028)
(-0.0148406 0.0375359 -0.00837455)
(-0.00976583 0.0180013 -0.00774426)
(-0.0039302 0.0222779 -0.0039649)
(-0.00227306 0.0237452 -0.00309985)
(-0.00334333 0.0258016 -0.00383976)
(-0.00797689 0.0271793 -0.00460631)
(-0.0156869 0.030122 -0.00633357)
(-0.0306852 0.0314247 -0.00617196)
(-0.0496087 0.0335505 -0.0076439)
(-0.0758575 0.0350013 -0.00823611)
(-0.105059 0.0400781 -0.00485924)
(-0.14465 0.047179 -0.00335927)
(-0.187397 0.0572716 -0.00718656)
(-0.238053 0.0638892 -0.00976964)
(-0.284913 0.0734939 -0.0162246)
(-0.349508 0.0775981 -0.0271446)
(-0.417557 0.0829306 -0.047957)
(-0.499939 0.0801856 -0.0631892)
(-0.53082 0.086784 -0.0803574)
(-0.603804 0.0860247 -0.0940774)
(-0.512739 0.124428 -0.0829561)
(-0.399829 0.14399 -0.122212)
(-0.411811 0.188548 -0.124402)
(-0.392068 0.205543 -0.140791)
(-0.38677 0.228615 -0.152763)
(-0.337934 0.249188 -0.161223)
(-0.286929 0.270702 -0.162954)
(-0.207888 0.286664 -0.152698)
(-0.13007 0.293875 -0.13247)
(-0.0563428 0.299145 -0.110882)
(0.011374 0.285355 -0.0708718)
(0.08455 0.253903 -0.0495259)
(0.119732 0.203183 -0.0388001)
(0.138213 0.154285 -0.0260379)
(0.133703 0.106122 -0.0111017)
(0.112495 0.0678547 -0.00427493)
(0.0911905 0.0411321 0.000306337)
(0.0644159 0.0270975 0.00139049)
(0.0387111 0.0181673 0.00220383)
(0.00997798 0.0112373 0.0026866)
(-0.00615306 0.0567558 -0.00107666)
(-0.00395598 0.0383191 -0.00454313)
(2.11222e-05 0.0404169 -0.00539598)
(0.00230109 0.0468868 -0.00607507)
(-3.06521e-05 0.0554532 -0.00711587)
(-0.00639799 0.0655396 -0.00831596)
(-0.0202892 0.0772931 -0.0097682)
(-0.044817 0.0890972 -0.0067194)
(-0.0750804 0.104264 -0.00510789)
(-0.112861 0.122489 -0.00858781)
(-0.153059 0.144554 -0.0115372)
(-0.206966 0.166278 -0.0181478)
(-0.271489 0.192598 -0.026489)
(-0.351598 0.214366 -0.0340754)
(-0.428907 0.227102 -0.039891)
(-0.521321 0.230445 -0.0476959)
(-0.590318 0.239856 -0.0658459)
(-0.663375 0.25397 -0.085875)
(-0.68938 0.284993 -0.103766)
(-0.747509 0.320407 -0.114529)
(-0.634769 0.356666 -0.0944493)
(-0.496944 0.402794 -0.123804)
(-0.4904 0.453025 -0.115975)
(-0.457585 0.480289 -0.120205)
(-0.443838 0.509896 -0.125162)
(-0.388852 0.528602 -0.125666)
(-0.337703 0.542221 -0.120971)
(-0.262694 0.543188 -0.105693)
(-0.196042 0.534275 -0.0832674)
(-0.124487 0.51137 -0.0598766)
(-0.0683172 0.486018 -0.0398095)
(-0.0225343 0.434439 -0.0281035)
(0.015939 0.365323 -0.0121583)
(0.0484898 0.292903 -0.00961911)
(0.0600104 0.219667 -0.0102787)
(0.0636484 0.158057 -0.00982027)
(0.0626137 0.11168 -0.00517839)
(0.0501189 0.0802304 -0.003124)
(0.0350521 0.0555729 -3.1652e-05)
(0.0108991 0.0319791 0.00215737)
(-0.00472292 0.0758059 -0.00134874)
(-0.00296265 0.0607588 -0.00587771)
(0.00161096 0.0679145 -0.00894241)
(0.00181858 0.0834062 -0.00945004)
(-0.00239937 0.102723 -0.010767)
(-0.0135505 0.126162 -0.00978563)
(-0.0342995 0.154103 -0.0097039)
(-0.0667316 0.184167 -0.010165)
(-0.106148 0.215321 -0.0138852)
(-0.156537 0.249203 -0.0185862)
(-0.215704 0.282466 -0.0240153)
(-0.285087 0.312997 -0.0277829)
(-0.360379 0.334158 -0.031484)
(-0.448714 0.348498 -0.0326045)
(-0.52531 0.360882 -0.0361776)
(-0.598147 0.375792 -0.0426229)
(-0.653041 0.401246 -0.0599204)
(-0.713362 0.424526 -0.0710646)
(-0.726046 0.468898 -0.0819937)
(-0.772848 0.512778 -0.0772596)
(-0.640355 0.537475 -0.0333567)
(-0.482259 0.577258 -0.0463096)
(-0.467257 0.608498 -0.0308648)
(-0.432601 0.612136 -0.0281257)
(-0.419856 0.623583 -0.0271338)
(-0.373481 0.620229 -0.0240891)
(-0.333285 0.611521 -0.0202496)
(-0.274883 0.589365 -0.012306)
(-0.2249 0.561794 -0.000997157)
(-0.173178 0.525878 0.00578182)
(-0.140016 0.483842 0.0105644)
(-0.107497 0.439082 0.00896429)
(-0.0821771 0.387408 0.00319156)
(-0.0505908 0.325052 -0.00386368)
(-0.0237431 0.259328 -0.00763028)
(-0.00146659 0.19807 -0.00752829)
(0.0195407 0.147723 -0.00878685)
(0.026096 0.116453 -0.00640112)
(0.025836 0.0819208 -0.00237633)
(0.00962777 0.0462772 0.0015048)
(-0.00462694 0.102301 -0.00478034)
(-0.00129704 0.0941805 -0.0116208)
(0.00710107 0.10826 -0.0141465)
(0.0075815 0.135673 -0.013854)
(0.000700207 0.167718 -0.015157)
(-0.0124734 0.206231 -0.0152687)
(-0.0393604 0.255416 -0.0144668)
(-0.0837896 0.302495 -0.0113987)
(-0.134389 0.345382 -0.0125657)
(-0.19181 0.388585 -0.015381)
(-0.254025 0.422608 -0.0183498)
(-0.330406 0.443363 -0.0207849)
(-0.409938 0.45648 -0.0222593)
(-0.485867 0.46966 -0.0245721)
(-0.545244 0.490842 -0.0258241)
(-0.607499 0.51475 -0.0287753)
(-0.649456 0.539519 -0.0338992)
(-0.690369 0.561137 -0.0330281)
(-0.681554 0.610196 -0.0273289)
(-0.714489 0.651738 -0.0264284)
(-0.576312 0.669313 0.0210604)
(-0.409859 0.684967 0.020006)
(-0.39562 0.684516 0.0383173)
(-0.36968 0.65145 0.0384705)
(-0.370799 0.635693 0.0379271)
(-0.342901 0.60648 0.0416563)
(-0.32234 0.576384 0.0437447)
(-0.282237 0.537223 0.0479423)
(-0.253289 0.4972 0.040212)
(-0.220435 0.454281 0.0306166)
(-0.196648 0.408974 0.0197174)
(-0.176705 0.373442 0.0115531)
(-0.163349 0.337567 0.00580037)
(-0.139921 0.307892 -0.00546861)
(-0.112542 0.267677 -0.0128375)
(-0.0754981 0.205121 -0.0138214)
(-0.0271092 0.16208 -0.0124295)
(-0.00138713 0.13617 -0.0116691)
(0.0111639 0.102584 -0.00338841)
(0.00825847 0.0566073 0.00158757)
(-0.00574065 0.128698 -0.00977511)
(-0.000780115 0.135874 -0.0173706)
(0.0136634 0.16603 -0.0173523)
(0.0150411 0.208645 -0.019129)
(0.00659159 0.256206 -0.0200397)
(-0.0045167 0.313026 -0.0158038)
(-0.0342224 0.372988 -0.0140427)
(-0.0891869 0.428269 -0.00823122)
(-0.145226 0.472581 -0.00647569)
(-0.209735 0.501772 -0.0106215)
(-0.288135 0.520132 -0.0133354)
(-0.363632 0.532087 -0.0139478)
(-0.425087 0.547153 -0.0128082)
(-0.481832 0.564989 -0.0107546)
(-0.522095 0.58288 -0.00659624)
(-0.566691 0.598655 -0.00462016)
(-0.591933 0.620321 -0.00260927)
(-0.611182 0.644141 0.000682493)
(-0.590699 0.692116 0.00192314)
(-0.60483 0.715573 0.0120074)
(-0.468802 0.713502 0.056682)
(-0.322815 0.681468 0.0590168)
(-0.327435 0.648347 0.0786298)
(-0.320721 0.582798 0.0818058)
(-0.334084 0.547634 0.0816263)
(-0.324392 0.503819 0.0786234)
(-0.318187 0.467476 0.074891)
(-0.297805 0.42604 0.0657566)
(-0.281416 0.383425 0.0586777)
(-0.263968 0.344659 0.0390208)
(-0.251173 0.304111 0.0253438)
(-0.231007 0.27194 0.0115741)
(-0.212214 0.247026 -0.000384609)
(-0.189068 0.235694 -0.00740914)
(-0.183461 0.221073 -0.0187409)
(-0.144549 0.186834 -0.0150125)
(-0.0643981 0.155976 -0.013362)
(-0.0186619 0.137918 -0.0125193)
(0.00413332 0.110733 -0.00576752)
(0.00537336 0.0608932 0.00283181)
(-0.000586276 0.131179 -0.00896829)
(0.0154356 0.153323 -0.0192589)
(0.0365091 0.199156 -0.0233716)
(0.0385397 0.260064 -0.025762)
(0.0317589 0.326263 -0.0267512)
(0.0168462 0.397313 -0.0210767)
(-0.0225745 0.453567 -0.0126873)
(-0.088316 0.489651 -0.00304208)
(-0.163593 0.523518 -0.00720074)
(-0.23536 0.543697 -0.00928811)
(-0.295735 0.56518 -0.00942095)
(-0.351496 0.589627 -0.00758034)
(-0.398954 0.613142 -0.00389126)
(-0.442842 0.630598 0.000508522)
(-0.474109 0.646164 0.00560554)
(-0.500733 0.653267 0.00949051)
(-0.502026 0.667478 0.0170988)
(-0.505303 0.672734 0.0186415)
(-0.479421 0.690386 0.0186849)
(-0.49412 0.690271 0.020353)
(-0.400707 0.666796 0.0556938)
(-0.273334 0.569655 0.0624219)
(-0.278229 0.527236 0.0772783)
(-0.283875 0.457771 0.081141)
(-0.308118 0.426965 0.0798877)
(-0.3144 0.389252 0.0778849)
(-0.32325 0.363572 0.0726551)
(-0.32067 0.332377 0.0618603)
(-0.317716 0.302688 0.044763)
(-0.312009 0.270235 0.0271901)
(-0.305349 0.241168 0.0103477)
(-0.289399 0.217476 -0.00236331)
(-0.268393 0.198913 -0.0104597)
(-0.239467 0.188883 -0.0148623)
(-0.224299 0.1907 -0.0201822)
(-0.184175 0.187439 -0.0210002)
(-0.0955552 0.166107 -0.0188214)
(-0.0294863 0.148005 -0.016726)
(0.00112092 0.121571 -0.00932352)
(0.00629541 0.0687007 0.00185395)
(0.00192503 0.134303 -0.00928658)
(0.028097 0.165911 -0.0200249)
(0.0643468 0.214631 -0.021875)
(0.0740859 0.279732 -0.0187531)
(0.0669609 0.341563 -0.0223917)
(0.036247 0.417412 -0.0122178)
(-0.0276221 0.450986 -0.000128702)
(-0.0966 0.488716 -0.00140112)
(-0.156086 0.52512 -0.00321352)
(-0.213864 0.560347 -0.00303369)
(-0.266534 0.593264 -0.00217645)
(-0.314829 0.617519 0.000910362)
(-0.353729 0.634919 0.00742567)
(-0.385694 0.645414 0.0132046)
(-0.40484 0.651321 0.0173091)
(-0.42193 0.645928 0.0227357)
(-0.420343 0.639147 0.0260452)
(-0.419071 0.613002 0.025196)
(-0.400516 0.59589 0.0189698)
(-0.415391 0.557148 0.0116003)
(-0.369803 0.539449 0.0323749)
(-0.262597 0.412497 0.0434098)
(-0.251286 0.385671 0.0527101)
(-0.266106 0.331306 0.0612258)
(-0.29535 0.315113 0.062574)
(-0.314919 0.289782 0.0646825)
(-0.33211 0.275906 0.062242)
(-0.34172 0.255763 0.0503275)
(-0.351674 0.236342 0.0339757)
(-0.35534 0.212052 0.0124149)
(-0.349894 0.189336 0.00252657)
(-0.332376 0.171607 -0.0101789)
(-0.311671 0.162284 -0.0168891)
(-0.275211 0.159453 -0.0210595)
(-0.257817 0.166694 -0.0248206)
(-0.221036 0.189747 -0.0225664)
(-0.128232 0.172494 -0.0208387)
(-0.0449454 0.157469 -0.0156025)
(-0.000574015 0.13118 -0.0100833)
(0.00594638 0.0749366 0.00259848)
(0.00328063 0.155101 -0.0104367)
(0.0364551 0.198551 -0.0233434)
(0.0849661 0.252339 -0.0235378)
(0.0971041 0.311408 -0.0164208)
(0.0981747 0.371316 -0.0171104)
(0.0540542 0.432618 -0.00786056)
(-0.0119155 0.458598 0.00378378)
(-0.0637946 0.507001 0.00187161)
(-0.12725 0.548791 0.00319832)
(-0.179448 0.582984 0.00474246)
(-0.227648 0.605983 0.00779841)
(-0.270171 0.617931 0.0111689)
(-0.299926 0.62397 0.0197086)
(-0.325512 0.618241 0.0225986)
(-0.344324 0.602577 0.0248468)
(-0.359066 0.572395 0.0256379)
(-0.361565 0.540718 0.0248628)
(-0.366122 0.492955 0.0195915)
(-0.363722 0.452656 0.0110988)
(-0.37286 0.39702 -0.000825571)
(-0.372492 0.384247 0.00345869)
(-0.283851 0.282226 0.0228366)
(-0.238791 0.268159 0.0268309)
(-0.260501 0.236602 0.0395616)
(-0.289103 0.232441 0.0443348)
(-0.317949 0.218435 0.0526942)
(-0.340452 0.212024 0.0525076)
(-0.36153 0.199403 0.041628)
(-0.379685 0.184109 0.0249715)
(-0.38801 0.165523 0.00756478)
(-0.384601 0.150245 -0.00114655)
(-0.36822 0.136709 -0.00140874)
(-0.346677 0.128209 -0.0102341)
(-0.312752 0.13358 -0.0201134)
(-0.273149 0.142459 -0.0292984)
(-0.240084 0.178971 -0.0295143)
(-0.159053 0.181135 -0.0233364)
(-0.0549147 0.170544 -0.0211929)
(-0.00228971 0.141904 -0.0125597)
(0.00725044 0.0843414 0.00103114)
(0.00184213 0.18025 -0.0109694)
(0.0436781 0.239179 -0.0245115)
(0.105497 0.301554 -0.0247105)
(0.129502 0.35682 -0.0159904)
(0.126823 0.421591 -0.0165515)
(0.0712733 0.455663 -0.00624608)
(0.00866263 0.494803 0.00691099)
(-0.0335388 0.525006 0.00755163)
(-0.0908195 0.563601 0.0106588)
(-0.141664 0.586503 0.0169905)
(-0.188517 0.600304 0.017046)
(-0.22675 0.601185 0.0258053)
(-0.255891 0.589436 0.0308494)
(-0.283197 0.559487 0.0331925)
(-0.304551 0.521485 0.0315164)
(-0.323707 0.470198 0.0282686)
(-0.334654 0.419401 0.0226487)
(-0.345353 0.358936 0.0146105)
(-0.352231 0.310161 0.00578126)
(-0.359109 0.258034 -0.00560925)
(-0.375081 0.24185 -0.00957075)
(-0.296123 0.194976 0.00761847)
(-0.232025 0.186228 0.010652)
(-0.253843 0.171455 0.0243485)
(-0.278563 0.169988 0.0331762)
(-0.31319 0.161881 0.0453132)
(-0.337991 0.159023 0.0473026)
(-0.366288 0.149305 0.0382888)
(-0.388059 0.139056 0.024757)
(-0.396978 0.123433 0.0211511)
(-0.400835 0.106279 0.0168825)
(-0.391283 0.0929223 0.0142894)
(-0.369982 0.0821524 0.0109863)
(-0.335216 0.0893222 0.00227244)
(-0.295784 0.105117 -0.0119076)
(-0.256533 0.145904 -0.0280007)
(-0.178249 0.17668 -0.024752)
(-0.0755493 0.174001 -0.0183885)
(-0.00605617 0.15213 -0.0118311)
(0.00873964 0.0930873 0.00179414)
(0.00075525 0.207986 -0.010638)
(0.0524303 0.290466 -0.0268831)
(0.126916 0.355714 -0.0262504)
(0.159524 0.409002 -0.0172599)
(0.149571 0.460111 -0.014842)
(0.093134 0.483227 -0.00609884)
(0.0374754 0.523695 0.00827168)
(-0.00119485 0.544897 0.0181721)
(-0.0501892 0.570582 0.0191648)
(-0.105741 0.586188 0.0212158)
(-0.151646 0.586471 0.0302472)
(-0.190933 0.574447 0.0365443)
(-0.225759 0.546531 0.0395569)
(-0.257368 0.500517 0.0392551)
(-0.28562 0.445336 0.0348114)
(-0.310489 0.382743 0.0276036)
(-0.329471 0.322037 0.0186063)
(-0.346317 0.260284 0.00941246)
(-0.357118 0.213944 0.00186468)
(-0.360771 0.172622 -0.00853057)
(-0.37095 0.1552 -0.0134621)
(-0.290821 0.140724 -0.000842982)
(-0.22319 0.13304 0.00233606)
(-0.241372 0.12321 0.0156272)
(-0.261846 0.119853 0.0277958)
(-0.295911 0.114135 0.0400252)
(-0.322668 0.111945 0.0426786)
(-0.3511 0.104295 0.037213)
(-0.375741 0.0940129 0.0426756)
(-0.398735 0.0764177 0.0400083)
(-0.408399 0.0589202 0.0387746)
(-0.407704 0.0457746 0.029219)
(-0.389854 0.0413878 0.0239602)
(-0.356625 0.0456541 0.0156705)
(-0.30407 0.0634814 -0.000321448)
(-0.259707 0.104047 -0.0178796)
(-0.19122 0.154276 -0.0259227)
(-0.0834764 0.17335 -0.0195833)
(-0.00592883 0.156043 -0.0120614)
(0.00935831 0.100549 0.00126027)
(0.00261434 0.234041 -0.0103851)
(0.0604984 0.338772 -0.0299289)
(0.145282 0.406163 -0.0290678)
(0.18352 0.455086 -0.0163733)
(0.168189 0.488246 -0.00887898)
(0.11647 0.511658 -0.00346242)
(0.0672452 0.541653 0.0106587)
(0.02717 0.559857 0.0224149)
(-0.0172371 0.565871 0.0306541)
(-0.0703968 0.572897 0.0335541)
(-0.120357 0.566646 0.0371555)
(-0.165937 0.540254 0.0410336)
(-0.208118 0.499925 0.042608)
(-0.246834 0.444524 0.0397299)
(-0.281512 0.379593 0.0319792)
(-0.313425 0.310072 0.0223872)
(-0.338257 0.248102 0.0133372)
(-0.352999 0.192492 0.00576498)
(-0.360588 0.153735 -0.00112563)
(-0.361608 0.123482 -0.010159)
(-0.360699 0.105336 -0.0138498)
(-0.276071 0.103345 -0.00438176)
(-0.208827 0.0884438 -0.00279014)
(-0.217914 0.0769538 0.00976752)
(-0.231318 0.0665051 0.0208587)
(-0.26357 0.0625475 0.0324353)
(-0.286905 0.0604001 0.0375615)
(-0.318452 0.0551664 0.0501532)
(-0.349548 0.046553 0.0535607)
(-0.372633 0.0342439 0.0632201)
(-0.389425 0.0169494 0.0618543)
(-0.39674 -0.00155938 0.0517477)
(-0.396364 -0.0133773 0.0309254)
(-0.375421 -0.00795143 0.0215191)
(-0.332868 0.0122084 0.0230563)
(-0.27582 0.0559153 0.0108825)
(-0.196859 0.119561 -0.0223975)
(-0.0990168 0.164621 -0.0217926)
(-0.011471 0.161347 -0.0113895)
(0.0129035 0.11041 0.000607018)
(0.00332371 0.258418 -0.0076818)
(0.0674445 0.382918 -0.0296311)
(0.160698 0.453261 -0.0285475)
(0.200322 0.491131 -0.0123499)
(0.187059 0.511905 -0.00220169)
(0.142015 0.533677 0.00123524)
(0.0956822 0.552834 0.0166068)
(0.0509895 0.564258 0.0258404)
(0.0105441 0.564291 0.0369425)
(-0.0362093 0.558226 0.0447981)
(-0.0946396 0.543625 0.0447892)
(-0.14835 0.508035 0.0419625)
(-0.196878 0.456888 0.0387796)
(-0.247128 0.389741 0.0322299)
(-0.292456 0.320625 0.0262125)
(-0.32556 0.253804 0.0180485)
(-0.348361 0.196787 0.0096498)
(-0.359288 0.148294 0.00271238)
(-0.361448 0.112805 -0.0031681)
(-0.358497 0.0870091 -0.0106046)
(-0.341715 0.0681144 -0.0112669)
(-0.253243 0.0708018 -0.00515977)
(-0.19036 0.043189 -0.00472449)
(-0.190586 0.0323745 0.00539608)
(-0.194912 0.0205198 0.0151725)
(-0.215929 0.0168256 0.0251714)
(-0.236391 0.0150885 0.0421777)
(-0.264664 0.00907341 0.0500244)
(-0.294891 -0.000841384 0.0626512)
(-0.335132 -0.0167221 0.0568482)
(-0.373105 -0.0390498 0.0497537)
(-0.402387 -0.0626072 0.0417691)
(-0.404893 -0.0840518 0.0291651)
(-0.388142 -0.0890838 0.0088646)
(-0.342823 -0.0674599 -0.00299477)
(-0.286735 -0.0165858 0.00179833)
(-0.20783 0.065564 0.00578334)
(-0.100617 0.132986 -0.0260299)
(-0.0112021 0.153444 -0.0091655)
(0.0131898 0.11252 0.000714667)
(0.0041862 0.273523 -0.00457873)
(0.0707863 0.416209 -0.0286642)
(0.166255 0.487833 -0.0279043)
(0.208661 0.515077 -0.00962935)
(0.20356 0.529566 0.00486292)
(0.165327 0.545904 0.0134908)
(0.118873 0.556218 0.0196205)
(0.0759891 0.561785 0.0325482)
(0.0332963 0.560314 0.0431339)
(-0.0136175 0.539736 0.0527689)
(-0.0728233 0.515062 0.0473558)
(-0.139142 0.465783 0.0386265)
(-0.203329 0.400515 0.0297276)
(-0.259567 0.329719 0.0267528)
(-0.302631 0.268937 0.0227516)
(-0.335696 0.213673 0.015175)
(-0.357526 0.16307 0.00688155)
(-0.364348 0.118124 0.000880837)
(-0.359161 0.0843764 -0.00361138)
(-0.348245 0.0564715 -0.00872304)
(-0.313125 0.0303154 -0.00778273)
(-0.228312 0.0175472 -0.00695581)
(-0.167344 -0.0140863 -0.00767638)
(-0.14697 -0.0264266 -0.00479733)
(-0.144926 -0.0379679 0.00162768)
(-0.158894 -0.0401595 0.0205292)
(-0.175379 -0.0483136 0.0319586)
(-0.207163 -0.0549109 0.0438508)
(-0.246033 -0.0668069 0.0447728)
(-0.289963 -0.0846543 0.0453514)
(-0.337531 -0.10316 0.0414884)
(-0.375848 -0.124538 0.030807)
(-0.397977 -0.143461 0.0165378)
(-0.391227 -0.155857 0.00545073)
(-0.35725 -0.144393 -0.01147)
(-0.294943 -0.0989636 -0.0116643)
(-0.216402 -0.00493662 -0.00470758)
(-0.117808 0.0979456 -0.0115313)
(-0.0151414 0.146255 -0.0177046)
(0.0165158 0.121683 0.00200556)
(0.00545232 0.279963 0.000844647)
(0.0725642 0.437156 -0.024938)
(0.166225 0.510796 -0.0258542)
(0.214327 0.53301 -0.00639943)
(0.221167 0.540198 0.0121054)
(0.18667 0.548318 0.0252227)
(0.141616 0.556639 0.0329136)
(0.0996082 0.559688 0.037898)
(0.0505282 0.550821 0.0452739)
(0.000716314 0.52271 0.0554341)
(-0.0676871 0.48129 0.0466696)
(-0.148697 0.41622 0.0342228)
(-0.21377 0.34792 0.0294313)
(-0.262637 0.286423 0.0240113)
(-0.303439 0.232368 0.0193458)
(-0.340062 0.187216 0.0126834)
(-0.36364 0.145158 0.00526821)
(-0.366152 0.103975 0.0012743)
(-0.355203 0.0528306 -0.00210727)
(-0.342705 0.0164761 -0.0041224)
(-0.301568 -0.0151405 -0.00140339)
(-0.210908 -0.0497643 -0.00187455)
(-0.140331 -0.0804451 -0.0087588)
(-0.109593 -0.100234 -0.006567)
(-0.0959306 -0.116101 0.000919417)
(-0.104131 -0.119666 0.0076704)
(-0.118267 -0.121291 0.0206021)
(-0.140414 -0.126936 0.0287991)
(-0.176309 -0.131903 0.0345237)
(-0.226059 -0.139708 0.0365054)
(-0.279607 -0.15398 0.0333182)
(-0.33258 -0.175579 0.0263536)
(-0.370237 -0.200595 0.0149549)
(-0.38394 -0.220045 -0.000968961)
(-0.358804 -0.222839 -0.0153342)
(-0.30064 -0.182238 -0.0229936)
(-0.217667 -0.0978914 -0.0176269)
(-0.116594 0.0421348 0.00712599)
(-0.0177121 0.120668 -0.0161148)
(0.0158812 0.122224 0.000373619)
(0.00479075 0.274222 0.00393804)
(0.0685942 0.441637 -0.0232712)
(0.160305 0.520018 -0.025042)
(0.213256 0.543708 -0.00535181)
(0.231243 0.547221 0.0169106)
(0.210878 0.550089 0.0321448)
(0.17009 0.557692 0.0416194)
(0.120738 0.552658 0.0456427)
(0.0620179 0.534394 0.0458364)
(0.00106265 0.495307 0.049063)
(-0.0789414 0.43385 0.0429939)
(-0.161166 0.370893 0.0342307)
(-0.218887 0.309481 0.0283039)
(-0.266111 0.248124 0.0217561)
(-0.302918 0.192396 0.0146485)
(-0.336023 0.148822 0.00828024)
(-0.362191 0.122304 0.00282121)
(-0.381764 0.0657999 -0.000232551)
(-0.371772 0.00671252 0.00662184)
(-0.336039 -0.0384406 0.00427228)
(-0.291566 -0.0690978 0.000285247)
(-0.201387 -0.102405 -0.0106792)
(-0.119123 -0.137683 -0.013805)
(-0.0773954 -0.162972 -0.0134887)
(-0.0524645 -0.179703 -0.0100989)
(-0.042948 -0.186571 -0.00318239)
(-0.050317 -0.178848 0.00292914)
(-0.0730985 -0.175027 0.0145046)
(-0.103505 -0.17463 0.0228496)
(-0.148969 -0.182807 0.0276841)
(-0.207067 -0.192388 0.0291006)
(-0.268833 -0.213402 0.0260146)
(-0.32184 -0.240895 0.0162608)
(-0.354987 -0.272791 0.00227925)
(-0.350663 -0.288235 -0.0155748)
(-0.308633 -0.271409 -0.0281276)
(-0.222121 -0.187864 -0.0324424)
(-0.131555 -0.0429368 -0.0163387)
(-0.0284689 0.0893833 -0.0140505)
(0.0203263 0.119068 -0.00242301)
(0.00658285 0.2465 0.0110036)
(0.0680349 0.422953 -0.0155773)
(0.157266 0.508109 -0.0184967)
(0.21788 0.531529 0.00234775)
(0.248895 0.534068 0.0224492)
(0.238966 0.536436 0.0366312)
(0.196506 0.538121 0.0467408)
(0.137513 0.529428 0.0503365)
(0.0648904 0.508151 0.0495084)
(-0.0139796 0.466009 0.046422)
(-0.0928738 0.404542 0.0419206)
(-0.165098 0.34931 0.034002)
(-0.227053 0.288532 0.0272873)
(-0.275869 0.222703 0.0193928)
(-0.308276 0.160169 0.0103507)
(-0.324568 0.113718 0.00382799)
(-0.367302 0.0712122 -0.0031063)
(-0.403757 0.0131672 0.00986039)
(-0.378699 -0.0439115 0.0100162)
(-0.333324 -0.0909938 -0.00371166)
(-0.277055 -0.11376 -0.0123326)
(-0.188237 -0.137782 -0.0131381)
(-0.106032 -0.173448 -0.0171462)
(-0.053597 -0.20085 -0.0201285)
(-0.0165558 -0.225214 -0.0176939)
(0.0081186 -0.234707 -0.0124935)
(0.0151132 -0.231708 -0.00831697)
(-0.00131682 -0.21823 -0.000753943)
(-0.0340353 -0.204021 0.00888287)
(-0.0758498 -0.203432 0.019754)
(-0.12898 -0.212847 0.024428)
(-0.195016 -0.238878 0.0244715)
(-0.259049 -0.272863 0.0186102)
(-0.309828 -0.314423 0.00649351)
(-0.326402 -0.345618 -0.0093024)
(-0.298029 -0.346142 -0.0241035)
(-0.223622 -0.283758 -0.0357433)
(-0.129237 -0.143537 -0.0287509)
(-0.0271013 0.0446487 0.00331298)
(0.01367 0.112555 -0.00286392)
(0.00249624 0.230997 0.00983765)
(0.0571404 0.410598 -0.0138264)
(0.14447 0.501993 -0.0189428)
(0.215727 0.531379 0.00558741)
(0.267106 0.532283 0.0185075)
(0.271813 0.528807 0.0375981)
(0.231848 0.525866 0.0451909)
(0.164394 0.514385 0.0475419)
(0.0781761 0.492269 0.0457745)
(-0.0136656 0.441862 0.0425829)
(-0.0977722 0.388814 0.0377203)
(-0.173711 0.330861 0.0284304)
(-0.241717 0.268738 0.0216607)
(-0.295494 0.204731 0.0127497)
(-0.320168 0.145672 0.00466945)
(-0.340119 0.084198 -0.00524479)
(-0.38161 0.0156747 -0.00202733)
(-0.415869 -0.0282008 0.00698873)
(-0.393388 -0.0832396 -0.00835367)
(-0.321621 -0.126288 -0.0183699)
(-0.2529 -0.139566 -0.0192753)
(-0.174585 -0.156455 -0.0203667)
(-0.0954024 -0.183356 -0.0236418)
(-0.0408138 -0.204192 -0.0265499)
(0.0056907 -0.224395 -0.0227236)
(0.0489875 -0.237277 -0.0172349)
(0.0742587 -0.244831 -0.0132026)
(0.0754748 -0.244174 -0.00959826)
(0.0499649 -0.235147 -0.00610953)
(0.00218382 -0.226915 0.00216318)
(-0.0585548 -0.229766 0.0116278)
(-0.126187 -0.25046 0.0194496)
(-0.192271 -0.281626 0.0195717)
(-0.252593 -0.33328 0.0106981)
(-0.285893 -0.383775 -0.00605705)
(-0.284263 -0.414652 -0.0243002)
(-0.23107 -0.377317 -0.039612)
(-0.137809 -0.242286 -0.0362346)
(-0.03044 -0.03204 -0.0138282)
(0.0129498 0.098699 0.00308368)
(-0.00306916 0.195679 0.0130556)
(0.040583 0.391591 -0.00556393)
(0.128582 0.490859 -0.0084912)
(0.207861 0.523436 0.00243475)
(0.272092 0.522745 0.0162776)
(0.292658 0.518627 0.0355546)
(0.257444 0.528466 0.0439741)
(0.183608 0.530844 0.0475508)
(0.075087 0.520058 0.0441229)
(-0.0285065 0.477298 0.0536732)
(-0.109154 0.434199 0.0446526)
(-0.187279 0.377567 0.0306842)
(-0.255268 0.312864 0.023143)
(-0.304685 0.240049 0.0108001)
(-0.340001 0.162186 -0.00409243)
(-0.370627 0.0676691 -0.0114704)
(-0.398688 -0.00817628 -0.0100173)
(-0.422555 -0.0633877 -0.0166101)
(-0.39584 -0.107714 -0.0275445)
(-0.308267 -0.145027 -0.0295305)
(-0.226408 -0.160344 -0.0286292)
(-0.152317 -0.169659 -0.0281229)
(-0.0748087 -0.181057 -0.0294592)
(-0.0150364 -0.190804 -0.0304785)
(0.0327592 -0.195239 -0.0265618)
(0.0750665 -0.200111 -0.0212393)
(0.103911 -0.204121 -0.0144358)
(0.116326 -0.208977 -0.00843135)
(0.108306 -0.21338 -0.00403634)
(0.0775615 -0.222727 0.000155347)
(0.0244782 -0.241235 0.00475428)
(-0.0405803 -0.276917 0.0079075)
(-0.117783 -0.314918 0.00542169)
(-0.199144 -0.37642 -0.000867758)
(-0.256699 -0.447463 -0.0127421)
(-0.270643 -0.508783 -0.0280115)
(-0.223089 -0.500676 -0.0440234)
(-0.144246 -0.370278 -0.0473122)
(-0.0399871 -0.138488 -0.0170156)
(0.0106282 0.0707834 0.0167134)
(-0.00787012 0.294018 0.0103823)
(0.0271733 0.508637 -0.0101728)
(0.108981 0.618629 -0.00916184)
(0.193698 0.653825 -0.00209937)
(0.278182 0.654761 0.0169414)
(0.334183 0.645957 0.0357375)
(0.32008 0.647349 0.0416781)
(0.238751 0.638395 0.043884)
(0.108984 0.616234 0.039276)
(-0.0134459 0.576636 0.0518021)
(-0.108651 0.529375 0.0419503)
(-0.203944 0.460053 0.0221518)
(-0.287253 0.376953 0.0140058)
(-0.356067 0.280122 3.04472e-05)
(-0.406355 0.166241 -0.015239)
(-0.42768 0.0637631 -0.0266192)
(-0.431629 -0.0221195 -0.0276084)
(-0.435476 -0.0861056 -0.0365843)
(-0.39638 -0.126826 -0.0471118)
(-0.296639 -0.162296 -0.0449356)
(-0.201745 -0.17522 -0.0378372)
(-0.12141 -0.18182 -0.0358581)
(-0.0435364 -0.183091 -0.0372032)
(0.0182556 -0.181493 -0.0313117)
(0.0716621 -0.175633 -0.0237804)
(0.119513 -0.170127 -0.0188349)
(0.151724 -0.159947 -0.0144743)
(0.163661 -0.152433 -0.0101373)
(0.149879 -0.150444 -0.00667146)
(0.110512 -0.164342 0.000453922)
(0.0524441 -0.18924 0.0109209)
(-0.000198055 -0.247057 0.019349)
(-0.0611817 -0.325341 0.0163951)
(-0.146334 -0.416597 0.0076652)
(-0.221299 -0.508861 -0.004803)
(-0.260023 -0.600169 -0.0214116)
(-0.221965 -0.621898 -0.0367274)
(-0.151599 -0.535149 -0.0497163)
(-0.0434529 -0.244962 -0.020774)
(0.0183107 0.0377668 0.01758)
(-0.0234029 0.328441 -0.000769426)
(0.00356964 0.561919 -0.023073)
(0.094167 0.686682 -0.0253614)
(0.186934 0.742045 -0.0244561)
(0.283912 0.754646 -0.00544838)
(0.352093 0.739999 0.0125358)
(0.336475 0.708281 0.0223348)
(0.239513 0.667129 0.0321526)
(0.0993689 0.625985 0.0339003)
(-0.028641 0.580154 0.0493005)
(-0.138712 0.530279 0.0438428)
(-0.251662 0.458547 0.0262332)
(-0.346648 0.374769 0.0197381)
(-0.428074 0.274571 0.00386171)
(-0.470686 0.168966 -0.0138286)
(-0.475595 0.0671498 -0.0388695)
(-0.467516 -0.0224257 -0.0535134)
(-0.448152 -0.096428 -0.0609457)
(-0.39542 -0.141492 -0.0630356)
(-0.282683 -0.183281 -0.0573217)
(-0.174195 -0.197549 -0.0432941)
(-0.090288 -0.203654 -0.0416617)
(-0.00571781 -0.20348 -0.0416639)
(0.0614917 -0.191626 -0.0275735)
(0.115054 -0.176491 -0.0211315)
(0.165122 -0.166632 -0.018164)
(0.20182 -0.153998 -0.0119994)
(0.215627 -0.144117 -0.00375268)
(0.201192 -0.134585 4.00519e-05)
(0.166062 -0.135901 0.00340173)
(0.099557 -0.139351 0.013336)
(0.018537 -0.181073 0.0227938)
(-0.0520625 -0.254295 0.0310744)
(-0.1182 -0.368318 0.0267804)
(-0.190233 -0.522621 0.0180682)
(-0.236526 -0.679539 0.00185535)
(-0.224746 -0.75008 -0.0190665)
(-0.142159 -0.705636 -0.0295241)
(-0.0354961 -0.428358 -0.0355664)
(0.008877 -0.0298976 0.0313357)
(-0.00504821 0.252724 0.0201718)
(0.0243354 0.489494 -0.0117256)
(0.0949181 0.622938 -0.0187122)
(0.183233 0.689205 -0.0184303)
(0.27592 0.707535 -0.00357793)
(0.338785 0.689657 0.0137284)
(0.326447 0.644308 0.0281417)
(0.241305 0.600657 0.04146)
(0.104464 0.563732 0.0471993)
(-0.0287233 0.533446 0.0627207)
(-0.151579 0.491363 0.0613439)
(-0.279348 0.437241 0.0442665)
(-0.389079 0.372514 0.0346133)
(-0.478625 0.290429 0.0149946)
(-0.530643 0.205972 -0.0175138)
(-0.536692 0.102989 -0.0495982)
(-0.514385 0.00622905 -0.0841497)
(-0.476029 -0.0738983 -0.0897168)
(-0.407836 -0.134314 -0.0839005)
(-0.28046 -0.185769 -0.0773711)
(-0.152614 -0.209926 -0.053379)
(-0.0597105 -0.217461 -0.0485713)
(0.0352411 -0.218687 -0.0451039)
(0.112206 -0.201098 -0.0261681)
(0.164913 -0.183052 -0.0157797)
(0.212941 -0.174545 -0.0144746)
(0.249967 -0.164682 -0.00966749)
(0.266823 -0.159615 -0.00188639)
(0.254476 -0.152749 0.00477329)
(0.222285 -0.154507 0.0103888)
(0.153959 -0.15562 0.0156981)
(0.0722735 -0.177325 0.0305965)
(-0.0126616 -0.218324 0.040006)
(-0.132984 -0.294708 0.0381259)
(-0.23553 -0.427837 0.0435454)
(-0.263791 -0.62345 0.0366814)
(-0.236243 -0.757897 0.0174657)
(-0.167022 -0.779006 -0.0068997)
(-0.0317713 -0.562726 -0.0177417)
(0.032443 -0.103188 0.00137144)
(-0.00291391 0.216008 0.0268003)
(0.0310456 0.427004 -0.00105839)
(0.101061 0.557824 -0.00912746)
(0.184887 0.628592 -0.00684346)
(0.272093 0.652659 0.00580831)
(0.325073 0.632219 0.0238432)
(0.312769 0.585328 0.0401073)
(0.234246 0.537539 0.0548786)
(0.108144 0.49621 0.0641242)
(-0.0246755 0.473725 0.0767577)
(-0.159166 0.440273 0.078204)
(-0.293451 0.40439 0.0647657)
(-0.414232 0.360566 0.0547876)
(-0.513541 0.306634 0.0339561)
(-0.57634 0.241376 -0.00378535)
(-0.593027 0.161208 -0.0452996)
(-0.56297 0.0660973 -0.0874662)
(-0.509484 -0.0215845 -0.11091)
(-0.431441 -0.0966776 -0.105005)
(-0.286269 -0.157146 -0.10145)
(-0.13682 -0.195427 -0.0712107)
(-0.0318466 -0.219521 -0.0574795)
(0.0768452 -0.225655 -0.0465872)
(0.163402 -0.213401 -0.016521)
(0.209052 -0.198483 -0.00406485)
(0.252892 -0.190841 -0.00509334)
(0.289683 -0.179974 -0.00315265)