/*--------------------------------*- C++ -*----------------------------------*\
| =========                 |                                                 |
| \\      /  F ield         | OpenFOAM: The Open Source CFD Toolbox           |
|  \\    /   O peration     | Version:  v1806                                 |
|   \\  /    A nd           | Web:      www.OpenFOAM.com                      |
|    \\/     M anipulation  |                                                 |
\*---------------------------------------------------------------------------*/
FoamFile
{
    version     2.0;
    format      ascii;
    class       volVectorField;
    location    "0.003";
    object      U_0;
}
// * * * * * * * * * * * * * * * * * * * * * * * * * * * * * * * * * * * * * //

dimensions      [0 1 -1 0 0 0 0];


internalField   nonuniform List<vector> 
64000
(
(0.000692605 -0.000966854 0.000435091)
(0.00708066 -0.00255822 -0.00051913)
(0.0171777 -0.00277534 -0.00056826)
(0.0254902 -0.00252221 -0.000333776)
(0.0323046 -0.00216472 -0.000106612)
(0.0376467 -0.00214251 -0.000115681)
(0.0419455 -0.0024457 -0.00042731)
(0.0451241 -0.00261074 -0.000767529)
(0.0471701 -0.00246438 -0.000962244)
(0.0475016 -0.002225 -0.000983951)
(0.0451439 -0.0022148 -0.000777796)
(0.039063 -0.00249032 -0.000222942)
(0.0284945 -0.00331262 0.000754379)
(0.0118863 -0.00481283 0.00197999)
(-0.0102266 -0.00629824 0.00406875)
(-0.0377869 -0.00836507 0.00590971)
(-0.0712234 -0.00985705 0.00776108)
(-0.107051 -0.0103164 0.00887124)
(-0.143942 -0.0101967 0.00657552)
(-0.180941 -0.00858184 0.0016697)
(-0.214718 -0.00505232 -0.00559227)
(-0.242062 0.000431846 -0.015107)
(-0.260098 0.00760079 -0.0264876)
(-0.266281 0.0160226 -0.0391203)
(-0.25854 0.0250169 -0.0523347)
(-0.235833 0.0337386 -0.0650626)
(-0.198694 0.0412018 -0.0758296)
(-0.14952 0.0465164 -0.0827214)
(-0.0928416 0.048857 -0.0838629)
(-0.0347959 0.0477101 -0.0780611)
(0.0161621 0.042064 -0.0665412)
(0.050419 0.0365263 -0.0505309)
(0.0653443 0.027198 -0.0330664)
(0.0646343 0.0183539 -0.0179786)
(0.0540522 0.0110388 -0.00751464)
(0.0402959 0.00592306 -0.00177268)
(0.0273652 0.00296314 0.000568557)
(0.0169959 0.00168455 0.00100775)
(0.00784844 0.00122539 0.00104059)
(0.00155966 -3.41655e-05 0.00082429)
(0.00174959 -0.00517286 0.000601135)
(0.012648 -0.00972974 -0.00165144)
(0.0291316 -0.00937287 -0.00242519)
(0.0425195 -0.00685866 -0.00265256)
(0.0523449 -0.00383551 -0.00300962)
(0.0584804 -0.000761853 -0.00375987)
(0.061983 0.00215709 -0.00495225)
(0.0626459 0.00554619 -0.00654679)
(0.0592746 0.0097461 -0.00846203)
(0.0500463 0.0150497 -0.0103037)
(0.0333237 0.0207227 -0.0122123)
(0.00740012 0.027779 -0.014161)
(-0.0290365 0.0355919 -0.0162373)
(-0.0766054 0.0440698 -0.0186734)
(-0.134693 0.0543598 -0.0215257)
(-0.201357 0.0659013 -0.0254273)
(-0.273717 0.0801817 -0.0309728)
(-0.34728 0.0976561 -0.0389986)
(-0.417479 0.117385 -0.0504073)
(-0.479752 0.139797 -0.0651223)
(-0.529336 0.164498 -0.0826804)
(-0.562099 0.190425 -0.102171)
(-0.574854 0.216227 -0.122269)
(-0.56559 0.240294 -0.141455)
(-0.533525 0.260968 -0.158424)
(-0.479383 0.276446 -0.171438)
(-0.405969 0.285158 -0.17869)
(-0.317913 0.285702 -0.178425)
(-0.221972 0.277014 -0.169434)
(-0.127021 0.258637 -0.151664)
(-0.0390524 0.230668 -0.126475)
(0.0263111 0.19584 -0.100041)
(0.063298 0.157598 -0.0711444)
(0.0788944 0.120233 -0.0471121)
(0.075845 0.0871564 -0.0295435)
(0.0629465 0.0612498 -0.0185468)
(0.0470936 0.0432676 -0.0123959)
(0.0323651 0.0319519 -0.00893434)
(0.0179991 0.0239547 -0.00573807)
(0.00519857 0.0126538 -0.00203076)
(0.00198433 -0.0103886 7.24396e-05)
(0.0148109 -0.0167166 -0.00346805)
(0.0338452 -0.0137806 -0.00483929)
(0.0478831 -0.00635833 -0.00537363)
(0.0568374 0.00301621 -0.0061227)
(0.0605284 0.0133029 -0.0080161)
(0.0592739 0.0246894 -0.0108151)
(0.0525347 0.0378687 -0.0141295)
(0.0389534 0.0534379 -0.0184332)
(0.0158104 0.0721947 -0.0224008)
(-0.0179446 0.0944033 -0.0261217)
(-0.0633348 0.119836 -0.0302546)
(-0.121303 0.148253 -0.0340995)
(-0.189673 0.179135 -0.0377623)
(-0.265587 0.212523 -0.0416314)
(-0.345092 0.248092 -0.0462828)
(-0.423793 0.285982 -0.0521577)
(-0.497207 0.326014 -0.0594383)
(-0.561247 0.36744 -0.068043)
(-0.612424 0.409468 -0.0775659)
(-0.6479 0.450776 -0.0874357)
(-0.665544 0.489771 -0.0969724)
(-0.664164 0.524788 -0.105532)
(-0.643459 0.553572 -0.11271)
(-0.603851 0.573605 -0.117509)
(-0.547002 0.582573 -0.119306)
(-0.475743 0.578794 -0.117517)
(-0.394115 0.560942 -0.111872)
(-0.307148 0.528652 -0.102515)
(-0.220491 0.482842 -0.0900943)
(-0.139885 0.426602 -0.07588)
(-0.0729678 0.360274 -0.0614287)
(-0.023342 0.295425 -0.0474526)
(0.00886995 0.233909 -0.0359336)
(0.0251187 0.180185 -0.026871)
(0.0304958 0.13694 -0.0208002)
(0.0293438 0.104927 -0.016724)
(0.0249749 0.0824084 -0.0134226)
(0.0167723 0.0634492 -0.00885193)
(0.00562169 0.0355607 -0.00272271)
(0.00203988 -0.0131077 -0.00114537)
(0.0161532 -0.0186123 -0.00628726)
(0.0363917 -0.010849 -0.00817041)
(0.049698 0.00414153 -0.00874523)
(0.055841 0.0227463 -0.0102658)
(0.0547119 0.0435219 -0.0134202)
(0.0470824 0.0673616 -0.0178771)
(0.031973 0.0953493 -0.0229085)
(0.00803027 0.127549 -0.0278861)
(-0.0261977 0.164698 -0.032487)
(-0.0715458 0.206132 -0.0364817)
(-0.12723 0.249665 -0.0396306)
(-0.19127 0.294825 -0.0416459)
(-0.260619 0.34072 -0.0425191)
(-0.331825 0.386859 -0.0425104)
(-0.401361 0.432905 -0.0419937)
(-0.466072 0.478803 -0.0412056)
(-0.523144 0.524265 -0.040218)
(-0.570344 0.568634 -0.0389365)
(-0.606008 0.610735 -0.037142)
(-0.62877 0.648797 -0.0346774)
(-0.637521 0.681228 -0.0317468)
(-0.632274 0.707591 -0.0291479)
(-0.613767 0.725192 -0.0268439)
(-0.582443 0.730789 -0.0243225)
(-0.539541 0.723052 -0.0215518)
(-0.487118 0.700922 -0.0187171)
(-0.427936 0.664103 -0.0161784)
(-0.364732 0.613423 -0.0143933)
(-0.299968 0.551154 -0.0138457)
(-0.236394 0.482689 -0.0149817)
(-0.177344 0.410972 -0.0170226)
(-0.124925 0.342009 -0.0188774)
(-0.0806295 0.278962 -0.0199981)
(-0.0458286 0.22519 -0.0200211)
(-0.0203078 0.181824 -0.0193101)
(-0.00274734 0.148569 -0.0179193)
(0.00804781 0.122998 -0.015336)
(0.0108566 0.0975724 -0.0101066)
(0.00494293 0.0551603 -0.00258774)
(0.00221689 -0.0119324 -0.00347614)
(0.0179625 -0.0130598 -0.0108396)
(0.0400467 0.00248021 -0.0131131)
(0.052487 0.0274634 -0.0135691)
(0.0552652 0.0574703 -0.01541)
(0.0495489 0.0917455 -0.0193516)
(0.0365918 0.13093 -0.0244004)
(0.0152266 0.175316 -0.0294718)
(-0.0143995 0.224618 -0.0332793)
(-0.0526944 0.277181 -0.0363707)
(-0.0999245 0.331229 -0.0378989)
(-0.153494 0.384842 -0.0376869)
(-0.21095 0.436877 -0.0355839)
(-0.269569 0.486615 -0.0316142)
(-0.326845 0.533712 -0.0260233)
(-0.380522 0.577722 -0.0191304)
(-0.428877 0.6192 -0.0113439)
(-0.470512 0.657805 -0.00284175)
(-0.504606 0.692747 0.00651441)
(-0.530947 0.723251 0.0167082)
(-0.548941 0.74793 0.0274341)
(-0.556573 0.765537 0.0378045)
(-0.55443 0.774725 0.0442527)
(-0.54525 0.77404 0.0471455)
(-0.530134 0.762553 0.0486761)
(-0.508324 0.739386 0.048539)
(-0.481117 0.704145 0.0465156)
(-0.449524 0.657358 0.0424461)
(-0.413871 0.600701 0.0361693)
(-0.372108 0.537148 0.0279842)
(-0.324515 0.470784 0.0157379)
(-0.274525 0.405346 0.00313549)
(-0.221791 0.344571 -0.00762853)
(-0.168176 0.290724 -0.0154106)
(-0.117389 0.245365 -0.0197329)
(-0.0731643 0.208754 -0.0209912)
(-0.0375774 0.179758 -0.019988)
(-0.0114006 0.155024 -0.0167734)
(0.0035591 0.125492 -0.0107535)
(0.00395222 0.0716084 -0.00221746)
(0.00241526 -0.00526547 -0.00710794)
(0.0211854 0.0036421 -0.0173079)
(0.04674 0.0292479 -0.0197975)
(0.0590689 0.0649771 -0.0194833)
(0.059684 0.107182 -0.0208682)
(0.0511046 0.15512 -0.0243511)
(0.0353372 0.208375 -0.0283851)
(0.0127133 0.26567 -0.0315458)
(-0.0169 0.325822 -0.0332372)
(-0.0533374 0.385984 -0.0331921)
(-0.0953607 0.444103 -0.0312762)
(-0.140862 0.498074 -0.0272882)
(-0.187467 0.547226 -0.0211597)
(-0.233159 0.590922 -0.0130275)
(-0.276722 0.629312 -0.00305959)
(-0.316535 0.662195 0.00868344)
(-0.35165 0.689475 0.0203582)
(-0.382 0.710967 0.0313944)
(-0.407632 0.726778 0.0430899)
(-0.428892 0.736975 0.0550215)
(-0.44622 0.741658 0.0654887)
(-0.459069 0.740486 0.0737195)
(-0.467899 0.731559 0.078625)
(-0.473833 0.7152 0.0800415)
(-0.477509 0.692441 0.0787411)
(-0.478526 0.662769 0.0748356)
(-0.476639 0.626087 0.068367)
(-0.470791 0.582886 0.059424)
(-0.458766 0.534364 0.0480958)
(-0.437332 0.482527 0.0345224)
(-0.404597 0.42829 0.019948)
(-0.361432 0.375853 0.00524967)
(-0.30835 0.328201 -0.00836076)
(-0.247352 0.286875 -0.0187572)
(-0.183039 0.252552 -0.0248504)
(-0.121947 0.224675 -0.0264319)
(-0.069599 0.201499 -0.024355)
(-0.0295074 0.179117 -0.0195119)
(-0.00291103 0.14719 -0.0118375)
(0.00356611 0.0841739 -0.00243581)
(0.00391161 0.0104754 -0.0111143)
(0.0272002 0.0338825 -0.0251742)
(0.0572922 0.0699879 -0.0276285)
(0.0714114 0.11566 -0.0256346)
(0.0721376 0.168356 -0.0254665)
(0.0633566 0.227006 -0.0272151)
(0.0479506 0.289835 -0.0290143)
(0.026947 0.354129 -0.0293562)
(0.00119504 0.416921 -0.0278577)
(-0.0293879 0.475816 -0.0249912)
(-0.0644261 0.531422 -0.0203061)
(-0.101234 0.578055 -0.0135131)
(-0.137701 0.617571 -0.0046968)
(-0.172652 0.6486 0.00565688)
(-0.205582 0.671274 0.0174289)
(-0.236198 0.685873 0.0301361)
(-0.264366 0.692418 0.0424074)
(-0.289944 0.691716 0.0536036)
(-0.313392 0.685051 0.0634714)
(-0.335507 0.673638 0.0716597)
(-0.357032 0.659055 0.0776552)
(-0.378217 0.64211 0.0811417)
(-0.399309 0.62288 0.0819962)
(-0.420576 0.601692 0.0803328)
(-0.441931 0.578825 0.076496)
(-0.462548 0.553811 0.0706885)
(-0.480962 0.526039 0.0630523)
(-0.494681 0.495042 0.0536749)
(-0.500261 0.46073 0.0425599)
(-0.493947 0.423343 0.0301403)
(-0.472621 0.383628 0.0160362)
(-0.435251 0.344412 0.00266815)
(-0.382781 0.308947 -0.0110629)
(-0.316965 0.279159 -0.0226363)
(-0.242259 0.255452 -0.0302798)
(-0.166592 0.236379 -0.0327175)
(-0.0986899 0.219084 -0.0299918)
(-0.0454725 0.199216 -0.023444)
(-0.00855093 0.165968 -0.0140139)
(0.00311055 0.0948658 -0.00301604)
(0.00492191 0.0352347 -0.0159678)
(0.0339336 0.07666 -0.0337721)
(0.0716112 0.122817 -0.035581)
(0.0901599 0.175985 -0.0310315)
(0.09349 0.235437 -0.0282854)
(0.086874 0.299792 -0.0274534)
(0.0739851 0.366122 -0.0265099)
(0.0561539 0.430812 -0.024036)
(0.0340032 0.490634 -0.0197948)
(0.0106653 0.543046 -0.0139944)
(-0.0173109 0.58761 -0.00875994)
(-0.048125 0.622461 -0.000342858)
(-0.0773236 0.648772 0.0100094)
(-0.106445 0.662494 0.0212221)
(-0.134288 0.665326 0.0325993)
(-0.161153 0.658438 0.0433107)
(-0.187442 0.643686 0.0526165)
(-0.21337 0.623154 0.0599897)
(-0.239359 0.599141 0.0651956)
(-0.266028 0.573928 0.068273)
(-0.294104 0.549588 0.0693538)
(-0.324092 0.527405 0.0686999)
(-0.356126 0.507788 0.0666647)
(-0.389928 0.490468 0.0635684)
(-0.424722 0.474642 0.0595936)
(-0.459093 0.458963 0.0547916)
(-0.490884 0.442008 0.049098)
(-0.517113 0.42248 0.0423429)
(-0.534296 0.399594 0.0345327)
(-0.538703 0.373142 0.025371)
(-0.526742 0.34395 0.0144931)
(-0.495468 0.314034 0.00226666)
(-0.444829 0.28777 -0.0108625)
(-0.376769 0.267237 -0.0232411)
(-0.294971 0.253187 -0.0326496)
(-0.207755 0.2434 -0.0369638)
(-0.125898 0.233183 -0.0350293)
(-0.0601981 0.216824 -0.0276114)
(-0.0138724 0.18308 -0.0167546)
(0.00248854 0.105285 -0.00376687)
(0.00619776 0.0653241 -0.0202241)
(0.0420797 0.128842 -0.0417925)
(0.0893704 0.184031 -0.042609)
(0.114588 0.241311 -0.0349302)
(0.122474 0.302814 -0.0290262)
(0.119395 0.367351 -0.0252716)
(0.109796 0.431347 -0.0217178)
(0.0954241 0.490929 -0.0170724)
(0.0772649 0.54319 -0.011274)
(0.0565841 0.586229 -0.00479497)
(0.0328115 0.616466 0.00308958)
(0.00842483 0.637312 0.012291)
(-0.0181358 0.645535 0.020981)
(-0.0467095 0.641137 0.0310789)
(-0.0739128 0.625213 0.0400727)
(-0.101616 0.600115 0.0471748)
(-0.130038 0.569212 0.0519689)
(-0.159379 0.536001 0.0544423)
(-0.189951 0.503623 0.0549053)
(-0.222241 0.474477 0.0538795)
(-0.256829 0.450089 0.0519107)
(-0.294056 0.431019 0.0494964)
(-0.333804 0.416877 0.0470171)
(-0.375462 0.406494 0.044706)
(-0.417934 0.398164 0.0425696)
(-0.459686 0.389979 0.0404319)
(-0.498709 0.380179 0.0379804)
(-0.532424 0.367321 0.0347125)
(-0.557691 0.350528 0.0302709)
(-0.570783 0.329807 0.0240413)
(-0.567569 0.30629 0.015622)
(-0.543186 0.282365 0.005271)
(-0.496162 0.261444 -0.0079288)
(-0.427995 0.247613 -0.0210005)
(-0.341543 0.241969 -0.0320418)
(-0.245383 0.242101 -0.038489)
(-0.151614 0.241325 -0.0382459)
(-0.0743655 0.230946 -0.0310259)
(-0.0191076 0.198664 -0.0192989)
(0.00178623 0.115644 -0.00458555)
(0.00757857 0.098961 -0.0232883)
(0.0510831 0.186541 -0.0482338)
(0.109403 0.249187 -0.0479955)
(0.142804 0.30704 -0.0370408)
(0.156361 0.366027 -0.02786)
(0.157205 0.425795 -0.0212601)
(0.150592 0.482886 -0.0156259)
(0.138834 0.533586 -0.00966206)
(0.123102 0.575232 -0.00323637)
(0.104046 0.605717 0.00413299)
(0.0819785 0.623435 0.012086)
(0.0577693 0.628647 0.020436)
(0.0310283 0.61902 0.0284433)
(0.00192629 0.598586 0.0357493)
(-0.0284059 0.567928 0.0412465)
(-0.059774 0.530629 0.0442588)
(-0.0921408 0.491397 0.0447774)
(-0.125666 0.454159 0.0433569)
(-0.16066 0.421815 0.0407968)
(-0.19755 0.395901 0.0378811)
(-0.236654 0.376697 0.0352049)
(-0.277971 0.363507 0.0331461)
(-0.321131 0.35497 0.0318874)
(-0.36552 0.349371 0.0314376)
(-0.41036 0.344892 0.0316129)
(-0.454696 0.339799 0.0320595)
(-0.497259 0.332582 0.0322989)
(-0.536138 0.322012 0.0318316)
(-0.568452 0.30735 0.0298117)
(-0.590126 0.288659 0.0254882)
(-0.596046 0.267259 0.0183756)
(-0.58065 0.24581 0.00837191)
(-0.539958 0.227259 -0.00419835)
(-0.473275 0.21748 -0.0178496)
(-0.383818 0.218641 -0.0302516)
(-0.280082 0.228866 -0.03842)
(-0.175758 0.240055 -0.0398646)
(-0.0877981 0.239412 -0.0334489)
(-0.0241927 0.211765 -0.0213104)
(0.000954176 0.125416 -0.00540338)
(0.00889696 0.133104 -0.0247643)
(0.0601709 0.245368 -0.0524844)
(0.130071 0.313877 -0.0514094)
(0.172407 0.369288 -0.037433)
(0.19196 0.422054 -0.0250929)
(0.196443 0.473385 -0.0161705)
(0.192091 0.520562 -0.00908927)
(0.18184 0.560375 -0.00255678)
(0.166827 0.59007 0.00417924)
(0.147617 0.607664 0.0111734)
(0.124829 0.612182 0.0183951)
(0.0987974 0.603134 0.0255052)
(0.0695303 0.580729 0.031761)
(0.0373245 0.547775 0.0362718)
(0.00286639 0.507827 0.0383436)
(-0.0326073 0.464772 0.0379866)
(-0.0685504 0.424379 0.0355481)
(-0.105336 0.389485 0.0320873)
(-0.143195 0.361852 0.0285741)
(-0.182404 0.341581 0.0256995)
(-0.222987 0.327613 0.0238254)
(-0.264708 0.318334 0.0230554)
(-0.307261 0.312053 0.0233323)
(-0.35047 0.307256 0.0245005)
(-0.394292 0.302642 0.0263105)
(-0.438632 0.297051 0.0284073)
(-0.483034 0.289403 0.0303225)
(-0.526183 0.278695 0.031431)
(-0.565383 0.264177 0.0308552)
(-0.596238 0.245723 0.027693)
(-0.612834 0.224289 0.0214013)
(-0.608481 0.202478 0.0116813)
(-0.5766 0.184448 -0.000816188)
(-0.514368 0.175891 -0.0154877)
(-0.424141 0.181391 -0.0289172)
(-0.313861 0.201106 -0.0384258)
(-0.199025 0.226406 -0.041086)
(-0.100272 0.239913 -0.0353509)
(-0.0288572 0.221072 -0.0228745)
(6.215e-05 0.134245 -0.00627794)
(0.00992409 0.164879 -0.0246081)
(0.0684013 0.301159 -0.0543731)
(0.149591 0.374324 -0.052873)
(0.20099 0.425141 -0.0364088)
(0.226448 0.469146 -0.0213349)
(0.234011 0.5098 -0.0104607)
(0.23111 0.545364 -0.00252597)
(0.221199 0.573685 0.00390778)
(0.20551 0.591378 0.0101546)
(0.18491 0.59704 0.0163053)
(0.160005 0.589835 0.0224388)
(0.13098 0.569594 0.0280572)
(0.0981084 0.537633 0.0322776)
(0.0621292 0.497265 0.0342098)
(0.023594 0.453213 0.0334991)
(-0.0149605 0.410456 0.0312069)
(-0.0527937 0.373049 0.0273199)
(-0.0911664 0.343153 0.0234909)
(-0.129757 0.320856 0.0204796)
(-0.16869 0.304837 0.0186379)
(-0.207834 0.293229 0.0179895)
(-0.24703 0.284306 0.018394)
(-0.286367 0.276782 0.0196696)
(-0.326285 0.269787 0.0216511)
(-0.367457 0.262682 0.0241691)
(-0.410518 0.254835 0.026981)
(-0.455655 0.245479 0.0296804)
(-0.502085 0.233702 0.0316537)
(-0.547483 0.218586 0.0320296)
(-0.587525 0.199575 0.0298742)
(-0.615728 0.1771 0.0240832)
(-0.624089 0.153443 0.014377)
(-0.60451 0.133257 0.00115258)
(-0.551368 0.122913 -0.0142158)
(-0.463795 0.129876 -0.0288338)
(-0.348935 0.157134 -0.0395805)
(-0.223421 0.197746 -0.0429924)
(-0.112487 0.230162 -0.0376272)
(-0.0329818 0.225387 -0.0244041)
(-0.000753138 0.142017 -0.00731459)
(0.0104952 0.191806 -0.0229966)
(0.0749956 0.350386 -0.0540811)
(0.166399 0.427516 -0.0526742)
(0.226515 0.47271 -0.0343555)
(0.257646 0.506636 -0.0170969)
(0.267637 0.535713 -0.00478329)
(0.265619 0.559853 0.00373268)
(0.255346 0.576336 0.00943097)
(0.237986 0.583015 0.0146973)
(0.215364 0.57844 0.0198139)
(0.187793 0.561834 0.0247609)
(0.155435 0.533534 0.0288261)
(0.118879 0.495602 0.0311317)
(0.0794071 0.452028 0.0310542)
(0.0386791 0.407888 0.0287319)
(-0.00139022 0.368504 0.0251853)
(-0.0401088 0.335583 0.0213423)
(-0.078017 0.31038 0.018227)
(-0.115295 0.291499 0.0163269)
(-0.151879 0.276828 0.015636)
(-0.187668 0.264487 0.0159213)
(-0.222787 0.253274 0.0169423)
(-0.257765 0.242606 0.0185479)
(-0.293508 0.232243 0.0206795)
(-0.331152 0.222007 0.0233114)
(-0.3718 0.211572 0.0263446)
(-0.416173 0.20033 0.0294949)
(-0.464118 0.187344 0.0321933)
(-0.514 0.171444 0.0335953)
(-0.562002 0.151593 0.0324155)
(-0.601673 0.127592 0.0274656)
(-0.624237 0.100979 0.0179575)
(-0.619731 0.0760511 0.0040189)
(-0.579954 0.0616391 -0.0129046)
(-0.501232 0.0655084 -0.0293443)
(-0.386205 0.0964536 -0.0417434)
(-0.251206 0.151841 -0.046468)
(-0.126143 0.207568 -0.0407993)
(-0.0368452 0.223332 -0.0263375)
(-0.00132586 0.148674 -0.00855675)
(0.0105569 0.21214 -0.0202603)
(0.0794133 0.39037 -0.0517935)
(0.17943 0.471463 -0.0512244)
(0.247652 0.510887 -0.0317527)
(0.284256 0.534538 -0.0129383)
(0.296856 0.551971 0.000328222)
(0.294798 0.565001 0.00844197)
(0.283118 0.570765 0.013764)
(0.264198 0.568073 0.0181049)
(0.239501 0.555312 0.02215)
(0.209342 0.531812 0.0258302)
(0.173999 0.49834 0.0284673)
(0.134497 0.457545 0.029178)
(0.0927835 0.413776 0.0277331)
(0.0510707 0.371986 0.0246031)
(0.0109698 0.336133 0.0209163)
(-0.0269983 0.30738 0.0177521)
(-0.0631867 0.285068 0.0156846)
(-0.0979041 0.267082 0.0148344)
(-0.13111 0.251315 0.0149209)
(-0.162877 0.236446 0.0156133)
(-0.193596 0.221988 0.016713)
(-0.224058 0.207938 0.0181835)
(-0.25538 0.194411 0.0200997)
(-0.288885 0.181423 0.0225704)
(-0.325932 0.168749 0.025636)
(-0.367666 0.155841 0.0291574)
(-0.414633 0.141752 0.0326971)
(-0.466109 0.125135 0.0353236)
(-0.519279 0.104528 0.0357337)
(-0.568536 0.0789497 0.0323496)
(-0.605326 0.0491895 0.0238399)
(-0.617421 0.0192912 0.009933)
(-0.594995 -0.00411037 -0.00921494)
(-0.53142 -0.00763072 -0.028747)
(-0.42361 0.0209665 -0.0437528)
(-0.2833 0.0869699 -0.0503556)
(-0.143484 0.168933 -0.045123)
(-0.0410746 0.212841 -0.029071)
(-0.00141087 0.153883 -0.00993682)
(0.0100989 0.224916 -0.0168409)
(0.0815372 0.419376 -0.0478957)
(0.18811 0.504824 -0.048452)
(0.263533 0.53939 -0.0292962)
(0.305446 0.553466 -0.0093822)
(0.320628 0.55973 0.00481686)
(0.318647 0.562105 0.0125759)
(0.305509 0.558978 0.0172006)
(0.284946 0.548762 0.0205926)
(0.258392 0.529887 0.0235841)
(0.226116 0.501796 0.0260847)
(0.188579 0.465551 0.0274618)
(0.14722 0.424132 0.0270777)
(0.104507 0.381845 0.0248098)
(0.0629347 0.342982 0.0215102)
(0.0238755 0.310334 0.0182635)
(-0.0124055 0.284144 0.0159543)
(-0.0462827 0.26269 0.0147982)
(-0.0780976 0.243764 0.0146112)
(-0.107922 0.225757 0.0149876)
(-0.135981 0.208057 0.0156318)
(-0.162804 0.190733 0.0164553)
(-0.189252 0.174053 0.0175386)
(-0.216447 0.158207 0.0190515)
(-0.245699 0.14319 0.0211881)
(-0.278426 0.128762 0.0240917)
(-0.316025 0.114398 0.0277644)
(-0.359571 0.0991925 0.0319269)
(-0.409266 0.0818006 0.0358399)
(-0.463578 0.0604737 0.038221)
(-0.518145 0.0334341 0.0372473)
(-0.565035 0.000305843 0.0308322)
(-0.594775 -0.0363586 0.0173517)
(-0.59361 -0.0703263 -0.00169114)
(-0.548469 -0.0857991 -0.0242048)
(-0.455163 -0.0658928 -0.0435771)
(-0.317724 0.00335426 -0.053665)
(-0.165627 0.11055 -0.049864)
(-0.0462986 0.19073 -0.0325393)
(-0.000620791 0.156582 -0.0111817)
(0.00922844 0.229911 -0.0131816)
(0.0814588 0.436626 -0.0431006)
(0.192518 0.526917 -0.0450391)
(0.274115 0.558314 -0.0268485)
(0.32101 0.564334 -0.00643462)
(0.339046 0.560882 0.00870223)
(0.33758 0.553597 0.0159182)
(0.323207 0.542729 0.0198555)
(0.301244 0.526582 0.0223477)
(0.273254 0.503405 0.0243719)
(0.23954 0.472639 0.0258359)
(0.200741 0.435441 0.0262238)
(0.15864 0.394788 0.0250794)
(0.115968 0.354655 0.022565)
(0.0752841 0.318526 0.0194056)
(0.037802 0.288119 0.0167918)
(0.00347378 0.262945 0.0152047)
(-0.0281497 0.241 0.0146278)
(-0.0574118 0.220409 0.014686)
(-0.0844897 0.200209 0.0149817)
(-0.109676 0.180348 0.0153202)
(-0.133522 0.161154 0.0157233)
(-0.156841 0.142906 0.0163461)
(-0.18065 0.125678 0.0173977)
(-0.206132 0.10934 0.0190902)
(-0.234621 0.0935801 0.0216144)
(-0.26755 0.0778698 0.0250829)
(-0.306262 0.0613791 0.0293943)
(-0.351618 0.0428282 0.0340943)
(-0.403396 0.0203551 0.03813)
(-0.458945 -0.00809854 0.039832)
(-0.512433 -0.0444682 0.0367993)
(-0.554462 -0.0883084 0.0269002)
(-0.571362 -0.132162 0.00937834)
(-0.548126 -0.162754 -0.0142493)
(-0.474339 -0.157838 -0.0382612)
(-0.348203 -0.0952827 -0.0536253)
(-0.191195 0.0302632 -0.0536633)
(-0.0526719 0.153007 -0.0366329)
(0.00141836 0.154709 -0.0119187)
(0.0080972 0.227634 -0.00960969)
(0.0795313 0.442219 -0.0379214)
(0.193077 0.537737 -0.0413424)
(0.279842 0.567866 -0.0246109)
(0.331636 0.567826 -0.00433903)
(0.352592 0.556688 0.0111833)
(0.351901 0.540782 0.018312)
(0.336939 0.523264 0.0218157)
(0.314085 0.502465 0.0235568)
(0.285219 0.476442 0.0246913)
(0.250815 0.444467 0.0253041)
(0.211653 0.407571 0.0249831)
(0.16972 0.368477 0.0234113)
(0.127841 0.330587 0.0208541)
(0.08844 0.296644 0.0181219)
(0.0525425 0.26755 0.0160386)
(0.0199645 0.242423 0.0149382)
(-0.0098365 0.21948 0.0146032)
(-0.0372286 0.19738 0.0146129)
(-0.0624053 0.175688 0.0146476)
(-0.0856534 0.154654 0.0146221)
(-0.107485 0.134617 0.0146337)
(-0.128618 0.115711 0.0148612)
(-0.149928 0.0978317 0.0155001)
(-0.172434 0.0807075 0.0167383)
(-0.19731 0.0639424 0.0187649)
(-0.225877 0.046995 0.0217382)
(-0.259531 0.0290834 0.0257204)
(-0.299545 0.00901266 0.030522)
(-0.346359 -0.0149682 0.0355)
(-0.399072 -0.0451433 0.0391522)
(-0.45401 -0.0840873 0.039427)
(-0.503193 -0.132562 0.0337464)
(-0.534174 -0.186438 0.0200619)
(-0.531237 -0.233295 -0.00168177)
(-0.479245 -0.248801 -0.0275375)
(-0.369701 -0.202454 -0.0482166)
(-0.216483 -0.0712164 -0.0540358)
(-0.0600371 0.0951814 -0.0401209)
(0.0045482 0.144952 -0.011595)
(0.00685286 0.219075 -0.00630599)
(0.0761612 0.436947 -0.0326473)
(0.190373 0.537762 -0.0375866)
(0.28129 0.568499 -0.0228004)
(0.33797 0.564418 -0.00322388)
(0.361889 0.546868 0.0120281)
(0.362269 0.524287 0.0196654)
(0.347525 0.501366 0.0230724)
(0.324383 0.476973 0.02429)
(0.295246 0.449182 0.0247113)
(0.260853 0.417018 0.0246543)
(0.222106 0.381227 0.0238573)
(0.181023 0.344073 0.0221115)
(0.140353 0.308332 0.019672)
(0.102328 0.276034 0.0173303)
(0.0678023 0.24765 0.0156625)
(0.0365287 0.222245 0.0148162)
(0.00797048 0.198435 0.0145043)
(-0.018243 0.175397 0.014323)
(-0.0422883 0.153067 0.0140729)
(-0.0643859 0.131737 0.0137461)
(-0.0849885 0.111613 0.0134762)
(-0.104713 0.0926377 0.0134286)
(-0.124302 0.0745473 0.0137583)
(-0.144616 0.0569636 0.0146083)
(-0.166656 0.0394363 0.0161398)
(-0.19157 0.0214079 0.0185117)
(-0.220653 0.00211857 0.0218736)
(-0.255205 -0.0195471 0.0262313)
(-0.296311 -0.045241 0.0312203)
(-0.344184 -0.0774787 0.0359116)
(-0.396856 -0.118961 0.0385822)
(-0.448656 -0.171746 0.036747)
(-0.489078 -0.234324 0.0277822)
(-0.502777 -0.296912 0.0102835)
(-0.471928 -0.335665 -0.0139392)
(-0.381254 -0.312443 -0.0379814)
(-0.238135 -0.189582 -0.0490965)
(-0.0684038 0.0135115 -0.0409503)
(0.00786825 0.123534 -0.00952615)
(0.00561902 0.205449 -0.00342021)
(0.0717671 0.422062 -0.0275718)
(0.18499 0.527821 -0.0338872)
(0.278988 0.560805 -0.0213884)
(0.340222 0.554721 -0.00289176)
(0.367623 0.532351 0.0121532)
(0.369847 0.504779 0.0201977)
(0.35587 0.47758 0.0236986)
(0.332964 0.450432 0.0246199)
(0.304092 0.421597 0.0245345)
(0.270307 0.389895 0.0239868)
(0.232585 0.355669 0.022883)
(0.192838 0.320623 0.0211057)
(0.153593 0.286895 0.0189113)
(0.116864 0.255958 0.0168861)
(0.0834073 0.228073 0.0154765)
(0.0529877 0.20249 0.0147166)
(0.0251232 0.178268 0.0143123)
(-0.000478728 0.154959 0.0139311)
(-0.0239486 0.132692 0.0134465)
(-0.0454714 0.11168 0.0129152)
(-0.0654141 0.0919069 0.012475)
(-0.0843023 0.0731653 0.012262)
(-0.102772 0.0550774 0.0123852)
(-0.121553 0.0372048 0.0129415)
(-0.141489 0.0190992 0.0140412)
(-0.163548 0.000170654 0.0158277)
(-0.188838 -0.0203342 0.0184685)
(-0.218615 -0.0434999 0.0220727)
(-0.254185 -0.0710133 0.0265546)
(-0.296447 -0.105273 0.0314032)
(-0.344925 -0.149335 0.0353987)
(-0.39621 -0.206211 0.0364581)
(-0.442183 -0.276557 0.0319197)
(-0.468755 -0.353762 0.0195343)
(-0.457129 -0.416514 -0.000791263)
(-0.386052 -0.42297 -0.0248194)
(-0.255957 -0.319679 -0.0403333)
(-0.0790759 -0.0924524 -0.0386388)
(0.00988349 0.0878894 -0.00459252)
(0.004486 0.188002 -0.00105281)
(0.0667282 0.399068 -0.022937)
(0.177498 0.508969 -0.0303964)
(0.273528 0.545558 -0.0203389)
(0.338995 0.539465 -0.00320576)
(0.370369 0.514203 0.0116107)
(0.375248 0.482939 0.0200227)
(0.362674 0.452359 0.0237631)
(0.340503 0.423044 0.024606)
(0.312347 0.393595 0.0242213)
(0.279634 0.362694 0.0233536)
(0.243385 0.330255 0.0220835)
(0.205304 0.297379 0.0203706)
(0.167605 0.265598 0.0184247)
(0.132074 0.235974 0.0166642)
(0.0994184 0.208692 0.0154073)
(0.0694893 0.18327 0.014643)
(0.0419172 0.159159 0.0141131)
(0.0165204 0.136167 0.0135706)
(-0.00675622 0.114414 0.0129301)
(-0.0280971 0.094105 0.0122689)
(-0.0477986 0.0748762 0.0117384)
(-0.0662771 0.0564993 0.0114316)
(-0.0841054 0.0385175 0.0114219)
(-0.101889 0.0204336 0.0117727)
(-0.120366 0.00191398 0.0125169)
(-0.14037 -0.0177606 0.0137911)
(-0.162777 -0.039284 0.0157477)
(-0.188683 -0.0637424 0.0185375)
(-0.219408 -0.0928036 0.0222409)
(-0.256267 -0.128925 0.0266875)
(-0.299913 -0.175446 0.0311707)
(-0.348947 -0.236183 0.0341642)
(-0.397763 -0.313643 0.033293)
(-0.434244 -0.404488 0.0258997)
(-0.439485 -0.491159 0.0104183)
(-0.388142 -0.531102 -0.0113904)
(-0.272654 -0.456482 -0.0301094)
(-0.0941564 -0.219331 -0.0322458)
(0.0087544 0.0383987 0.0011876)
(0.00351458 0.167937 0.000766583)
(0.0613772 0.369625 -0.0188809)
(0.168443 0.482438 -0.0272102)
(0.265472 0.523606 -0.0196076)
(0.334797 0.519301 -0.00404919)
(0.370571 0.492921 0.0105014)
(0.378897 0.459267 0.0192174)
(0.368406 0.426061 0.0233194)
(0.347488 0.394969 0.0242911)
(0.320443 0.365091 0.0238065)
(0.289149 0.335086 0.0227762)
(0.254685 0.304466 0.0214488)
(0.218504 0.273761 0.0198518)
(0.182456 0.243947 0.0181372)
(0.148085 0.215756 0.0165935)
(0.116081 0.189362 0.0154364)
(0.0864232 0.164532 0.0146393)
(0.05889 0.141018 0.0139983)
(0.0334015 0.118782 0.0133381)
(0.01009 0.0978874 0.0126356)
(-0.0113495 0.0783052 0.0118597)
(-0.0311719 0.0597598 0.0112986)
(-0.0495671 0.0418217 0.0109345)
(-0.0671867 0.0240425 0.0108264)
(-0.0844308 0.00598661 0.0110486)
(-0.10204 -0.0130199 0.011483)
(-0.120764 -0.0333159 0.0123496)
(-0.141148 -0.0556353 0.0137241)
(-0.164145 -0.0810857 0.0157569)
(-0.19098 -0.111364 0.0186235)
(-0.223173 -0.149028 0.022414)
(-0.262206 -0.197718 0.0268956)
(-0.308381 -0.262011 0.0311513)
(-0.358516 -0.346104 0.0332721)
(-0.402799 -0.449787 0.0304465)
(-0.422787 -0.559599 0.0198161)
(-0.390893 -0.634274 0.000743328)
(-0.291042 -0.596062 -0.0201549)
(-0.114482 -0.362161 -0.0248785)
(0.00394874 -0.0260158 0.00430668)
(0.00273665 0.146415 0.00208512)
(0.0559639 0.335477 -0.0154554)
(0.158275 0.449586 -0.0243827)
(0.255302 0.495823 -0.0191447)
(0.328002 0.494841 -0.0053065)
(0.368519 0.469066 0.0089481)
(0.381048 0.434156 0.0178296)
(0.373321 0.398961 0.0223948)
(0.354222 0.366351 0.0236928)
(0.328678 0.336058 0.0233041)
(0.299069 0.306846 0.0222541)
(0.266599 0.277929 0.0209508)
(0.23249 0.249328 0.0194952)
(0.198219 0.221532 0.0179957)
(0.165073 0.194979 0.0166388)
(0.133718 0.169823 0.0155636)
(0.104268 0.14601 0.0147419)
(0.0766706 0.12349 0.0140242)
(0.0509698 0.102302 0.0132859)
(0.0272738 0.0824566 0.0125071)
(0.0055008 0.0636791 0.0117833)
(-0.0145675 0.0458464 0.0111624)
(-0.0332129 0.0283806 0.0107449)
(-0.0508691 0.0108184 0.0105426)
(-0.0682454 -0.00727642 0.0105163)
(-0.0857278 -0.0265309 0.010841)
(-0.103674 -0.0472315 0.0114075)
(-0.122814 -0.0701064 0.0123119)
(-0.143852 -0.0962524 0.0137003)
(-0.167844 -0.127394 0.0158006)
(-0.196391 -0.166218 0.0189043)
(-0.23158 -0.216717 0.0232085)
(-0.275144 -0.28428 0.028424)
(-0.326123 -0.374786 0.0332042)
(-0.377002 -0.490986 0.0347048)
(-0.410122 -0.623372 0.028858)
(-0.396783 -0.732965 0.0127338)
(-0.312824 -0.735818 -0.00969383)
(-0.142501 -0.51427 -0.0190033)
(-0.0070657 -0.103024 0.00406257)
(0.00213814 0.124503 0.00295318)
(0.05062 0.298365 -0.0126614)
(0.147326 0.411856 -0.0219245)
(0.243414 0.463136 -0.0188809)
(0.318991 0.466652 -0.00690938)
(0.364298 0.443131 0.00679448)
(0.381583 0.40781 0.015831)
(0.377415 0.371229 0.0209972)
(0.360822 0.337321 0.0228122)
(0.337215 0.306531 0.0227022)
(0.309529 0.27787 0.0217669)
(0.279198 0.2504 0.0205568)
(0.247293 0.22375 0.0192559)
(0.214951 0.197986 0.0179562)
(0.18319 0.173272 0.0167705)
(0.152618 0.149692 0.0157797)
(0.123457 0.127272 0.0149591)
(0.0958022 0.106063 0.0142052)
(0.0698028 0.086123 0.0134349)
(0.0456211 0.0673989 0.0126469)
(0.0232926 0.0496418 0.0119062)
(0.00267232 0.0325129 0.0112865)
(-0.0165418 0.0155353 0.0108206)
(-0.0347807 -0.0017818 0.0105404)
(-0.0525395 -0.0199368 0.0104438)
(-0.0702031 -0.0391479 0.0105612)
(-0.0881387 -0.0600313 0.0108679)
(-0.106816 -0.0832242 0.0114009)
(-0.126801 -0.10978 0.0122765)
(-0.149008 -0.141438 0.0137492)
(-0.175058 -0.181024 0.0162769)
(-0.207515 -0.232951 0.0204602)
(-0.249355 -0.303582 0.0266506)
(-0.301612 -0.400671 0.0341182)
(-0.3588 -0.529897 0.0400318)
(-0.403744 -0.685121 0.0390626)
(-0.406844 -0.828943 0.0258042)
(-0.337322 -0.872615 0.000962599)
(-0.175656 -0.670493 -0.0151062)