/*--------------------------------*- C++ -*----------------------------------*\
| =========                 |                                                 |
| \\      /  F ield         | OpenFOAM: The Open Source CFD Toolbox           |
|  \\    /   O peration     | Version:  v1806                                 |
|   \\  /    A nd           | Web:      www.OpenFOAM.com                      |
|    \\/     M anipulation  |                                                 |
\*---------------------------------------------------------------------------*/
FoamFile
{
    version     2.0;
    format      ascii;
    class       volVectorField;
    location    "0.1415";
    object      U;
}
// * * * * * * * * * * * * * * * * * * * * * * * * * * * * * * * * * * * * * //

dimensions      [0 1 -1 0 0 0 0];


internalField   nonuniform List<vector> 
64000
(
(-0.0193359 0.00233048 -0.012121)
(-0.00507784 0.00258334 -0.0112427)
(-0.00831079 0.0106823 -0.00362262)
(-0.0150249 0.0117376 -0.00259497)
(-0.0242191 0.0115221 -0.00244829)
(-0.0342748 0.0109 -0.00226331)
(-0.0465542 0.00960168 -0.00240984)
(-0.0628894 0.00877971 -0.00151372)
(-0.0794988 0.00732117 -0.00131681)
(-0.0983901 0.006058 -0.000785308)
(-0.11636 0.00310058 -0.000706652)
(-0.13864 -0.00103591 -0.000932735)
(-0.159302 -0.00508171 -0.0011584)
(-0.188466 -0.00677088 -0.0019787)
(-0.213235 -0.00541913 -0.00225975)
(-0.251056 -0.00503603 -0.00125896)
(-0.268728 -0.00102701 0.000241567)
(-0.308411 -0.00888762 -0.00437725)
(-0.290409 -0.0113438 0.00049674)
(-0.360187 -0.0326135 -0.0246071)
(-0.310577 -0.0135853 -0.0125694)
(-0.193874 -0.0192232 -0.0330446)
(-0.203158 -0.00446012 -0.0198625)
(-0.194672 -0.00576827 -0.0398164)
(-0.213139 0.000282665 -0.0503775)
(-0.193605 0.0079068 -0.0614138)
(-0.172615 0.0185885 -0.0648262)
(-0.12185 0.0296823 -0.0616635)
(-0.0756222 0.0363049 -0.0583251)
(-0.0258104 0.0464571 -0.0466948)
(0.0185053 0.0472922 -0.035459)
(0.0660169 0.0391511 -0.027432)
(0.0872804 0.0286 -0.0149879)
(0.0920987 0.0149949 -0.00777505)
(0.0822395 0.00613069 0.00132613)
(0.0666113 -0.001082 0.00239502)
(0.0498807 -0.00550992 0.00405145)
(0.0299485 -0.00484675 0.00466682)
(0.0159021 -0.00344763 0.00454112)
(0.00241374 -0.00198741 0.00243856)
(-0.0170332 0.0494362 -0.0100318)
(-0.014501 0.031259 -0.00964877)
(-0.0102289 0.0348023 -0.00567455)
(-0.0117513 0.0370249 -0.00471229)
(-0.0164535 0.0397385 -0.0054993)
(-0.0256993 0.0419726 -0.00610344)
(-0.0391611 0.0452119 -0.00610363)
(-0.0599125 0.0467137 -0.00618871)
(-0.083891 0.0488927 -0.00765654)
(-0.115688 0.0519179 -0.00604293)
(-0.151652 0.0577833 -0.00470679)
(-0.195982 0.0639167 -0.00505849)
(-0.240358 0.0707673 -0.00794863)
(-0.295611 0.0758615 -0.0127389)
(-0.353046 0.0845787 -0.0206149)
(-0.42617 0.0868777 -0.0291562)
(-0.494583 0.0907422 -0.0475145)
(-0.577466 0.0868614 -0.063217)
(-0.606338 0.0947846 -0.080437)
(-0.691064 0.0905723 -0.0965636)
(-0.610174 0.130275 -0.0848314)
(-0.477568 0.147509 -0.123935)
(-0.471194 0.188252 -0.127505)
(-0.446873 0.20409 -0.144365)
(-0.437178 0.226025 -0.156229)
(-0.384021 0.246154 -0.16444)
(-0.328083 0.267122 -0.165328)
(-0.243127 0.282098 -0.154342)
(-0.160494 0.289112 -0.134038)
(-0.0788528 0.289834 -0.11262)
(-0.0136114 0.280966 -0.0763302)
(0.0567525 0.252509 -0.0499087)
(0.0977047 0.204953 -0.0408017)
(0.11809 0.154759 -0.0272676)
(0.117188 0.105562 -0.0127174)
(0.100261 0.0674677 -0.00557141)
(0.0816326 0.0401154 -0.0012059)
(0.0565656 0.0261988 -0.000142412)
(0.0334412 0.0169509 0.00092208)
(0.00823982 0.0098348 0.00107155)
(-0.00814477 0.0777601 -0.00356864)
(-0.00869957 0.0606482 -0.00681578)
(-0.0060491 0.0624651 -0.00731684)
(-0.00618902 0.0697438 -0.00787624)
(-0.0121508 0.0792059 -0.00899605)
(-0.0233485 0.0901438 -0.00982813)
(-0.0430545 0.103168 -0.00897571)
(-0.0735166 0.116223 -0.00673147)
(-0.107928 0.130951 -0.00731576)
(-0.150386 0.148814 -0.0108578)
(-0.19915 0.170122 -0.0150425)
(-0.262467 0.191468 -0.021174)
(-0.33244 0.215114 -0.0273929)
(-0.415798 0.232401 -0.0347653)
(-0.498929 0.241434 -0.0407796)
(-0.595063 0.245584 -0.0475252)
(-0.665519 0.255518 -0.0658823)
(-0.741618 0.267465 -0.0862927)
(-0.767186 0.296809 -0.103825)
(-0.83683 0.328878 -0.116917)
(-0.733774 0.365221 -0.0968668)
(-0.577663 0.407702 -0.125666)
(-0.551666 0.455301 -0.119194)
(-0.513407 0.480909 -0.123708)
(-0.494976 0.509237 -0.128571)
(-0.435232 0.527305 -0.128662)
(-0.379354 0.540522 -0.123178)
(-0.298644 0.54109 -0.106649)
(-0.226895 0.531503 -0.0839491)
(-0.15068 0.508039 -0.0608252)
(-0.0920669 0.478687 -0.0408385)
(-0.042804 0.432616 -0.0294421)
(-0.00510885 0.364509 -0.0164775)
(0.0261336 0.292223 -0.0111678)
(0.0432137 0.217594 -0.0123908)
(0.0515075 0.155785 -0.0110672)
(0.0527797 0.108247 -0.00672813)
(0.0421828 0.0767862 -0.0047119)
(0.0295215 0.0526717 -0.00133241)
(0.00887342 0.0293909 0.000840305)
(-0.00678429 0.105699 -0.00416564)
(-0.0076389 0.09197 -0.00842796)
(-0.00417785 0.0994841 -0.011026)
(-0.00599924 0.114497 -0.0118549)
(-0.0138135 0.133473 -0.0131532)
(-0.0292234 0.15813 -0.0120973)
(-0.0553537 0.188937 -0.0118575)
(-0.0952755 0.22059 -0.0119585)
(-0.141371 0.251671 -0.0155147)
(-0.197638 0.283348 -0.0199685)
(-0.263619 0.314517 -0.0248966)
(-0.339682 0.344562 -0.0286742)
(-0.420627 0.36676 -0.032094)
(-0.514492 0.379233 -0.0335782)
(-0.596354 0.3887 -0.0371635)
(-0.673356 0.40131 -0.0429079)
(-0.731698 0.423533 -0.0600495)
(-0.795086 0.443413 -0.0715489)
(-0.807244 0.483644 -0.0819924)
(-0.863903 0.524158 -0.0795107)
(-0.741828 0.547853 -0.0367307)
(-0.566559 0.583703 -0.0484429)
(-0.530581 0.612334 -0.0344551)
(-0.490139 0.614184 -0.0318378)
(-0.472012 0.624294 -0.0306848)
(-0.420422 0.620145 -0.027432)
(-0.375109 0.611227 -0.0229189)
(-0.311078 0.590029 -0.0139493)
(-0.256492 0.561494 -0.00250104)
(-0.200156 0.52429 0.00413205)
(-0.163451 0.480838 0.00878817)
(-0.128698 0.435883 0.00749391)
(-0.103016 0.384014 0.00117679)
(-0.0719575 0.324844 -0.00573989)
(-0.0417908 0.255839 -0.00984402)
(-0.0149975 0.190964 -0.0111378)
(0.0088616 0.140763 -0.0107949)
(0.0187968 0.110797 -0.00808774)
(0.0211367 0.0782805 -0.00390453)
(0.00790451 0.0434651 0.000213417)
(-0.0062805 0.138191 -0.00728358)
(-0.00526622 0.13252 -0.0136988)
(0.000923638 0.146812 -0.0168453)
(-0.0017369 0.173002 -0.0164636)
(-0.0105722 0.20477 -0.017635)
(-0.0253926 0.244242 -0.0173566)
(-0.057745 0.297439 -0.0170023)
(-0.11103 0.346428 -0.0132125)
(-0.169582 0.388336 -0.0146293)
(-0.233717 0.428855 -0.0174687)
(-0.302698 0.462604 -0.0204265)
(-0.385336 0.484024 -0.0226488)
(-0.471686 0.498366 -0.0239796)
(-0.554777 0.510873 -0.0259134)
(-0.62037 0.530077 -0.0266914)
(-0.686801 0.549625 -0.0282106)
(-0.731576 0.569679 -0.0335077)
(-0.776891 0.58469 -0.0336173)
(-0.767574 0.627773 -0.0255676)
(-0.808529 0.664667 -0.0262289)
(-0.680987 0.678816 0.0185659)
(-0.497375 0.691016 0.0194456)
(-0.460896 0.688121 0.0363408)
(-0.428812 0.65312 0.036151)
(-0.424192 0.635835 0.0356032)
(-0.390418 0.605528 0.0395039)
(-0.363348 0.57565 0.0413212)
(-0.318307 0.53702 0.0439739)
(-0.286464 0.497293 0.036937)
(-0.249336 0.452864 0.0274995)
(-0.222009 0.40634 0.0170965)
(-0.197365 0.369172 0.00945109)
(-0.181432 0.331693 0.00359669)
(-0.162397 0.301852 -0.00840056)
(-0.136281 0.25798 -0.0160529)
(-0.091116 0.194474 -0.015689)
(-0.0355008 0.155709 -0.0143643)
(-0.00604531 0.131761 -0.013283)
(0.00802199 0.100143 -0.00493839)
(0.00662329 0.0557338 0.000292398)
(-0.00643251 0.171524 -0.0120453)
(-0.00384362 0.180095 -0.020369)
(0.00686601 0.209653 -0.0209303)
(0.00569773 0.251741 -0.0228014)
(-0.00417753 0.299867 -0.0216419)
(-0.0152422 0.355741 -0.0170848)
(-0.0493728 0.419798 -0.0165908)
(-0.116787 0.47336 -0.0109588)
(-0.18404 0.517898 -0.00861545)
(-0.253731 0.54811 -0.0111195)
(-0.335625 0.566559 -0.0138201)
(-0.416348 0.578397 -0.0149595)
(-0.484738 0.592596 -0.0150381)
(-0.550179 0.609674 -0.013622)
(-0.59952 0.62677 -0.00941128)
(-0.651213 0.641342 -0.0057458)
(-0.682341 0.66046 -0.00172169)
(-0.706414 0.674704 0.00156956)
(-0.682947 0.713059 0.00399184)
(-0.703483 0.729365 0.012429)
(-0.577553 0.724815 0.0544782)
(-0.4129 0.686637 0.0585374)
(-0.39459 0.650553 0.0756299)
(-0.382059 0.582938 0.0785616)
(-0.389205 0.546394 0.0783188)
(-0.372515 0.501505 0.0754601)
(-0.359494 0.465508 0.0724038)
(-0.333325 0.423506 0.0637105)
(-0.314243 0.382195 0.0564861)
(-0.293675 0.343456 0.0361805)
(-0.277475 0.303225 0.0224117)
(-0.255468 0.27092 0.00781978)
(-0.234836 0.243111 -0.0024982)
(-0.214274 0.230234 -0.0098655)
(-0.206219 0.214384 -0.0208895)
(-0.154793 0.181953 -0.0166715)
(-0.0688804 0.154485 -0.0156791)
(-0.022084 0.137626 -0.0143574)
(0.00238594 0.11112 -0.00759258)
(0.00465447 0.0630685 0.00127594)
(-0.00204898 0.171366 -0.0121066)
(0.0110924 0.194418 -0.0228379)
(0.0292316 0.241052 -0.0267984)
(0.0292361 0.30364 -0.0298918)
(0.0201153 0.371569 -0.0285456)
(0.00710134 0.443268 -0.0211992)
(-0.0385773 0.499472 -0.0155483)
(-0.116932 0.536279 -0.00355476)
(-0.197545 0.572647 -0.0073153)
(-0.276291 0.596893 -0.0097318)
(-0.344421 0.61877 -0.0100159)
(-0.407313 0.64217 -0.00825049)
(-0.462283 0.662869 -0.00459946)
(-0.51337 0.677372 -0.000128959)
(-0.551387 0.69089 0.00568788)
(-0.583964 0.697144 0.00802589)
(-0.59652 0.710677 0.0130238)
(-0.61168 0.710022 0.0170092)
(-0.58215 0.717138 0.020348)
(-0.596722 0.707437 0.0206288)
(-0.513926 0.685016 0.0529849)
(-0.369404 0.575895 0.0628999)
(-0.347735 0.527601 0.0746119)
(-0.346774 0.456682 0.0779771)
(-0.364348 0.424768 0.0765222)
(-0.362956 0.386288 0.0743973)
(-0.364707 0.361077 0.0688501)
(-0.356087 0.329589 0.0579133)
(-0.349598 0.300935 0.0405733)
(-0.340565 0.269191 0.0234205)
(-0.330493 0.241289 0.00718337)
(-0.313038 0.218545 -0.00509132)
(-0.290879 0.200778 -0.0127282)
(-0.264741 0.191288 -0.0176735)
(-0.247539 0.195981 -0.023669)
(-0.194582 0.189564 -0.0234486)
(-0.0994343 0.168813 -0.0215877)
(-0.0323851 0.151573 -0.0187623)
(-0.000231458 0.125548 -0.0112513)
(0.00580694 0.073627 0.000207547)
(0.00112468 0.169632 -0.0114285)
(0.0257403 0.202898 -0.0223262)
(0.0600434 0.253094 -0.0240593)
(0.0681433 0.320227 -0.0219403)
(0.058601 0.384942 -0.0236953)
(0.0261802 0.461444 -0.0123788)
(-0.0420986 0.496664 -0.000532165)
(-0.120983 0.539036 -0.00156056)
(-0.188324 0.578374 -0.00310198)
(-0.253269 0.616058 -0.00314971)
(-0.314513 0.650584 -0.00220131)
(-0.371383 0.675602 0.000774847)
(-0.419231 0.691419 0.00767456)
(-0.459178 0.699999 0.0137584)
(-0.485292 0.702952 0.0171432)
(-0.508024 0.694068 0.0212094)
(-0.51729 0.681491 0.0215237)
(-0.531169 0.650248 0.0218611)
(-0.512699 0.62599 0.0195725)
(-0.521113 0.577491 0.0123096)
(-0.489109 0.558408 0.0280939)
(-0.369989 0.425368 0.0441209)
(-0.325065 0.387336 0.0505834)
(-0.330201 0.331265 0.0581852)
(-0.352622 0.31383 0.059258)
(-0.363576 0.287578 0.0609729)
(-0.373411 0.274125 0.0572336)
(-0.376647 0.254286 0.0449839)
(-0.382904 0.235364 0.0275828)
(-0.38316 0.211733 0.00972737)
(-0.373991 0.189887 -0.000970837)
(-0.355014 0.173173 -0.01341)
(-0.332865 0.165335 -0.0192831)
(-0.29702 0.164047 -0.0237779)
(-0.280888 0.176063 -0.0285551)
(-0.233911 0.196262 -0.0252898)
(-0.13138 0.178286 -0.0237343)
(-0.0472491 0.164507 -0.0180107)
(-0.00169164 0.138571 -0.0122118)
(0.00550172 0.0830483 0.000738694)
(0.00272899 0.19339 -0.0124863)
(0.0345625 0.239016 -0.0255042)
(0.0812451 0.292354 -0.0259144)
(0.0926274 0.3532 -0.0187725)
(0.090053 0.413292 -0.0197685)
(0.0466745 0.480897 -0.00651212)
(-0.0214762 0.508478 0.00389745)
(-0.0845354 0.561514 0.00243424)
(-0.155596 0.60595 0.00362985)
(-0.216368 0.643126 0.0052737)
(-0.274148 0.668416 0.00856575)
(-0.327031 0.681474 0.0119448)
(-0.366917 0.687567 0.0205181)
(-0.401042 0.681238 0.0234124)
(-0.428108 0.663116 0.0247097)
(-0.451536 0.62844 0.0235486)
(-0.466671 0.585375 0.0206314)
(-0.48476 0.527868 0.0166456)
(-0.483252 0.481032 0.011513)
(-0.485625 0.416257 0.000364788)
(-0.493157 0.396254 0.00103281)
(-0.396867 0.299366 0.021477)
(-0.32098 0.273501 0.0250464)
(-0.32637 0.239208 0.0362925)
(-0.347663 0.233209 0.040805)
(-0.367119 0.217822 0.0486038)
(-0.381362 0.211733 0.0462765)
(-0.396359 0.199073 0.0339505)
(-0.410418 0.183383 0.0178112)
(-0.414877 0.166315 0.00186393)
(-0.407739 0.151418 -0.00329319)
(-0.389212 0.138911 -0.00440115)
(-0.366028 0.132566 -0.0126079)
(-0.331699 0.139357 -0.0234269)
(-0.294487 0.152003 -0.0324518)
(-0.25416 0.190186 -0.0326252)
(-0.162471 0.189664 -0.0262004)
(-0.0563999 0.180612 -0.0238011)
(-0.00333231 0.152783 -0.0148143)
(0.00682325 0.0957554 -0.000847848)
(0.00250204 0.220466 -0.0127809)
(0.0424596 0.280912 -0.0269851)
(0.102647 0.343907 -0.0264164)
(0.125653 0.401216 -0.0174063)
(0.125022 0.467279 -0.017265)
(0.0693105 0.512007 -0.00631306)
(0.000668754 0.547776 0.00861572)
(-0.050686 0.584741 0.00783483)
(-0.117502 0.625572 0.012134)
(-0.176007 0.650934 0.0181129)
(-0.233458 0.667685 0.0185631)
(-0.282337 0.670632 0.0269968)
(-0.322058 0.661393 0.0319802)
(-0.359806 0.632056 0.0336967)
(-0.391874 0.591652 0.0304251)
(-0.42553 0.531161 0.0247787)
(-0.452461 0.466722 0.0191218)
(-0.473573 0.396094 0.0131296)
(-0.480211 0.341055 0.00643412)
(-0.480998 0.28021 -0.00424775)
(-0.496572 0.255548 -0.0100032)
(-0.410034 0.210363 0.00559234)
(-0.320462 0.195213 0.00894853)
(-0.322394 0.176505 0.0205892)
(-0.339137 0.172856 0.0291449)
(-0.362993 0.162903 0.0404187)
(-0.379181 0.160139 0.0394458)
(-0.40161 0.149573 0.0302497)
(-0.417915 0.13988 0.0161852)
(-0.422737 0.125084 0.0146575)
(-0.423401 0.109312 0.0112851)
(-0.410615 0.0970361 0.0110414)
(-0.387489 0.0883795 0.00747601)
(-0.351738 0.0978703 -0.000879454)
(-0.313418 0.11669 -0.0157435)
(-0.270479 0.161025 -0.0308311)
(-0.182595 0.190095 -0.0280687)
(-0.0757266 0.187579 -0.0212551)
(-0.00659841 0.166855 -0.0142699)
(0.00822737 0.10817 -0.00015693)
(0.00103548 0.249791 -0.011957)
(0.0521348 0.332414 -0.0275784)
(0.12605 0.400147 -0.0276006)
(0.158582 0.455232 -0.0179501)
(0.153356 0.51292 -0.0155544)
(0.0933368 0.539066 -0.00484871)
(0.0314894 0.580453 0.0106676)
(-0.0132349 0.603762 0.0181275)
(-0.0740076 0.638219 0.0201081)
(-0.137461 0.654631 0.023002)
(-0.193265 0.65917 0.0320099)
(-0.243305 0.651517 0.0380143)
(-0.289708 0.627347 0.0403211)
(-0.334632 0.581382 0.0382985)
(-0.380849 0.518712 0.0313992)
(-0.425652 0.443475 0.0244324)
(-0.458238 0.373342 0.0173712)
(-0.481315 0.305189 0.00960281)
(-0.491928 0.252511 0.00216764)
(-0.490962 0.202368 -0.00819332)
(-0.498469 0.176868 -0.0143234)
(-0.408744 0.15553 -0.00297086)
(-0.31583 0.144529 0.000445042)
(-0.313191 0.130579 0.0114509)
(-0.324463 0.125182 0.0234802)
(-0.346921 0.117899 0.0344338)
(-0.364257 0.114863 0.035054)
(-0.385924 0.107247 0.0291395)
(-0.40474 0.0974492 0.0351423)
(-0.423158 0.0806067 0.0313307)
(-0.428763 0.0631758 0.0299159)
(-0.425218 0.0520208 0.0182324)
(-0.404512 0.0492684 0.0136087)
(-0.370067 0.0558365 0.00601555)
(-0.318786 0.0750949 -0.00597802)
(-0.271956 0.122121 -0.0231147)
(-0.196244 0.171682 -0.0286077)
(-0.0838375 0.19112 -0.0225115)
(-0.00616291 0.175145 -0.0147228)
(0.0087528 0.119834 -0.000781879)
(0.00281535 0.276927 -0.0114037)
(0.0614127 0.38265 -0.0305838)
(0.146948 0.451962 -0.0296124)
(0.188129 0.504138 -0.0170803)
(0.176012 0.544621 -0.00903948)
(0.1187 0.567171 -0.00309513)
(0.0624658 0.601751 0.0125403)
(0.0206414 0.620387 0.0282357)
(-0.0345808 0.633961 0.0306571)
(-0.0998062 0.646631 0.0357225)
(-0.156829 0.644621 0.0393792)
(-0.213354 0.624187 0.0421928)
(-0.270265 0.586554 0.0417174)
(-0.330727 0.523301 0.0367278)
(-0.388879 0.449907 0.0300054)
(-0.437294 0.374285 0.022905)
(-0.471954 0.307631 0.0147171)
(-0.494152 0.246135 0.00654812)
(-0.504202 0.199043 -0.000972248)
(-0.500792 0.158922 -0.0102454)
(-0.497183 0.132408 -0.015684)
(-0.400397 0.117831 -0.00700785)
(-0.30464 0.100508 -0.00565162)
(-0.292476 0.0860462 0.00473366)
(-0.295512 0.0744956 0.0158017)
(-0.315734 0.0697511 0.0271611)
(-0.328618 0.0664736 0.0311301)
(-0.352788 0.0612368 0.0426475)
(-0.377718 0.0529007 0.0445095)
(-0.397033 0.042035 0.0512247)
(-0.409525 0.0280639 0.0531558)
(-0.41235 0.0122488 0.0487051)
(-0.409909 0.00258645 0.0313907)
(-0.388169 0.00962775 0.0235773)
(-0.342588 0.0311376 0.0226336)
(-0.283942 0.0746245 0.00343001)
(-0.201555 0.142076 -0.0277231)
(-0.0977032 0.187044 -0.0248749)
(-0.0111189 0.184509 -0.0141077)
(0.0121306 0.133951 -0.00133939)
(0.00394958 0.300986 -0.0084804)
(0.0696185 0.427067 -0.0299007)
(0.165346 0.499287 -0.0288447)
(0.209997 0.541991 -0.0129741)
(0.19735 0.566469 -0.00177047)
(0.146099 0.588756 0.00158312)
(0.0948558 0.612287 0.0195499)
(0.046887 0.628145 0.0289499)
(-0.00020368 0.629405 0.0428733)
(-0.0580774 0.636379 0.0470142)
(-0.126117 0.62543 0.0464345)
(-0.191941 0.593404 0.0416053)
(-0.26577 0.536486 0.0361896)
(-0.340613 0.465441 0.0337339)
(-0.402294 0.395689 0.0295713)
(-0.451699 0.327482 0.0215051)
(-0.487948 0.265194 0.0124298)
(-0.508852 0.208618 0.00404344)
(-0.514907 0.163085 -0.00292411)
(-0.50723 0.127588 -0.010985)
(-0.490129 0.0995034 -0.014612)
(-0.386283 0.08566 -0.00874237)
(-0.288213 0.0573297 -0.00863771)
(-0.266272 0.0437501 -0.000150216)
(-0.259266 0.0327626 0.0094584)
(-0.268573 0.0314077 0.0208435)
(-0.278648 0.0300936 0.0369624)
(-0.29873 0.0247859 0.0425328)
(-0.321764 0.0166006 0.0536764)
(-0.35461 0.00227352 0.0528751)
(-0.387708 -0.0168903 0.0456934)
(-0.415156 -0.0393656 0.0382066)
(-0.415772 -0.0595169 0.0262053)
(-0.398534 -0.0633073 0.00738064)
(-0.356342 -0.0403819 -0.0027636)
(-0.295406 0.010432 0.00513704)
(-0.209208 0.0899397 -0.00178459)
(-0.100478 0.162559 -0.030618)
(-0.0107694 0.182495 -0.0122943)
(0.0126589 0.141754 -0.00176834)
(0.00530032 0.316579 -0.00499989)
(0.07477 0.461028 -0.0285007)
(0.175025 0.535347 -0.0276108)
(0.221927 0.566184 -0.00947969)
(0.215608 0.582009 0.00529429)
(0.17249 0.600488 0.0150359)
(0.122936 0.615714 0.0212383)
(0.0753597 0.626642 0.0376773)
(0.0303833 0.629279 0.0497126)
(-0.0263055 0.615886 0.0566435)
(-0.101846 0.596071 0.0481224)
(-0.188621 0.542277 0.0381248)
(-0.275242 0.476207 0.0342476)
(-0.348191 0.412009 0.0332053)
(-0.412194 0.353609 0.0294713)
(-0.466469 0.295054 0.0210268)
(-0.504862 0.237545 0.011207)
(-0.523874 0.183429 0.00284045)
(-0.522758 0.140774 -0.0031301)
(-0.506392 0.105701 -0.0102006)
(-0.475163 0.073046 -0.0134049)
(-0.369982 0.046334 -0.0113519)
(-0.266439 0.0119124 -0.0131642)
(-0.223299 -0.00126574 -0.0121564)
(-0.205764 -0.012434 -0.00542569)
(-0.208063 -0.0162301 0.0108078)
(-0.215723 -0.0207462 0.0214754)
(-0.238946 -0.0250352 0.0352044)
(-0.270924 -0.0355994 0.0388784)
(-0.309951 -0.0526943 0.0401197)
(-0.353532 -0.0724651 0.0365278)
(-0.389035 -0.0943181 0.0262945)
(-0.408876 -0.113571 0.0128625)
(-0.401272 -0.126318 0.00241066)
(-0.365586 -0.114057 -0.0113177)
(-0.305721 -0.0645533 -0.0112033)
(-0.218555 0.0281536 0.000619386)
(-0.111989 0.128848 -0.0163156)
(-0.0154274 0.179711 -0.0188445)
(0.0157488 0.154749 -0.000557932)
(0.00708941 0.320194 0.000641686)
(0.0787067 0.479829 -0.0241968)
(0.177569 0.555563 -0.0245275)
(0.229106 0.579226 -0.0053024)
(0.234927 0.587841 0.0126483)
(0.197671 0.600187 0.0271934)
(0.151021 0.614659 0.0355981)
(0.105289 0.623467 0.0414581)
(0.0515886 0.620696 0.051558)
(-0.00863128 0.594483 0.0622634)
(-0.0985835 0.553591 0.0478356)
(-0.19769 0.488509 0.0403588)
(-0.277077 0.429011 0.0374516)
(-0.347417 0.372448 0.0331271)
(-0.414469 0.320769 0.0289235)
(-0.476636 0.275548 0.0216415)
(-0.519453 0.22885 0.0122566)
(-0.533822 0.181576 0.00490399)
(-0.524771 0.123401 -0.00239445)
(-0.505047 0.0735031 -0.0094514)
(-0.470314 0.035227 -0.0127599)
(-0.360745 -0.0017843 -0.00981143)
(-0.241743 -0.0426859 -0.0186388)
(-0.185814 -0.0625574 -0.0167142)
(-0.161528 -0.0758951 -0.00825554)
(-0.154703 -0.0784173 0.00287758)
(-0.1546 -0.0838158 0.0142847)
(-0.170912 -0.0872878 0.0215053)
(-0.201273 -0.0902728 0.0278277)
(-0.246075 -0.0982651 0.0302194)
(-0.295857 -0.113257 0.0273248)
(-0.346192 -0.135892 0.0209919)
(-0.381767 -0.162102 0.0101965)
(-0.393776 -0.182944 -0.00460639)
(-0.367247 -0.186115 -0.0177008)
(-0.306422 -0.145367 -0.0233969)
(-0.222497 -0.0567181 -0.0186751)
(-0.11621 0.0749445 0.00445676)
(-0.0151864 0.160479 -0.0234889)
(0.0149855 0.161104 -0.000990579)
(0.00757614 0.315059 0.00480556)
(0.0766227 0.484392 -0.0216204)
(0.173097 0.563143 -0.0230131)
(0.229599 0.587296 -0.00317105)
(0.248799 0.592488 0.0186104)
(0.228206 0.600278 0.0343204)
(0.185924 0.614003 0.0440763)
(0.132139 0.614305 0.0495666)
(0.0678268 0.600525 0.0496351)
(-0.00864064 0.562708 0.0578434)
(-0.107305 0.502593 0.0498592)
(-0.20188 0.447274 0.0430617)
(-0.277403 0.390441 0.038884)
(-0.347852 0.331707 0.0336373)
(-0.41054 0.279271 0.0270301)
(-0.471688 0.239026 0.0198117)
(-0.520217 0.217698 0.011419)
(-0.554495 0.149536 0.000308773)
(-0.555912 0.0787089 -0.00119738)
(-0.514313 0.0233742 -0.00452526)
(-0.462659 -0.0133482 -0.00708473)
(-0.35566 -0.0385577 -0.0162152)
(-0.228562 -0.0802343 -0.0247356)
(-0.151434 -0.107119 -0.0268464)
(-0.109881 -0.121639 -0.022229)
(-0.0949948 -0.122525 -0.0143223)
(-0.0923561 -0.118988 -0.00342575)
(-0.100826 -0.122047 0.00751143)
(-0.126702 -0.123366 0.0150052)
(-0.169924 -0.129877 0.0203343)
(-0.224987 -0.140222 0.0223462)
(-0.284286 -0.162557 0.019769)
(-0.335278 -0.191759 0.0107621)
(-0.366672 -0.225976 -0.00223608)
(-0.359052 -0.243293 -0.0185833)
(-0.314785 -0.227582 -0.0315353)
(-0.228205 -0.144826 -0.0327799)
(-0.12713 0.00211802 -0.0129038)
(-0.0226496 0.131284 -0.0168055)
(0.0187879 0.165184 -0.00367346)
(0.00924012 0.280415 0.0117125)
(0.0758023 0.458043 -0.0141793)
(0.169827 0.543315 -0.0165853)
(0.234966 0.567479 0.00445629)
(0.269211 0.572794 0.0233857)
(0.260789 0.58097 0.0392306)
(0.217161 0.589561 0.0493243)
(0.153077 0.5859 0.0544633)
(0.0722471 0.569007 0.0549898)
(-0.0202441 0.526352 0.055534)
(-0.114594 0.472199 0.0505299)
(-0.201974 0.422234 0.0450153)
(-0.283691 0.364037 0.0403158)
(-0.355285 0.300401 0.033554)
(-0.412996 0.239685 0.0245091)
(-0.452639 0.197767 0.0170986)
(-0.529719 0.16526 0.00403126)
(-0.594791 0.0869225 0.00849431)
(-0.570116 0.0216914 0.00469629)
(-0.511915 -0.0225876 -0.00733823)
(-0.443831 -0.0478178 -0.0217002)
(-0.336428 -0.0599412 -0.0292039)
(-0.215483 -0.0848598 -0.0344953)
(-0.12938 -0.106213 -0.039123)
(-0.074261 -0.1295 -0.0373148)
(-0.0409856 -0.14758 -0.0314934)
(-0.032632 -0.146461 -0.0230946)
(-0.0406563 -0.136389 -0.00836577)
(-0.0591953 -0.127458 0.00348696)
(-0.0951236 -0.135915 0.0129295)
(-0.147368 -0.149354 0.0175032)
(-0.211656 -0.177335 0.0176014)
(-0.27457 -0.213673 0.0120091)
(-0.323728 -0.25973 0.000718763)
(-0.337603 -0.295945 -0.0142522)
(-0.305383 -0.302149 -0.0280432)
(-0.227047 -0.238871 -0.0394464)
(-0.129926 -0.0921243 -0.0299756)
(-0.0232403 0.0867699 -0.00259158)
(0.0172718 0.161332 -0.0068825)
(0.00601329 0.263109 0.0119536)
(0.0663309 0.442575 -0.0110655)
(0.158589 0.533292 -0.0159903)
(0.23575 0.562173 0.00832951)
(0.293302 0.565174 0.0201731)
(0.301846 0.568952 0.0406875)
(0.259542 0.573264 0.0485318)
(0.185294 0.564652 0.0526004)
(0.0881798 0.546177 0.0519321)
(-0.0162309 0.495908 0.053206)
(-0.113518 0.450067 0.0460376)
(-0.206978 0.396856 0.0417107)
(-0.295997 0.338251 0.036918)
(-0.373628 0.275954 0.02889)
(-0.421473 0.217967 0.0207676)
(-0.461237 0.165285 0.00860938)
(-0.55002 0.0938656 0.00406976)
(-0.616939 0.035274 0.0096152)
(-0.582915 -0.0184304 -0.007664)
(-0.499596 -0.0564917 -0.0221055)
(-0.41463 -0.0689586 -0.0330871)
(-0.306311 -0.0744589 -0.0400717)
(-0.188079 -0.0822013 -0.0442041)
(-0.10785 -0.0870555 -0.0468105)
(-0.0594299 -0.098796 -0.0449409)
(-0.0137558 -0.116193 -0.0381461)
(0.026636 -0.129427 -0.0321931)
(0.0387659 -0.133418 -0.0267261)
(0.012153 -0.13245 -0.0180733)
(-0.0320228 -0.134555 -0.0033273)
(-0.0825697 -0.14188 0.00730594)
(-0.145916 -0.167947 0.0140584)
(-0.212387 -0.207129 0.0133727)
(-0.273531 -0.267072 0.00578285)
(-0.304643 -0.322716 -0.00845849)
(-0.294824 -0.35499 -0.0236966)
(-0.229337 -0.320171 -0.0391068)
(-0.135927 -0.191698 -0.0377788)
(-0.0268318 0.0254762 -0.00840078)
(0.0184336 0.15574 -0.00488085)
(-0.00114255 0.207755 0.0130995)
(0.0470971 0.403489 -0.00513366)
(0.14042 0.503005 -0.00734426)
(0.227173 0.536587 0.00232674)
(0.302402 0.540347 0.0167854)
(0.329743 0.553177 0.0373331)
(0.288784 0.572288 0.0470912)
(0.206099 0.577619 0.0538192)
(0.0865918 0.571999 0.0513128)
(-0.0271286 0.532211 0.0670181)
(-0.118696 0.495591 0.0524226)
(-0.215823 0.442674 0.0458246)
(-0.30661 0.379966 0.0397171)
(-0.381188 0.305555 0.028201)
(-0.434838 0.22672 0.0125595)
(-0.492945 0.12943 -0.00260234)
(-0.578693 0.0463443 -0.00295907)
(-0.627194 -0.00731901 -0.00937883)
(-0.581013 -0.049714 -0.0275106)
(-0.481041 -0.0799575 -0.0369363)
(-0.381044 -0.0867994 -0.0428885)
(-0.270043 -0.088823 -0.048726)
(-0.149159 -0.0884662 -0.052147)
(-0.0665002 -0.0826836 -0.0515008)
(-0.0211721 -0.0768923 -0.0463247)
(0.015662 -0.0671356 -0.0390054)
(0.0457718 -0.0667418 -0.0314515)
(0.0641529 -0.0765793 -0.0216775)
(0.064522 -0.0858395 -0.0120304)
(0.0431895 -0.0978312 -0.00628799)
(-0.00405681 -0.125943 -0.00317549)
(-0.070867 -0.175328 -0.000350468)
(-0.149759 -0.223196 -0.00099944)
(-0.226479 -0.286989 -0.00460971)
(-0.274305 -0.359273 -0.0150288)
(-0.281683 -0.422995 -0.0306333)
(-0.235149 -0.419628 -0.0469353)
(-0.144242 -0.296388 -0.044479)
(-0.028935 -0.0711002 -0.0181519)
(0.0143676 0.132658 0.00998968)
(-0.00438574 0.291744 0.0120348)
(0.0364416 0.505682 -0.00859159)
(0.123825 0.616368 -0.00671908)
(0.219009 0.653005 0.000243565)
(0.326205 0.662163 0.0185237)
(0.391192 0.678444 0.0367392)
(0.360924 0.688977 0.0451513)
(0.268337 0.684539 0.0507431)
(0.127667 0.667883 0.0474584)
(-0.00619379 0.634013 0.0668661)
(-0.114284 0.589817 0.0493195)
(-0.231616 0.523278 0.0372671)
(-0.341366 0.440274 0.0311436)
(-0.437201 0.340569 0.0177906)
(-0.512003 0.22237 0.000503247)
(-0.559153 0.105956 -0.0143325)
(-0.605944 0.0155029 -0.0220916)
(-0.633397 -0.0333855 -0.0367565)
(-0.576973 -0.071145 -0.0488795)
(-0.459037 -0.0963799 -0.0528831)
(-0.347708 -0.0956871 -0.0508934)
(-0.234169 -0.0968223 -0.0563824)
(-0.10902 -0.0941047 -0.0584039)
(-0.0231113 -0.0831137 -0.0500687)
(0.0312502 -0.0660186 -0.0373783)
(0.0756457 -0.0489542 -0.0311594)
(0.103351 -0.0332728 -0.0257046)
(0.116956 -0.0251188 -0.0203375)
(0.104461 -0.0251318 -0.0133373)
(0.0640164 -0.0435506 -0.00437824)
(0.00509889 -0.0723943 0.0072773)
(-0.0435335 -0.129637 0.0161953)
(-0.0934807 -0.209999 0.0111538)
(-0.170821 -0.315893 -0.000907901)
(-0.24362 -0.420136 -0.0148032)
(-0.277576 -0.517665 -0.0303861)
(-0.231831 -0.540638 -0.0447444)
(-0.162981 -0.449596 -0.0586602)
(-0.0508955 -0.168393 -0.0220344)
(0.0191097 0.106111 0.0142006)
(-0.0223728 0.345483 -0.000748545)
(0.00955364 0.57498 -0.0214514)
(0.107576 0.697834 -0.0231763)
(0.215914 0.754645 -0.0217853)
(0.348139 0.774886 -0.00181677)
(0.424042 0.771132 0.0133003)
(0.382097 0.7428 0.0268754)
(0.272423 0.704327 0.0404678)
(0.122361 0.667128 0.0437411)
(-0.0184989 0.624323 0.0653407)
(-0.142834 0.578601 0.0524097)
(-0.27769 0.511125 0.0420164)
(-0.401207 0.4312 0.0368879)
(-0.51236 0.332396 0.0202432)
(-0.584306 0.218808 -0.00227743)
(-0.617 0.108948 -0.0319039)
(-0.637373 0.00992147 -0.0537632)
(-0.634894 -0.0460413 -0.0691367)
(-0.56736 -0.0859423 -0.0717843)
(-0.431494 -0.117568 -0.0639707)
(-0.309697 -0.113208 -0.0512829)
(-0.198582 -0.112621 -0.0589939)
(-0.0668093 -0.103802 -0.0598907)
(0.0305298 -0.0830912 -0.0393745)
(0.0838488 -0.055083 -0.0283743)
(0.122702 -0.043074 -0.0217843)
(0.149667 -0.0314651 -0.0131745)
(0.161884 -0.0292961 -0.00433618)
(0.150574 -0.0316455 9.9061e-05)
(0.122819 -0.0437855 0.00246948)
(0.0672615 -0.0516521 0.0122786)
(-0.0133718 -0.0839874 0.0188504)
(-0.100419 -0.153726 0.0260832)
(-0.171614 -0.260989 0.0262062)
(-0.225488 -0.415039 0.0169385)
(-0.254656 -0.589052 -0.00180137)
(-0.23354 -0.670198 -0.0241216)
(-0.146555 -0.63161 -0.0347987)
(-0.04064 -0.351062 -0.0400403)
(0.00536668 0.0449495 0.0309115)
(-0.00703534 0.265922 0.0189051)
(0.0256677 0.50296 -0.0120378)
(0.108619 0.6352 -0.0171397)
(0.217915 0.704143 -0.0190598)
(0.343659 0.7293 -0.00231396)
(0.411453 0.706161 0.0145212)
(0.374648 0.66179 0.033563)
(0.278398 0.620683 0.050999)
(0.130777 0.586621 0.0583429)
(-0.0139856 0.558392 0.079068)
(-0.148834 0.523889 0.0751037)
(-0.298879 0.477403 0.0622604)
(-0.438158 0.422827 0.0539941)
(-0.566816 0.349969 0.0328615)
(-0.653 0.265096 -0.0036543)
(-0.686436 0.154838 -0.0445161)
(-0.680576 0.0494541 -0.088155)
(-0.650848 -0.0295966 -0.108265)
(-0.57295 -0.0817484 -0.100385)
(-0.413854 -0.133314 -0.0857238)
(-0.273194 -0.138591 -0.0608978)
(-0.15713 -0.130009 -0.064706)
(-0.0128363 -0.107828 -0.0676136)
(0.0924492 -0.0771223 -0.0347179)
(0.139562 -0.0508879 -0.012649)
(0.170165 -0.0430683 -0.00675472)
(0.192678 -0.0354303 7.28619e-05)
(0.200301 -0.0382172 0.00694398)
(0.186071 -0.0464024 0.0127918)
(0.160213 -0.0647602 0.0153444)
(0.111187 -0.0835667 0.018159)
(0.0411327 -0.114525 0.0300365)
(-0.0352526 -0.157065 0.0408862)
(-0.150384 -0.220965 0.0357163)
(-0.273862 -0.334157 0.0403441)
(-0.307854 -0.523837 0.0361262)
(-0.26192 -0.66272 0.0168598)
(-0.180724 -0.68518 -0.00790196)
(-0.0375205 -0.469019 -0.0174782)
(0.031372 -0.00761008 -0.00154397)
(-0.00242679 0.21586 0.029285)
(0.0347223 0.432089 -0.000172291)
(0.114995 0.561605 -0.00669191)
(0.22299 0.634113 -0.00698171)
(0.3383 0.661073 0.00723352)
(0.393597 0.631696 0.0260489)
(0.36285 0.584635 0.0464785)
(0.273179 0.538984 0.0654791)
(0.136571 0.497326 0.0768875)
(-0.00463239 0.480157 0.0953163)
(-0.148237 0.45358 0.0975381)
(-0.301951 0.429333 0.0867844)
(-0.450025 0.403986 0.0797232)
(-0.589902 0.371772 0.0579217)
(-0.698808 0.32565 0.011638)
(-0.751186 0.254489 -0.0360008)
(-0.741004 0.152762 -0.0923052)
(-0.687304 0.0483047 -0.139863)
(-0.595182 -0.0319638 -0.140036)
(-0.416164 -0.102587 -0.125874)
(-0.237247 -0.13354 -0.0880652)
(-0.10053 -0.133575 -0.072144)
(0.0522198 -0.119217 -0.0685961)
(0.153563 -0.0963745 -0.0136839)
(0.185428 -0.0783042 0.0201207)
(0.207539 -0.0712751 0.0198865)