/*--------------------------------*- C++ -*----------------------------------*\
| =========                 |                                                 |
| \\      /  F ield         | OpenFOAM: The Open Source CFD Toolbox           |
|  \\    /   O peration     | Version:  v1806                                 |
|   \\  /    A nd           | Web:      www.OpenFOAM.com                      |
|    \\/     M anipulation  |                                                 |
\*---------------------------------------------------------------------------*/
FoamFile
{
    version     2.0;
    format      ascii;
    class       volScalarField;
    location    "0.1405";
    object      p;
}
// * * * * * * * * * * * * * * * * * * * * * * * * * * * * * * * * * * * * * //

dimensions      [0 2 -2 0 0 0 0];


internalField   nonuniform List<scalar> 
64000
(
0.000745527
0.167814
0.266893
0.477049
0.781416
1.21242
1.78265
2.52826
3.46695
4.56553
5.86102
7.37099
9.05596
10.9033
12.9857
15.2596
17.6586
20.0837
22.9825
25.1237
29.0042
31.9137
33.9902
35.8457
37.7564
39.443
41.0893
42.4405
43.6808
44.4181
45.6387
46.6721
47.5051
48.3152
48.9674
49.5078
49.8695
50.2391
50.4797
50.6218
-0.308831
-0.154708
-0.035228
0.178501
0.475213
0.891992
1.45268
2.23844
3.18353
4.27229
5.56409
7.15184
8.81929
10.5384
12.429
14.9125
17.5418
20.0389
22.8186
25.1366
28.8825
31.8894
34.086
36.0005
37.9448
39.6398
41.2929
42.6595
43.8804
44.8847
45.5462
46.7167
47.5108
48.2956
48.9757
49.5234
49.9083
50.2484
50.5006
50.6345
-0.90199
-0.796822
-0.649655
-0.477174
-0.209235
0.152313
0.710865
1.47343
2.41774
3.43957
4.54851
6.21683
8.11728
10.0628
12.1926
14.5853
17.0762
19.5896
22.3663
24.7695
28.4664
31.5338
33.772
35.6811
37.6285
39.3095
40.9532
42.3473
43.6071
44.674
45.6108
46.5187
47.2114
48.1603
48.9256
49.4816
49.9049
50.2642
50.5224
50.6753
-1.88763
-1.76552
-1.62218
-1.46604
-1.21819
-0.921502
-0.397017
0.331227
1.2921
2.39988
3.72396
5.31087
7.1144
9.07836
11.3195
13.6858
16.2442
18.8569
21.7073
24.1915
27.8459
31.0481
33.3012
35.2603
37.2296
38.9278
40.5845
41.9879
43.2927
44.4174
45.4223
46.3298
47.1735
48.0486
48.8932
49.4921
50.0057
50.3667
50.5892
50.7172
-3.15617
-3.03888
-2.92662
-2.72921
-2.43754
-2.17219
-1.81683
-1.16733
-0.2412
0.895096
2.27645
3.82922
5.58019
7.63369
9.98548
12.4937
15.141
17.8635
20.9093
23.4965
27.1961
30.5378
32.8485
34.8501
36.8593
38.5842
40.2449
41.601
42.9548
44.1579
45.2613
46.243
47.0272
47.8338
48.881
49.7389
50.1976
50.471
50.609
50.7228
-4.59382
-4.54508
-4.41788
-4.18776
-3.9409
-3.67419
-3.492
-2.9229
-1.93874
-0.651577
0.774503
2.23249
3.78807
5.76524
8.20826
10.8565
13.6774
16.7729
20.0573
22.8637
26.67
30.1601
32.508
34.6095
36.6756
38.4536
40.0977
41.4704
42.7644
43.9997
45.124
46.1765
47.1842
48.1048
49.2231
49.9843
50.2212
50.4439
50.5365
50.591
-6.40945
-6.31247
-6.16314
-5.94393
-5.70901
-5.38555
-5.36223
-4.59788
-3.82885
-2.72206
-1.32964
0.232891
2.03791
4.14101
6.55245
9.18561
11.8686
15.3434
19.0926
22.1843
25.9722
29.8646
32.3306
34.5111
36.6133
38.4211
40.0441
41.4139
42.6672
43.8482
44.931
45.9397
46.9539
47.8973
49.0539
49.8194
50.0622
50.2478
50.3288
50.3614
-7.68266
-7.63587
-7.59703
-7.52408
-7.43969
-7.23603
-7.08408
-6.59247
-5.78181
-4.78406
-3.46607
-1.88712
0.0193001
2.23884
4.73961
7.45551
10.3444
13.7995
17.8824
21.3665
24.9785
29.5287
32.2411
34.4785
36.6104
38.4433
40.0266
41.3849
42.5638
43.7277
44.7515
45.7296
46.6888
47.5992
48.5515
49.5213
49.7509
49.9243
49.9818
50.0126
-9.14199
-9.11306
-9.09699
-9.07483
-9.09433
-8.84651
-8.90331
-8.5652
-7.90043
-7.01271
-5.75327
-4.1948
-2.19816
0.0786506
2.69403
5.57231
8.68714
12.4711
16.7401
20.5704
24.3121
28.851
32.065
34.3895
36.5554
38.4226
39.9826
41.2949
42.4728
43.5746
44.5685
45.4941
46.3927
47.2339
48.095
49.0155
49.3593
49.472
49.5247
49.5506
-10.6349
-10.6807
-10.6416
-10.7199
-10.7117
-10.9892
-10.9251
-10.7928
-10.1462
-9.34279
-8.15288
-6.59464
-4.64334
-2.33063
0.373898
3.42644
6.94157
11.2715
15.7573
19.9296
23.9614
28.2447
31.7825
34.2147
36.4453
38.3613
39.8881
41.2131
42.382
43.4112
44.3701
45.2501
46.0559
46.8543
47.5802
48.3979
48.8285
48.9191
48.9371
48.9629
-12.2346
-12.2472
-12.3106
-12.4453
-12.6097
-13.0967
-12.972
-13.0495
-12.5282
-11.7765
-10.6742
-9.2119
-7.34337
-5.06746
-2.2913
1.13432
5.38135
9.90307
14.5314
19.0157
23.3229
27.7228
31.3928
33.9778
36.2709
38.2465
39.7651
41.1061
42.2117
43.2201
44.0936
44.9096
45.6542
46.3224
46.9936
47.6668
48.1008
48.2344
48.2191
48.2507
-13.837
-13.8441
-13.997
-14.2315
-14.6895
-15.142
-15.1862
-15.1617
-15.0921
-14.2968
-13.3425
-12.0286
-10.3087
-8.16147
-4.80297
-0.845067
3.52974
8.17498
13.0725
17.8861
22.4629
27.1846
30.9535
33.6534
36.0036
38.003
39.554
40.8553
41.9625
42.9143
43.8381
44.5424
45.1925
45.8185
46.4674
46.8737
47.3207
47.3973
47.353
47.3858
-15.4988
-15.5319
-15.7467
-16.1323
-16.7705
-17.1979
-17.3927
-17.4759
-17.417
-17.0029
-16.1304
-15.0067
-13.5502
-10.6313
-7.1643
-3.17166
1.35086
6.24768
11.4534
16.6089
21.477
26.7161
30.5602
33.3169
35.6613
37.6491
39.2216
40.5406
41.5965
42.4602
43.0666
43.6823
44.2607
44.7868
45.3639
46.0872
46.2743
46.4089
46.3713
46.3918
-17.0653
-17.1328
-17.4358
-18.0008
-18.6741
-19.168
-19.4974
-19.7414
-19.7067
-19.7666
-18.9855
-18.1004
-15.9369
-13.2579
-9.91346
-5.81719
-1.06241
4.13257
9.71975
15.1751
20.3653
26.1882
29.9947
32.8341
35.0262
36.862
38.3967
39.6415
40.6027
41.4126
42.0911
42.7049
43.2542
43.7789
44.3129
44.73
45.3774
45.1058
45.1293
45.1696
-18.7263
-18.832
-19.2424
-19.8515
-20.5634
-21.1279
-21.6127
-22.0316
-22.2373
-22.3159
-21.8028
-20.4156
-18.6196
-16.1684
-12.8704
-8.62226
-3.60046
1.93558
7.77633
13.398
18.7114
24.7052
28.6167
31.4243
33.8388
35.9549
37.2686
38.4071
39.3571
40.1632
40.8333
41.4391
41.9937
42.5156
43.0122
43.4613
43.7387
44.0374
43.8624
43.9246
-20.0703
-20.251
-20.6985
-21.3445
-22.0983
-22.8425
-23.555
-24.166
-24.5547
-24.7788
-24.0617
-22.9675
-21.3815
-19.0409
-15.8599
-11.7414
-6.62609
-1.0393
5.01591
11.4628
16.9875
22.9152
27.4084
30.1507
32.3188
34.0889
35.9071
36.9072
37.7132
38.5267
39.2393
39.8897
40.4783
41.0448
41.5711
41.9442
42.3461
42.667
42.2486
42.3217
-21.6979
-21.8779
-22.3123
-22.9469
-23.757
-24.6287
-25.5104
-26.2609
-26.7701
-26.951
-26.4771
-25.5515
-24.037
-21.7553
-18.6895
-14.6612
-10.0029
-3.43752
3.13408
9.28513
14.9409
20.4538
24.9973
27.8673
29.9432
31.6068
33.2483
34.825
35.9002
36.5948
37.3042
37.9425
38.5579
39.1874
39.7427
40.2364
40.5761
40.7815
40.82
40.5731
-22.4769
-22.7044
-23.1613
-23.8354
-24.7632
-25.8847
-27.0521
-27.9834
-28.6597
-28.8324
-28.612
-27.8379
-26.4112
-24.2067
-21.135
-17.3113
-12.7725
-5.70711
0.805507
6.93129
12.6938
17.7594
21.5587
23.9849
25.8871
28.4203
30.2275
31.5215
32.6173
34.0211
35.0424
35.7371
36.4358
37.2573
38.0601
38.7839
39.1025
39.0119
39.2093
38.7992
-23.8901
-24.0078
-24.3733
-24.9606
-25.8841
-27.2308
-28.6254
-29.579
-30.343
-30.4851
-30.51
-29.8942
-28.6132
-26.4352
-23.4409
-20.0449
-15.1215
-7.64444
-1.13063
4.83993
10.3909
15.0287
18.1724
19.9054
21.4582
23.6347
25.6492
27.6108
29.1728
30.5204
31.3641
32.416
33.4782
34.6154
35.5092
36.1003
36.5967
37.3067
36.7205
36.3813
-23.1633
-23.4009
-23.8398
-24.5289
-25.7085
-28.0157
-29.9188
-31.1375
-32.2096
-32.568
-32.7869
-32.2479
-30.9268
-28.5576
-25.3533
-21.3018
-16.2587
-9.22597
-2.75137
2.86447
7.96673
12.4971
15.4837
16.7634
18.1971
19.4846
21.1141
22.7928
24.2399
25.8074
27.2753
29.0513
30.3425
31.2705
32.1242
32.9715
33.5414
33.6205
34.3615
34.2612
-23.9949
-23.9924
-24.3608
-24.976
-26.3896
-29.5076
-31.5995
-32.9016
-34.0374
-34.5602
-34.7672
-34.2956
-32.9672
-30.5337
-27.1232
-22.6484
-17.2635
-10.7637
-4.40997
0.744277
5.28672
9.61268
12.5165
13.6329
14.512
15.7358
17.3146
19.1662
20.8564
22.542
23.726
24.62
25.8339
27.9759
29.6015
30.5348
30.9962
31.2567
31.3626
31.6685
-24.6195
-24.4857
-24.7438
-25.4897
-27.1497
-30.2567
-32.4055
-33.8046
-35.1226
-35.6969
-36.1709
-35.8986
-34.8225
-32.5204
-28.7456
-23.986
-18.1786
-12.2079
-5.96649
-1.04866
2.66864
6.70038
8.99956
9.78208
10.2569
11.4536
13.0425
15.1634
17.4236
19.7436
21.5908
22.542
23.6662
24.0817
24.8996
26.8792
28.1095
28.8018
29.1654
29.1102
-24.9479
-24.966
-25.2107
-25.9766
-27.871
-30.6914
-32.8611
-34.3482
-35.6602
-36.3729
-37.0692
-37.1213
-36.4957
-34.6602
-31.1468
-25.8492
-20.036
-13.4126
-7.4485
-2.16178
1.03238
4.1265
5.14408
5.45516
5.7683
7.08054
8.74048
11.0831
13.7844
16.5833
18.9792
20.5576
21.8433
23.0059
23.2797
23.8165
24.5612
24.9494
25.1406
25.1061
-24.6847
-24.9033
-25.0293
-25.8538
-27.7996
-30.322
-32.4587
-33.9933
-35.2544
-36.2011
-37.1283
-37.6771
-37.8978
-37.0773
-34.5169
-30.2491
-23.5676
-16.5866
-10.0019
-4.14945
-0.948574
1.25171
1.99785
2.04557
2.3316
3.5845
5.2913
7.75959
10.7899
13.9406
16.6776
18.7837
19.8509
21.0136
21.7277
22.383
22.8776
23.3232
23.7106
24.0865
-24.1818
-24.2216
-24.5196
-25.3221
-27.078
-29.3162
-31.3469
-32.8807
-34.1043
-35.113
-36.2216
-37.443
-38.5467
-38.883
-37.6457
-34.5102
-29.4887
-22.8791
-14.8398
-7.70469
-4.00285
-1.45852
-0.473127
0.0403451
0.460529
1.60388
3.27251
5.65552
8.78306
12.0873
15.0489
17.4283
18.8141
19.7807
20.2239
20.6349
20.8728
21.1337
21.3581
21.5107
-23.0479
-23.4368
-23.4422
-24.1245
-25.581
-27.5102
-29.1944
-30.334
-31.1251
-31.805
-32.9973
-34.2267
-35.7293
-37.1699
-37.3711
-35.7241
-32.673
-28.2625
-21.5594
-14.5006
-9.73705
-5.81437
-3.62424
-2.40725
-1.21522
0.313044
2.53669
5.07385
8.10734
11.2105
13.9334
16.1381
17.2457
18.3704
18.5857
18.7055
18.7314
18.8621
18.9849
19.0913
-22.1409
-22.2089
-22.1912
-22.256
-23.2941
-25.2354
-26.6909
-27.5165
-28.0082
-27.9984
-28.6261
-29.2557
-30.3107
-31.4044
-31.8925
-31.4521
-30.0747
-26.736
-21.2188
-15.2733
-11.4108
-7.84726
-5.34075
-3.57568
-1.32127
1.17772
3.73697
6.38422
9.05777
11.6339
13.8544
15.8411
16.8589
17.2906
17.476
17.2799
17.0461
16.9263
16.7711
16.7896
-20.6559
-20.2725
-20.7462
-20.1848
-20.9434
-22.6801
-23.6715
-23.7062
-23.8671
-24.0475
-24.2777
-24.054
-24.2576
-24.5807
-24.8302
-24.0978
-21.9205
-18.0142
-13.1022
-9.35922
-7.29655
-4.38089
-2.14435
-0.251713
2.22595
4.86328
7.11636
9.21896
11.0597
12.8079
14.1503
15.1649
15.1906
14.5875
14.4378
13.9439
13.6254
13.5294
13.4677
14.0241
-19.05
-18.84
-18.586
-18.0653
-18.215
-19.421
-19.9731
-20.3282
-19.8905
-18.9471
-18.3972
-17.1397
-16.5901
-16.6746
-16.5257
-15.6742
-12.9758
-8.73827
-4.91054
-1.53301
0.422782
2.96122
5.63857
7.5111
9.07906
10.3066
11.1648
12.1268
12.6487
12.9942
12.7123
11.6283
10.2091
9.27265
9.1791
8.61027
7.96994
7.55217
7.02749
6.93261
-16.9494
-16.8249
-16.6348
-16.0807
-15.6986
-16.4899
-16.2266
-15.5453
-14.4295
-12.9591
-11.9123
-10.0819
-8.84958
-7.97232
-6.80437
-5.03014
-2.29196
1.68624
5.40656
9.40461
12.0965
14.0381
16.5473
17.3146
17.3618
16.8724
15.8271
14.9459
13.6868
12.518
10.9573
9.2984
8.1741
6.92671
6.29628
5.28219
4.21029
3.45041
2.69945
2.72531
-14.664
-14.4257
-14.2475
-13.6027
-12.3717
-11.5483
-10.7674
-9.81147
-8.59882
-7.13478
-5.45763
-2.76185
-0.148644
2.06932
4.27382
6.66332
9.19741
12.3697
16.0462
20.7006
24.169
25.6474
27.3561
26.5991
25.0221
22.9331
20.1229
17.6087
14.7959
11.6213
8.93591
7.5552
6.12538
5.12383
3.46689
2.22798
0.71656
-0.238198
-1.11197
-1.00259
-11.9569
-11.6182
-10.9497
-9.9084
-8.082
-6.63787
-5.31681
-3.94572
-2.41035
-0.527558
1.92255
5.43609
8.9827
12.2639
15.2151
17.892
20.4821
23.168
26.4608
31.1891
34.0145
34.8932
35.7602
34.0057
31.075
27.7958
23.7252
20.0995
16.1693
10.7238
6.93611
5.53319
3.68287
2.92571
0.330668
-0.953876
-2.82937
-3.62188
-4.49654
-4.15106
-8.88188
-8.48847
-7.53743
-6.09879
-4.40246
-2.33873
-0.183989
1.8868
4.20834
6.73159
9.78958
13.3757
17.1706
20.867
24.3876
27.3876
29.9419
32.0783
35.1824
39.3332
40.1941
41.1394
41.1107
38.7259
35.3992
31.1441
26.1468
21.4888
16.6973
9.72638
5.03976
3.37694
0.849136
0.158963
-2.53719
-4.06824
-6.08316
-6.77604
-7.54192
-6.88523
-5.01162
-4.69133
-3.94668
-2.44815
-0.778379
1.12819
3.61443
6.58435
9.98601
13.4616
16.8813
20.318
24.0127
27.8024
31.4731
34.6354
37.0378
39.2637
42.1832
44.5952
45.6044
46.0516
44.6736
41.7522
37.6972
33.0456
27.2775
21.9748
16.7665
9.10635
3.87635
1.13004
-1.61938
-2.68947
-4.72228
-7.25098
-9.23861
-9.49284
-10.2976
-9.10747
-1.60726
-1.42608
-0.754459
0.503214
2.22534
4.1817
6.87381
10.1107
13.9752
18.2695
22.388
25.8362
29.4397
33.0616
36.561
39.6884
42.1556
44.2515
46.3723
48.2787
49.239
48.9927
46.8316
43.5693
38.8993
33.8631
27.6576
21.9003
16.2112
7.71383
2.37266
-1.61981
-4.18365
-5.88829
-8.0445
-9.54872
-11.8727
-12.1815
-12.8565
-11.0296
0.799784
1.1726
1.92208
3.38232
5.1002
7.35284
10.2519
13.6473
17.5437
22.3192
26.6347
30.3135
33.823
37.2297
40.4526
43.4862
45.8833
47.454
47.9751
50.4601
52.3693
51.2522
48.4506
44.8534
39.6468
34.0995
27.7859
21.657
15.4055
6.31902
0.648381
-2.92236
-6.48893
-8.11204
-9.96911
-11.3388
-14.2868
-13.8184
-15.0297
-12.0499
2.53206
2.86274
4.00823
5.37623
7.40079
9.82916
12.826
16.5389
20.8013
25.6562
29.7031
33.6232
36.6718
39.8711
42.8534
45.5745
47.8872
49.4915
49.7817
51.9403
54.3681
53.376
49.8632
45.976
40.4703
34.4477
27.7399
21.4345
14.563
5.13398
-1.02948
-4.56475
-8.19006
-9.92912
-12.6247
-13.0159
-15.5681
-15.8037
-16.0605
-12.2742
2.61107
4.08826
5.11403
7.06302
9.38237
12.0737
15.3201
19.645
24.1417
27.475
31.5335
35.4217
38.6996
41.7267
44.4684
47.0484
49.1693
50.6337
50.8242
52.8371
55.3705
54.7862
51.2498
47.2497
41.2024
35.0587
27.9412
21.4354
13.7809
4.13232
-2.38373
-6.15916
-9.62674
-11.7187
-14.1077
-14.6909
-16.2584
-15.3962
-15.4288
-8.71728
3.60938
4.178
5.75595
7.8323
9.90901
12.8779
16.8822
21.3198
25.5814
29.3902
33.105
36.6887
39.8276
42.6575
45.1993
47.7598
49.7907
51.3547
51.4835
53.2561
55.6764
55.5823
52.2917
48.056
41.9326
35.6748
28.2182
21.4558
12.9976
3.27921
-3.6733
-7.41447
-10.8896
-12.4044
-15.2214
-15.4328
-17.7261
-15.0929
-13.9574
-4.356
1.33085
5.00561
6.43632
8.90882
11.0771
14.0471
17.8166
22.2389
26.4889
30.4523
34.0788
37.4843
40.4375
43.108
45.4761
47.9647
49.8314
51.4814
51.6779
53.4541
55.6955
56.0115
53.0411
48.4245
42.7545
36.476
28.6204
21.4941
12.4577
2.86737
-4.50616
-8.20429
-11.4742
-12.4714
-15.1132
-14.8959
-16.123
-11.3547
-6.65055
8.26765
0.116178
0.245584
0.400703
0.589971
0.860113
1.28323
1.83888
2.60734
3.56212
4.64094
5.97276
7.50625
9.17674
11.0184
13.1426
15.3085
17.5263
19.9825
23.0585
25.2975
28.9695
31.8883
34.0452
35.9987
37.9327
39.6191
41.2175
42.5419
43.7497
44.8008
45.4833
46.6723
47.5106
48.3792
49.0349
49.5644
50.0057
50.3676
50.5734
50.7187
-0.183569
-0.0165802
0.0749058
0.280323
0.582075
1.01065
1.41817
2.22789
3.18712
4.09122
5.55976
7.24848
8.84715
10.674
12.7532
15.0241
17.4923
20.0032
22.7817
25.266
28.8895
31.9094
34.1744
36.1016
38.0149
39.6708
41.2555
42.5651
43.7797
44.8257
45.7447
46.6043
47.58
48.3381
49.0534
49.587
49.9965
50.3473
50.5878
50.7536
-0.739291
-0.623607
-0.523149
-0.365819
-0.0978955
0.256217
0.640124
1.46652
2.53998
3.53561
4.84635
6.40548
8.15872
10.0956
12.2439
14.5339
17.0248
19.5515
22.285
24.8587
28.4676
31.5085
33.8051
35.713
37.6426
39.2864
40.8773
42.1879
43.4393
44.5414
45.53
46.4981
47.4224
48.2052
49.037
49.5521
49.9945
50.3632
50.6041
50.7594
-1.70907
-1.60471
-1.49492
-1.32318
-1.09729
-0.734345
-0.25924
0.425582
1.38817
2.48483
3.79245
5.36329
7.14527
9.12212
11.3477
13.64
16.1862
18.8019
21.6074
24.2563
27.8763
30.9965
33.328
35.2906
37.2521
38.938
40.5591
41.9106
43.2219
44.383
45.4187
46.3362
47.2583
48.1438
49.0157
49.7257
50.1228
50.4667
50.6831
50.7973
-2.99282
-2.9209
-2.75138
-2.57741
-2.29732
-2.03274
-1.647
-1.06298
-0.109587
1.02841
2.38905
3.93085
5.69072
7.71401
9.99714
12.387
15.04
17.8095
20.6567
23.4072
27.2122
30.4291
32.8147
34.8524
36.8932
38.5964
40.279
41.7265
43.0674
44.2817
45.3768
46.3411
47.1351
48.0108
49.0889
49.8524
50.3104
50.5714
50.6988
50.802
-4.45224
-4.37166
-4.19658
-3.96332
-3.853
-3.59806
-3.32349
-2.76353
-1.79517
-0.63317
0.711374
2.23822
3.98753
6.00483
8.3404
10.8485
13.5604
16.6319
19.8355
22.7833
26.6984
30.0904
32.5858
34.704
36.7854
38.5712
40.1752
41.5375
42.8362
44.14
45.2776
46.3938
47.3052
48.2413
49.3587
50.0704
50.3521
50.5493
50.6465
50.6816
-6.21389
-6.09935
-5.9573
-5.68161
-5.59743
-5.39166
-5.17702
-4.63178
-3.79046
-2.70102
-1.32587
0.246209
2.07528
4.16692
6.49496
9.20696
12.1737
15.4049
18.9101
22.1551
26.1032
29.7794
32.4472
34.657
36.7843
38.6067
40.2595
41.6416
42.929
44.0815
45.1391
46.1224
47.1044
48.0825
49.2717
49.9681
50.2264
50.3688
50.4483
50.4589
-7.56322
-7.51972
-7.48758
-7.33995
-7.35887
-7.25756
-7.08782
-6.60481
-5.80558
-4.7992
-3.49326
-1.90643
-0.0271602
2.16674
4.71293
7.52063
10.6335
14.032
17.7976
21.3227
25.2748
29.4512
32.3672
34.6516
36.8059
38.6638
40.3399
41.734
42.9905
43.9179
44.9855
45.9576
46.8573
47.7852
48.8055
49.6778
49.9194
50.0555
50.11
50.119
-9.03342
-9.01224
-8.98092
-8.95071
-8.91143
-8.9871
-8.94872
-8.62816
-7.95912
-7.07989
-5.83796
-4.27676
-2.28803
-0.00833035
2.66735
5.66874
9.02081
12.6908
16.6782
20.4917
24.5112
28.9335
32.1911
34.5964
36.7794
38.673
40.3872
41.8175
42.9693
43.9775
44.7252
45.6774
46.5386
47.4546
48.3179
49.229
49.5232
49.629
49.6624
49.6617
-10.546
-10.5666
-10.5792
-10.6737
-10.6785
-11.0177
-11.0776
-10.8404
-10.2757
-9.45964
-8.28432
-6.71557
-4.75759
-2.40885
0.398158
3.61372
7.2942
11.3579
15.6816
19.8292
24.0123
28.3825
31.9048
34.4619
36.7048
38.6686
40.4091
41.7617
42.9841
43.8521
44.7392
45.4479
46.2489
47.0212
47.805
48.5873
49.0371
49.0802
49.0837
49.0745
-12.1826
-12.2555
-12.2749
-12.4463
-12.5813
-13.2145
-13.167
-13.0822
-12.6249
-11.9236
-10.8344
-9.35539
-7.4426
-5.05043
-2.08248
1.41512
5.47287
9.87182
14.5009
18.9888
23.3938
27.868
31.523
34.2534
36.5449
38.6045
40.2711
41.6629
42.7109
43.8045
44.6651
45.6403
46.324
46.9335
47.3396
48.007
48.2813
48.4062
48.3823
48.3712
-13.8055
-13.8522
-14.0164
-14.233
-14.7203
-15.1918
-15.3474
-15.5985
-15.1256
-14.4883
-13.5392
-12.1685
-10.3193
-7.86641
-4.66842
-0.876259
3.44578
8.12706
13.0597
17.8879
22.5973
27.3599
31.1474
33.9876
36.3352
38.3371
39.9741
41.3291
42.5552
43.6992
44.3581
44.6577
45.1097
45.634
46.4143
47.3023
47.6887
47.6061
47.522
47.5047
-15.4854
-15.5674
-15.7875
-16.1505
-16.8485
-17.248
-17.631
-17.7209
-17.8543
-17.2116
-16.3228
-15.0975
-13.2762
-10.6911
-7.37569
-3.38717
1.18526
6.17521
11.4413
16.6378
21.7154
26.9473
30.8087
33.6861
36.0298
37.9144
39.5336
41.0222
42.1482
42.6559
43.2969
43.8673
44.3994
44.8571
45.3468
45.8243
46.7177
46.7708
46.566
46.5502
-17.0802
-17.196
-17.5199
-18.0766
-18.759
-19.3204
-19.6486
-20.1287
-20.1959
-20.101
-19.1625
-18.0296
-16.2118
-13.6683
-10.34
-6.18117
-1.31902
4.03295
9.70145
15.2936
20.7735
26.4723
30.341
33.3555
35.5472
37.5295
39.102
40.1902
40.9605
41.7153
42.3723
42.9611
43.4697
43.9493
44.2945
44.6909
44.9837
45.4038
45.2273
45.327
-18.7606
-18.9338
-19.3945
-19.9918
-20.6611
-21.3136
-21.8447
-22.3044
-22.7115
-22.8416
-21.9349
-20.842
-19.1567
-16.7583
-13.4839
-9.19021
-4.02748
1.73539
7.80687
13.773
19.4636
25.3056
29.3928
32.1434
34.4297
36.2484
37.6567
38.8665
39.7682
40.5448
41.1981
41.7624
42.2806
42.7445
43.1746
43.4993
43.8229
44.1633
44.3924
43.9945
-20.1752
-20.408
-20.8922
-21.5536
-22.2783
-23.0488
-23.7756
-24.4808
-24.8499
-25.4021
-24.567
-23.576
-22.0835
-19.8166
-16.6578
-12.4748
-7.15368
-0.964741
5.65992
12.067
17.5131
23.2633
28.1173
31.0003
33.04
34.8115
36.2512
37.3515
38.221
38.996
39.6626
40.2779
40.8236
41.3323
41.7832
42.2111
42.4049
42.4223
42.4415
42.4071
-21.8001
-22.0198
-22.4974
-23.1592
-23.8811
-24.8633
-25.7417
-26.5913
-27.1817
-27.5918
-27.0762
-26.2887
-24.8944
-22.6793
-19.6038
-15.513
-10.3943
-3.39268
3.45755
9.53395
15.6176
21.5872
26.1463
29.1479
31.3382
33.0231
34.2039
35.3337
36.2445
37.0261
37.7313
38.3861
38.9887
39.5709
40.0961
40.5476
40.8845
40.8984
41.1759
40.8475
-22.6622
-22.9324
-23.4065
-24.0881
-24.9148
-26.1467
-27.32
-28.3644
-29.102
-29.5504
-29.1665
-28.706
-27.4012
-25.2484
-22.1819
-18.2167
-13.2219
-5.91225
0.731198
7.12326
13.6558
19.0484
22.8753
25.256
27.4613
29.7925
31.5777
32.6613
33.4398
34.403
35.2795
36.0937
36.8434
37.5765
38.2357
38.7795
39.1234
39.1408
38.8409
39.4189
-23.9394
-24.0779
-24.5091
-24.9992
-25.9576
-27.3977
-28.8738
-30.0404
-30.8449
-31.4177
-31.0376
-30.8967
-29.7003
-27.5718
-24.5184
-20.5603
-15.5267
-8.14168
-1.09934
5.43296
11.332
16.4417
19.6318
21.2589
22.8338
24.8484
26.8208
28.5496
29.7165
30.9455
31.9802
32.9908
33.9603
34.9221
35.7008
36.3041
36.8253
37.0536
36.7901
36.7256
-23.3275
-23.5275
-24.0532
-24.7285
-25.8662
-28.118
-30.1735
-31.6131
-32.7463
-33.5865
-33.2611
-33.2242
-32.0283
-29.6991
-26.3787
-22.0839
-16.5988
-9.19876
-2.63459
3.41757
8.85791
13.89
16.8731
18.0281
19.0685
20.3366
21.8505
23.6024
24.7313
26.1403
27.5737
29.1945
30.666
31.8418
32.8093
33.6006
34.1088
34.4558
34.5176
34.4953
-23.9789
-24.0967
-24.517
-25.1507
-26.6503
-29.5497
-31.886
-33.4494
-34.6731
-35.6291
-35.3204
-35.3208
-34.0754
-31.5709
-27.8346
-22.993
-17.166
-10.1418
-3.72156
1.21417
5.82458
10.7921
13.6928
14.3822
15.0293
15.9877
17.3885
19.2249
20.8581
22.6375
23.7911
24.8811
26.1657
28.003
29.681
30.8067
31.3983
31.6721
31.7494
31.5429
-24.5927
-24.4837
-24.8839
-25.4676
-27.2728
-30.3231
-32.778
-34.4531
-35.8619
-36.786
-37.0798
-37.0841
-36.0819
-33.644
-29.5197
-24.1576
-17.7633
-10.8808
-4.81368
-0.46653
3.1068
7.7335
10.5177
10.3641
10.0927
10.9468
12.4017
14.5692
16.8842
19.4166
21.4335
22.5748
23.5522
24.2429
25.1054
26.9136
28.166
28.9009
29.1825
29.3516
-25.1666
-25.0369
-25.4026
-25.9938
-28.0036
-30.8534
-33.2962
-35.0626
-36.5096
-37.5853
-38.3315
-38.5842
-38.1455
-36.2212
-32.0794
-26.4715
-19.4855
-11.3226
-4.98585
-0.452811
2.21536
4.96218
6.67501
5.22952
4.1011
5.37848
7.07411
9.67855
12.6985
15.8612
18.526
20.5434
21.8332
22.7864
23.0728
23.7046
24.6427
25.1455
25.3468
25.2036
-25.1586
-24.957
-25.259
-25.9862
-28.0394
-30.5932
-32.9183
-34.7158
-36.2164
-37.505
-38.8568
-39.518
-40.2365
-39.6649
-36.6721
-31.4844
-24.5461
-16.7371
-8.03814
-1.59179
0.986613
2.54612
3.67476
1.57232
0.0821519
0.930725
2.73473
5.57698
9.13739
12.8037
15.9011
18.8823
20.0908
21.0383
21.5191
22.0814
22.6733
23.2098
23.6472
23.967
-24.5178
-24.4954
-24.7284
-25.622
-27.476
-29.7232
-31.8602
-33.5811
-34.9897
-36.3236
-37.939
-39.6486
-41.4465
-42.7233
-41.873
-37.5197
-31.0211
-24.0788
-15.48
-5.83277
-1.7587
0.0464314
1.09348
0.131251
-1.0727
-0.865325
0.411117
2.91091
6.7105
10.7424
14.2755
17.4054
19.3144
20.0197
20.3003
20.6027
20.8178
21.1232
21.4392
21.617
-23.626
-23.6687
-23.853
-24.579
-26.1073
-28.1161
-29.9776
-31.3734
-32.4237
-33.4455
-34.9402
-36.9107
-39.095
-41.5077
-42.3954
-40.5727
-38.3936
-34.3959
-25.2662
-15.3881
-8.92473
-5.19587
-3.05549
-3.37831
-3.29608
-1.92319
-0.184937
2.32599
6.0218
9.877
13.3549
16.3439
17.9684
18.7396
18.8609
18.9443
18.8758
18.9999
19.1661
19.2808
-22.505
-22.5476
-22.5649
-22.9451
-24.1487
-26.0179
-27.581
-28.5262
-29.0841
-29.5133
-30.3243
-31.6136
-32.9818
-34.8628
-35.8613
-35.3166
-34.6475
-31.8997
-24.5028
-17.37
-12.7804
-9.20019
-6.24187
-5.7732
-3.94784
-0.977061
2.0554
4.59742
7.63056
10.7559
13.6329
16.262
17.358
17.927
17.7125
17.5434
17.206
17.0634
16.965
17.0603
-20.6631
-21.0141
-20.882
-20.867
-21.7464
-23.3645
-24.5213
-24.8808
-24.8492
-24.6414
-24.5034
-24.4587
-24.829
-25.3757
-25.5769
-25.36
-23.9848
-18.0948
-12.4391
-9.9975
-9.57823
-5.77445
-3.5237
-2.6096
0.690198
4.12214
6.82207
8.94199
10.6324
12.4564
14.0998
15.261
15.5842
14.965
14.4172
13.8828
13.4327
13.2441
13.136
13.5612
-19.3511
-19.4201
-18.9556
-18.6834
-19.0877
-20.2364
-20.8717
-20.7632
-20.0499
-18.9488
-17.7387
-16.6122
-16.1807
-16.5582
-16.8958
-16.5051
-14.0918
-8.98693
-5.0899
-2.6238
-1.96364
2.44802
5.62428
6.40881
9.02566
11.1498
12.2689
13.0894
13.1586
13.3871
13.052
12.252
10.8264
9.99847
9.43153
8.6118
7.95203
7.43522
7.02605
6.86612
-17.2911
-16.8391
-16.6297
-16.242
-16.0991
-16.3914
-16.2864
-15.4976
-14.1944
-12.4344
-10.4634
-9.46108
-8.63804
-7.77056
-7.28882
-6.05683
-3.74291
0.4116
5.43092
8.87329
11.3525
15.5538
18.619
18.4722
18.8341
18.8018
17.701
16.3804
14.5675
13.1553
11.5428
9.91752
8.45417
6.90212
6.15755
4.86778
3.8254
3.01239
2.54543
2.30516
-14.9867
-14.3654
-14.1289
-13.5024
-12.4975
-11.6426
-10.9004
-9.73399
-8.1617
-6.19344
-4.29435
-2.00662
0.610645
2.76073
4.18324
6.26207
8.41699
11.2831
15.6131
19.7875
24.8903
28.4541
30.4266
29.2685
27.4493
25.1597
21.9359
18.8316
15.4615
12.097
9.41238
7.87237
6.18549
4.88782
3.04128
1.69831
0.118835
-0.820016
-1.3426
-1.51992
-12.2652
-11.8966
-11.1289
-10.0893
-8.37758
-6.86491
-5.47081
-3.78359
-1.83689
0.461308
2.77116
6.27398
9.85495
13.0625
16.0611
18.3203
20.8202
23.5679
26.6716
31.2749
34.5646
37.2635
38.405
36.6618
33.424
29.7011
25.1945
21.1307
16.7311
11.1551
7.12476
5.50248
3.46433
2.06657
0.110745
-1.38739
-3.61604
-4.32613
-4.85211
-4.94253
-9.19369
-8.74954
-7.70961
-6.38864
-4.63474
-2.56178
-0.310756
1.9963
4.47092
7.60968
10.8066
14.2077
17.956
21.8146
25.4648
28.5883
31.1972
33.0749
36.2474
40.091
42.0288
43.393
43.3024
41.3712
37.5104
32.7546
27.3909
22.4385
17.2667
10.113
5.10947
2.99427
0.585699
-1.0907
-3.22744
-4.39983
-6.76389
-7.68239
-8.05222
-8.01139
-5.30115
-4.92828
-4.16587
-2.66828
-0.732183
0.990616
3.64444
6.49294
10.1586
13.7872
17.4663
21.13
24.8227
28.7345
32.6805
36.0161
38.3738
40.6251
43.6747
46.5151
47.8293
48.1265
46.735
44.0206
39.8053
34.4769
28.3942
22.8063
16.9404
9.03309
3.3192
0.383775
-2.3368
-3.95176
-6.43025
-7.33168
-10.0825
-10.397
-11.2477
-10.6607
-1.87074
-1.67111
-1.13022
0.212018
1.94835
4.12202
7.18573
10.7688
14.3766
18.2828
22.3696
26.2473
29.9693
33.637
37.4085
40.9405
43.5868
45.9327
47.7778
50.2805
51.4821
51.2104
48.8679
45.503
40.5726
35.0182
28.5171
22.5697
16.3719
7.71499
1.79238
-2.30248
-5.10079
-6.93999
-9.33253
-10.7511
-12.7808
-13.199
-14.269
-13.034
0.637066
0.680008
1.68402
3.19103
5.06659
7.38906
10.9987
14.8146
17.9945
22.1815
26.4935
30.6317
34.4938
38.0388
41.3323
44.6516
47.2471
49.5054
50.1999
52.3174
53.8898
53.3639
50.3807
46.4967
41.0284
34.9968
28.3492
22.0838
15.2398
6.28478
0.0183843
-4.15752
-7.79129
-9.26075
-11.8301
-12.7667
-15.3374
-15.288
-16.6133
-14.3609
2.2656
2.48824
3.72268
5.16092
7.42887
10.008
13.2921
17.5953
21.3826
25.2778
29.5889
33.8028
37.5933
41.1238
44.2698
47.1423
49.5393
51.4271
51.7238
53.3025
55.1354
54.7172
51.4386
47.2143
41.3923
35.1182
28.1026
21.7093
14.1616
4.88361
-1.83796
-5.41462
-9.21056
-11.193
-14.1495
-14.8488
-17.1811
-16.9483
-18.6291
-14.0257
2.65466
4.16064
5.26055
7.19006
9.48762
12.2783
15.6876
20.3026
23.8132
27.6492
31.8874
36.0875
39.7657
43.1042
46.0602
48.7179
50.8931
52.336
52.6978
54.0734
56.0373
55.7324
52.4074
48.0636
41.9449
35.6297
28.1533
21.4497
13.2483
3.73575
-3.25329
-7.12623
-10.7494
-12.8508
-15.3861
-15.8979
-17.88
-16.608
-17.084
-9.49191
3.87295
4.34731
5.96198
7.76181
10.3926
13.2403
17.5234
21.6253
25.6463
29.6784
33.4813
37.3929
40.9618
44.1635
46.9471
49.5736
51.6048
52.8655
53.3683
54.7847
56.4003
56.3018
53.0841
48.6071
42.3622
36.0547
28.3253
21.3542
12.4934
2.8448
-4.57215
-8.59624
-12.1914
-13.6563
-16.5093
-16.7114
-18.4898
-15.9654
-14.052
-2.83165
1.68052
5.33335
6.74746
9.07304
11.4151
14.4308
18.4778
22.8518
27.0725
31.0039
34.7489
38.3855
41.6924
44.7527
47.361
49.8724
51.7251
52.9137
53.3925
55.007
56.4783
56.6772
53.7674
49.2598
43.1384
36.8183
28.7279
21.3316
12.0138
2.36659
-5.25734
-9.25545
-12.6767
-13.6638
-16.2056
-16.1489
-16.8265
-11.8432
-4.42267
13.1665
0.376305
0.481395
0.648961
0.769118
1.00577
1.41017
2.02625
2.75947
3.72655
4.83212
6.13666
7.64169
9.32097
10.9274
13.1865
15.5112
17.9014
20.3892
23.224
25.5247
29.1691
32.2849
34.509
36.4424
38.3682
39.988
41.5435
42.8626
44.0553
45.1124
45.8658
46.9198
47.7986
48.6031
49.2417
49.7309
50.1213
50.4831
50.7965
50.9015
0.0972185
0.162982
0.31711
0.465339
0.740313
1.11837
1.63658
2.29851
3.45299
4.53249
5.78954
7.2884
8.96866
10.8147
12.9602
15.226
17.7168
20.2274
22.9777
25.5287
29.1693
32.1932
34.4766
36.3987
38.3026
39.8978
41.4376
42.7223
43.941
44.9583
45.888
46.8921
47.7556
48.553
49.2693
49.7842
50.1675
50.5236
50.7702
50.9216
-0.478089
-0.382465
-0.280062
-0.17537
0.088035
0.434653
1.0025
1.67195
2.67067
3.74501
5.04549
6.55133
8.28957
10.2373
12.3619
14.6166
17.144
19.7084
22.4764
25.116
28.7262
31.6874
33.9981
35.9229
37.8215
39.4268
40.9388
42.2345
43.4665
44.6428
45.5695
46.6323
47.6113
48.5397
49.3869
49.7724
50.2152
50.5561
50.7881
50.9178
-1.39945
-1.32621
-1.19497
-1.07422
-0.811162
-0.500125
-0.0477924
0.617089
1.56995
2.67705
3.98199
5.51768
7.28849
9.25122
11.3813
13.6732
16.2643
18.9099
21.7506
24.4786
28.0816
31.1038
33.453
35.4363
37.4046
39.0437
40.5928
41.8846
43.2323
44.4033
45.572
46.4997
47.5421
48.4888
49.3436
49.9367
50.4002
50.6627
50.8651
50.9709
-2.66012
-2.61262
-2.42594
-2.29048
-2.06557
-1.81208
-1.41032
-0.841104
0.088307
1.21232
2.55708
4.07969
5.84746
7.85074
10.0144
12.4052
15.1053
17.8824
20.8857
23.7108
27.2654
30.3312
32.7923
34.9114
37.043
38.8296
40.3771
41.7526
43.1278
44.3282
45.4601
46.5739
47.3578
48.4196
49.4085
50.0726
50.53
50.7662
50.8952
50.9725
-4.06609
-4.01428
-3.89357
-3.76487
-3.609
-3.38634
-3.099
-2.55808
-1.61776
-0.516388
0.789094
2.33333
4.14871
6.18301
8.41411
10.9365
13.759
16.5718
19.9197
22.9636
26.885
30.1897
32.7551
34.8877
36.9564
38.7346
40.189
41.5478
43.1523
44.2792
45.4575
46.4075
47.4384
48.5619
49.5518
50.2715
50.5749
50.7558
50.8409
50.8787
-5.75481
-5.70075
-5.60169
-5.4941
-5.36084
-5.22231
-4.98361
-4.51856
-3.70253
-2.6346
-1.27515
0.305434
2.16765
4.24632
6.6088
9.27175
12.2435
15.5163
18.9854
22.2787
26.2631
29.8309
32.5868
34.8162
36.931
38.7715
40.4257
41.8696
43.2611
44.1711
45.209
46.1515
47.1765
48.1553
49.7227
50.2669
50.5027
50.606
50.6662
50.6811
-7.20402
-7.20471
-7.21999
-7.212
-7.19352
-7.14393
-7.00457
-6.55188
-5.77784
-4.79622
-3.50709
-1.93007
-0.00274423
2.12362
4.71576
7.60966
10.7948
14.2071
17.9016
21.4537
25.5552
29.544
32.5243
34.8354
36.9825
38.8727
40.536
42.1334
43.4288
44.3638
44.9498
45.9587
46.8242
47.879
49.0455
50.0489
50.2115