/*--------------------------------*- C++ -*----------------------------------*\
| =========                 |                                                 |
| \\      /  F ield         | OpenFOAM: The Open Source CFD Toolbox           |
|  \\    /   O peration     | Version:  v1806                                 |
|   \\  /    A nd           | Web:      www.OpenFOAM.com                      |
|    \\/     M anipulation  |                                                 |
\*---------------------------------------------------------------------------*/
FoamFile
{
    version     2.0;
    format      ascii;
    class       volVectorField;
    location    "0.102";
    object      U;
}
// * * * * * * * * * * * * * * * * * * * * * * * * * * * * * * * * * * * * * //

dimensions      [0 1 -1 0 0 0 0];


internalField   nonuniform List<vector> 
64000
(
(-0.0106615 -0.0130513 -0.00919381)
(0.0173084 -0.0126037 -0.0067369)
(0.0246627 -0.00432055 -1.09619e-05)
(0.0299486 -0.00343391 0.000939684)
(0.0315418 -0.0023662 0.00130431)
(0.0322868 -0.00288896 0.00173298)
(0.0322315 -0.00387999 0.00178398)
(0.029744 -0.00447878 0.00224244)
(0.0289149 -0.00540384 0.00344202)
(0.0230829 -0.00538322 0.00392407)
(0.0167944 -0.00612576 0.00359558)
(0.00724912 -0.00659086 0.00819639)
(-0.00675784 -0.0124254 0.00543787)
(-0.0322183 -0.0171961 0.00374523)
(-0.0582104 -0.0179123 0.00414661)
(-0.0943398 -0.0178492 0.00234245)
(-0.119165 -7.70955e-05 0.000802036)
(-0.164444 -0.00466322 -0.00343716)
(-0.159326 -0.00948759 0.00396244)
(-0.222329 -0.0276188 -0.0152263)
(-0.188529 -0.0187488 -0.0188084)
(-0.0895276 -0.0217689 -0.0377584)
(-0.106062 -0.00512809 -0.0235688)
(-0.105301 -0.00140999 -0.0369285)
(-0.126437 0.00467941 -0.0478258)
(-0.120958 0.0127259 -0.0576917)
(-0.110063 0.0229643 -0.0621447)
(-0.0734321 0.0333102 -0.0590078)
(-0.0392684 0.0406869 -0.0543937)
(0.00455461 0.0513485 -0.0411675)
(0.0486498 0.0497774 -0.0323278)
(0.0860622 0.0393661 -0.0257269)
(0.102017 0.0292773 -0.0130005)
(0.0994058 0.0153977 -0.00574593)
(0.0856348 0.00667529 0.000569163)
(0.0676756 -0.00126026 0.00313315)
(0.0493525 -0.00542146 0.00388102)
(0.0297795 -0.00511076 0.00464128)
(0.0159818 -0.00375609 0.00493767)
(0.00228157 -0.00241546 0.00312085)
(-0.00760951 0.00268485 -0.00563466)
(0.00989326 -0.0170216 -0.00526089)
(0.0264864 -0.0109078 -0.00244591)
(0.0379242 -0.00708106 -0.0012327)
(0.0440235 -0.00254398 -0.0017488)
(0.0446395 -0.000826908 -0.00197338)
(0.0437751 0.00285396 -0.00368801)
(0.0374574 0.00444173 -0.00305209)
(0.0306763 0.00873774 -0.00815136)
(0.0140214 0.0156916 -0.00375385)
(-0.00767851 0.0238599 -0.00834733)
(-0.0433658 0.0334919 0.000840451)
(-0.0885049 0.0417626 -0.00424013)
(-0.140815 0.0617869 -0.00687091)
(-0.197973 0.0750629 -0.0117486)
(-0.254702 0.0841374 -0.0179179)
(-0.328798 0.0926128 -0.0449813)
(-0.434802 0.0943303 -0.0597301)
(-0.477729 0.100818 -0.0774892)
(-0.564518 0.100484 -0.0971582)
(-0.510526 0.130849 -0.0914788)
(-0.383251 0.146066 -0.125328)
(-0.381475 0.193421 -0.133223)
(-0.367945 0.215745 -0.144492)
(-0.362277 0.240014 -0.156514)
(-0.323724 0.261181 -0.162972)
(-0.277118 0.282125 -0.164428)
(-0.204632 0.297063 -0.152841)
(-0.130733 0.303301 -0.13333)
(-0.0570729 0.306341 -0.109845)
(0.00585719 0.291797 -0.0770647)
(0.0691913 0.260685 -0.0465116)
(0.107026 0.213262 -0.0391616)
(0.119539 0.161049 -0.0261636)
(0.11469 0.110914 -0.0130476)
(0.096346 0.071223 -0.00554528)
(0.0772738 0.0428471 -0.00125251)
(0.0532935 0.0278163 -0.000262449)
(0.0319523 0.0179172 0.00104419)
(0.00776475 0.00955229 0.000970624)
(-9.00903e-05 -0.00438111 0.00138812)
(0.0167197 -0.022631 -0.00233837)
(0.0345796 -0.0176603 -0.00339096)
(0.0460266 -0.00560848 -0.00475069)
(0.0485882 0.00358363 -0.0063111)
(0.0469047 0.0144435 -0.00761249)
(0.0403857 0.0292673 -0.00856966)
(0.0259702 0.043059 -0.0104242)
(0.011717 0.0672418 -0.00161429)
(-0.0169528 0.089055 -0.00497348)
(-0.0543443 0.116035 -0.00828542)
(-0.10615 0.147989 -0.0131284)
(-0.158765 0.181908 -0.0176611)
(-0.236224 0.211078 -0.0328536)
(-0.33007 0.231591 -0.0365116)
(-0.426026 0.245992 -0.0430652)
(-0.50727 0.250507 -0.0603192)
(-0.595274 0.269839 -0.0795795)
(-0.633417 0.301541 -0.0975806)
(-0.705368 0.337551 -0.115996)
(-0.636296 0.375441 -0.102235)
(-0.482034 0.408826 -0.124543)
(-0.457726 0.46581 -0.123723)
(-0.433099 0.495465 -0.123054)
(-0.418465 0.527438 -0.126587)
(-0.375488 0.548452 -0.125331)
(-0.328434 0.562934 -0.120623)
(-0.26207 0.565427 -0.105077)
(-0.197549 0.555254 -0.08269)
(-0.131139 0.534345 -0.0594848)
(-0.076497 0.501719 -0.0399504)
(-0.0311875 0.453621 -0.0280846)
(0.00171125 0.381089 -0.0176813)
(0.0243984 0.308095 -0.00894409)
(0.0383525 0.229137 -0.0107467)
(0.0448634 0.164765 -0.0110529)
(0.0458419 0.118036 -0.00749399)
(0.0372741 0.0813744 -0.00534089)
(0.0266698 0.0551527 -0.00181075)
(0.00774296 0.0292109 0.00082631)
(0.00137979 -0.00865282 0.00186186)
(0.0189409 -0.02413 -0.00155546)
(0.040499 -0.0116625 -0.00416744)
(0.0487119 0.00486134 -0.00747388)
(0.0469151 0.0286958 -0.00818429)
(0.0435731 0.0526864 -0.0094933)
(0.0311173 0.0878825 -0.00960401)
(0.0135981 0.120553 -0.00594047)
(-0.0118606 0.166047 -0.0107649)
(-0.0568011 0.205564 -0.0130531)
(-0.101975 0.249737 -0.0176027)
(-0.165164 0.287717 -0.0249765)
(-0.246125 0.317181 -0.0282795)
(-0.336427 0.333696 -0.0297221)
(-0.420504 0.355875 -0.0327941)
(-0.499252 0.379233 -0.0373537)
(-0.565159 0.410526 -0.0532392)
(-0.640039 0.439789 -0.0637312)
(-0.664546 0.483972 -0.0738797)
(-0.724162 0.530879 -0.0784922)
(-0.642903 0.562693 -0.0433301)
(-0.46724 0.588226 -0.0461398)
(-0.430066 0.629133 -0.0384659)
(-0.405227 0.634528 -0.0293558)
(-0.391505 0.647708 -0.0278575)
(-0.357438 0.647494 -0.0231361)
(-0.322124 0.64015 -0.0196842)
(-0.272358 0.620682 -0.0117992)
(-0.225484 0.5946 0.000135832)
(-0.179778 0.560954 0.00737714)
(-0.149514 0.519133 0.0121325)
(-0.123253 0.473148 0.0108106)
(-0.0990733 0.412459 0.00482018)
(-0.0758958 0.350406 -0.00300543)
(-0.0518139 0.271808 -0.00639495)
(-0.0213543 0.20492 -0.0109691)
(-0.000433304 0.150824 -0.0112457)
(0.00802368 0.114671 -0.00850697)
(0.0161425 0.0816844 -0.00397302)
(0.00607504 0.0423301 0.000591603)
(0.00125755 -0.00944478 0.000289129)
(0.0244623 -0.013537 -0.00405685)
(0.0476801 0.00320952 -0.00819344)
(0.0570404 0.0365507 -0.00913021)
(0.0547722 0.0735907 -0.00897452)
(0.0493078 0.118896 -0.0160431)
(0.0321122 0.173563 -0.0143481)
(0.00490221 0.232922 -0.00683897)
(-0.0268367 0.2891 -0.00837853)
(-0.0789731 0.336584 -0.0106892)
(-0.137234 0.374804 -0.0137619)
(-0.214136 0.396182 -0.0163771)
(-0.287293 0.418834 -0.0168546)
(-0.360468 0.443832 -0.0217721)
(-0.430392 0.474711 -0.0221102)
(-0.498568 0.507942 -0.022936)
(-0.551942 0.537721 -0.0276585)
(-0.608525 0.571775 -0.0261456)
(-0.613308 0.623869 -0.0199639)
(-0.658331 0.672081 -0.0268135)
(-0.577484 0.698111 0.00884689)
(-0.395402 0.707429 0.0168985)
(-0.355162 0.718555 0.0302563)
(-0.33968 0.689651 0.0367892)
(-0.338242 0.673363 0.0363306)
(-0.323379 0.646529 0.0420893)
(-0.307822 0.614945 0.0430134)
(-0.276725 0.577554 0.0466615)
(-0.250562 0.536091 0.0397442)
(-0.224703 0.495526 0.0311251)
(-0.205992 0.449952 0.0208372)
(-0.195708 0.416114 0.013939)
(-0.186074 0.377239 0.0066749)
(-0.176484 0.345761 -0.00524707)
(-0.152661 0.282706 -0.0146072)
(-0.103582 0.213319 -0.0153784)
(-0.0523929 0.165221 -0.014452)
(-0.0172725 0.134893 -0.0122011)
(0.00256006 0.100972 -0.00675302)
(0.00312208 0.052862 0.000616119)
(0.00594372 -0.00378674 -0.000235401)
(0.029234 0.00178824 -0.0069029)
(0.0609501 0.0284041 -0.006931)
(0.0731618 0.0789715 -0.0102882)
(0.0682029 0.136333 -0.0153312)
(0.065459 0.199446 -0.0195555)
(0.0495336 0.273785 -0.0150189)
(0.0168514 0.328489 -0.00668057)
(-0.0337412 0.373759 -0.00674058)
(-0.102086 0.408795 -0.00904967)
(-0.169884 0.43939 -0.0111262)
(-0.234091 0.467496 -0.0111727)
(-0.291464 0.501845 -0.00952167)
(-0.349304 0.531151 -0.00630258)
(-0.397446 0.561531 -0.000883305)
(-0.449837 0.590591 0.00482904)
(-0.481733 0.621435 0.00855163)
(-0.513845 0.652753 0.00831056)
(-0.511624 0.703187 0.00825113)
(-0.545488 0.740867 0.00948916)
(-0.467092 0.761113 0.0434063)
(-0.303154 0.717863 0.0541109)
(-0.281087 0.699474 0.0666412)
(-0.287224 0.639216 0.0765249)
(-0.30014 0.600164 0.0774501)
(-0.304441 0.556965 0.0762954)
(-0.304766 0.514936 0.0733535)
(-0.293836 0.472134 0.0663247)
(-0.280842 0.424979 0.0640859)
(-0.269011 0.385537 0.0423279)
(-0.259878 0.341391 0.0304607)
(-0.248687 0.310488 0.0145254)
(-0.234368 0.283608 0.00449826)
(-0.238613 0.271794 -0.00707332)
(-0.240324 0.24706 -0.0184704)
(-0.175716 0.197839 -0.0155825)
(-0.0933558 0.166201 -0.016105)
(-0.0408566 0.140626 -0.0126307)
(-0.00518474 0.109002 -0.00756285)
(0.00217417 0.0568394 0.00113571)
(0.00600096 0.00215334 -0.00160576)
(0.0381661 0.0157504 -0.0101822)
(0.0812996 0.0560707 -0.0108753)
(0.105811 0.110677 -0.013035)
(0.10206 0.176788 -0.0184535)
(0.0992722 0.248673 -0.021683)
(0.0626905 0.316961 -0.0159274)
(0.000644145 0.344375 -0.000232895)
(-0.0491568 0.38876 -0.00533546)
(-0.10466 0.426843 -0.00594108)
(-0.151505 0.471757 -0.0058655)
(-0.200915 0.515452 -0.00381144)
(-0.245988 0.556653 -3.87284e-05)
(-0.292322 0.590808 0.00449746)
(-0.331064 0.624776 0.0129594)
(-0.366295 0.650175 0.0180346)
(-0.386609 0.679114 0.0248734)
(-0.405932 0.692244 0.0279451)
(-0.389962 0.71693 0.0271989)
(-0.41267 0.730986 0.0172203)
(-0.393953 0.748667 0.0398556)
(-0.260245 0.638926 0.0571873)
(-0.22813 0.598138 0.0641013)
(-0.252237 0.533647 0.0745093)
(-0.276132 0.49365 0.0735221)
(-0.297852 0.454969 0.0720217)
(-0.314431 0.420501 0.0676036)
(-0.320475 0.385283 0.0595177)
(-0.320535 0.347953 0.045693)
(-0.321134 0.312923 0.0290714)
(-0.318232 0.279263 0.0154108)
(-0.310179 0.250563 0.00193061)
(-0.294586 0.22922 -0.00548396)
(-0.286718 0.213668 -0.0130919)
(-0.289152 0.223317 -0.0210855)
(-0.227871 0.198293 -0.0220452)
(-0.128182 0.172586 -0.0227131)
(-0.0561783 0.151999 -0.017643)
(-0.0104139 0.118827 -0.0114483)
(0.00213947 0.0624887 -0.000599661)
(0.00699826 0.00863562 -0.00419393)
(0.0457094 0.0348467 -0.0140274)
(0.0996841 0.0834764 -0.0142145)
(0.126232 0.139571 -0.0122832)
(0.129241 0.198905 -0.0133273)
(0.119281 0.271016 -0.0155982)
(0.0596003 0.304958 -0.00570827)
(0.010274 0.351143 0.00292837)
(-0.0178803 0.396965 -0.00163215)
(-0.0667421 0.452458 0.000111597)
(-0.106645 0.497735 0.000736497)
(-0.148039 0.537086 0.00706553)
(-0.183948 0.571232 0.012707)
(-0.215675 0.599127 0.021161)
(-0.241162 0.626168 0.0255129)
(-0.269871 0.641725 0.0303052)
(-0.286275 0.655092 0.0336009)
(-0.304302 0.65247 0.0329302)
(-0.298743 0.651087 0.030169)
(-0.312809 0.623377 0.0141927)
(-0.346414 0.632428 0.0197418)
(-0.260151 0.536081 0.038967)
(-0.207818 0.471448 0.0417945)
(-0.238829 0.428623 0.053061)
(-0.270623 0.39562 0.0555281)
(-0.303763 0.369961 0.0561226)
(-0.330676 0.344954 0.056374)
(-0.348723 0.318126 0.0481901)
(-0.360394 0.290519 0.0376549)
(-0.367303 0.259637 0.0149087)
(-0.36879 0.227614 0.0049816)
(-0.359043 0.202039 -0.00450879)
(-0.343341 0.188779 -0.0118885)
(-0.322637 0.177984 -0.0152933)
(-0.32812 0.198192 -0.0247987)
(-0.277734 0.202176 -0.0219425)
(-0.162625 0.17848 -0.0233813)
(-0.0748603 0.16165 -0.0180677)
(-0.0155665 0.126351 -0.0110565)
(0.00301758 0.0667107 0.000194385)
(0.00552529 0.0231843 -0.00716498)
(0.0541194 0.0671981 -0.0181233)
(0.120056 0.12305 -0.0197929)
(0.152789 0.17928 -0.0144235)
(0.161569 0.239888 -0.0150249)
(0.132947 0.293544 -0.0157972)
(0.0802806 0.326926 -0.0061673)
(0.0402049 0.387547 0.00152403)
(0.0157854 0.425243 0.00820866)
(-0.0158222 0.467689 0.00715731)
(-0.0543759 0.502373 0.0117883)
(-0.0852789 0.532599 0.0166923)
(-0.110691 0.555256 0.0251702)
(-0.134462 0.569677 0.0311672)
(-0.157266 0.575708 0.0337399)
(-0.182331 0.572071 0.0343617)
(-0.20267 0.566713 0.0332734)
(-0.228284 0.549005 0.0286242)
(-0.247409 0.535615 0.0223429)
(-0.262047 0.49923 0.00819771)
(-0.311948 0.493189 -0.000754849)
(-0.282206 0.450345 0.0143273)
(-0.218617 0.36669 0.021224)
(-0.236531 0.350606 0.0295021)
(-0.27391 0.327127 0.0365618)
(-0.31214 0.311641 0.0403593)
(-0.348641 0.2943 0.0449739)
(-0.374559 0.272047 0.0398438)
(-0.396219 0.2487 0.0231869)
(-0.413337 0.21476 0.00625554)
(-0.415238 0.18896 -0.0032491)
(-0.40192 0.165489 -0.0110835)
(-0.385741 0.151624 -0.0149816)
(-0.355269 0.151025 -0.0248804)
(-0.343376 0.163079 -0.0274316)
(-0.308206 0.198251 -0.0311623)
(-0.198647 0.182295 -0.02695)
(-0.0904743 0.172117 -0.0253305)
(-0.0208119 0.137359 -0.0141907)
(0.00394758 0.0740277 -0.00202938)
(0.00787771 0.039564 -0.00980319)
(0.0633547 0.105089 -0.0259776)
(0.138875 0.165222 -0.0250405)
(0.17833 0.219361 -0.0156717)
(0.18157 0.27381 -0.0166759)
(0.152644 0.307766 -0.0170674)
(0.112695 0.354259 -0.00712235)
(0.081201 0.4023 0.003939)
(0.05269 0.443253 0.0110998)
(0.0265468 0.469634 0.021724)
(0.00367469 0.494092 0.0213505)
(-0.0231357 0.508072 0.0301122)
(-0.047721 0.513472 0.0359252)
(-0.0696149 0.508025 0.0414868)
(-0.0918646 0.49332 0.0416501)
(-0.118704 0.470716 0.0384587)
(-0.145055 0.448104 0.0329417)
(-0.175126 0.420673 0.0252732)
(-0.204771 0.402427 0.0167433)
(-0.232551 0.382329 0.00285107)
(-0.286998 0.368054 -0.0101)
(-0.305847 0.363367 -0.00372129)
(-0.242551 0.301927 0.0102587)
(-0.231874 0.298531 0.0140379)
(-0.274596 0.280985 0.0255047)
(-0.313907 0.272687 0.0317178)
(-0.356149 0.254038 0.04093)
(-0.390159 0.237656 0.0334499)
(-0.420713 0.207553 0.0239069)
(-0.435807 0.180254 0.0062658)
(-0.440877 0.151555 0.00670775)
(-0.434431 0.128099 0.0147802)
(-0.414458 0.108906 0.0105922)
(-0.386444 0.109109 0.00759994)
(-0.364536 0.121552 -0.0165421)
(-0.331777 0.168676 -0.0267175)
(-0.229285 0.179597 -0.0264133)
(-0.108896 0.172307 -0.0220314)
(-0.0268001 0.145081 -0.013491)
(0.00478463 0.0785475 -0.000895287)
(0.00887261 0.0640913 -0.01246)
(0.0725695 0.149577 -0.0322413)
(0.157038 0.213207 -0.0314734)
(0.202637 0.262758 -0.0198785)
(0.201927 0.301898 -0.0128043)
(0.177836 0.336027 -0.0169099)
(0.153452 0.37657 -0.0063535)
(0.123812 0.415443 0.000555426)
(0.100172 0.445601 0.00822952)
(0.0731713 0.468139 0.0236331)
(0.046688 0.47748 0.0337311)
(0.0259939 0.477224 0.0439167)
(0.00642112 0.46666 0.0482094)
(-0.0181499 0.441626 0.0481863)
(-0.0469717 0.41572 0.0474278)
(-0.0775603 0.383169 0.0406027)
(-0.110329 0.354774 0.0316872)
(-0.146241 0.326946 0.0220036)
(-0.179019 0.307833 0.0133541)
(-0.214877 0.295959 0.00011255)
(-0.266628 0.284433 -0.00981278)
(-0.299167 0.288777 -0.00871706)
(-0.243222 0.27172 0.00404493)
(-0.222791 0.264166 0.00627544)
(-0.263391 0.251096 0.0193058)
(-0.305538 0.239104 0.0269602)
(-0.353302 0.224219 0.0355447)
(-0.391564 0.201654 0.0317942)
(-0.425866 0.175825 0.0183996)
(-0.449165 0.14491 0.0276331)
(-0.463421 0.109089 0.0294294)
(-0.46315 0.0798771 0.0152463)
(-0.447568 0.0612527 0.0108617)
(-0.412371 0.0582248 0.00159642)
(-0.373057 0.0716165 -0.00303022)
(-0.341153 0.121573 -0.0257565)
(-0.254199 0.15958 -0.0294696)
(-0.12667 0.17017 -0.0243413)
(-0.0303172 0.150371 -0.0154432)
(0.00412069 0.0847894 -0.00260644)
(0.0102601 0.0834253 -0.0132282)
(0.0786209 0.189523 -0.0362937)
(0.171077 0.255866 -0.0348787)
(0.21639 0.29508 -0.0190969)
(0.221433 0.323622 -0.0117753)
(0.207891 0.357241 -0.00917587)
(0.188562 0.390336 -0.0082637)
(0.164438 0.415382 0.00356196)
(0.139057 0.436908 0.00924789)
(0.115326 0.446426 0.020116)
(0.0941067 0.451348 0.0295147)
(0.0674291 0.441331 0.0493353)
(0.0385098 0.420978 0.0531628)
(0.0168406 0.385596 0.0558538)
(-0.010719 0.350352 0.0482804)
(-0.0470564 0.31949 0.0398431)
(-0.0832614 0.293961 0.0276515)
(-0.122406 0.271514 0.0171252)
(-0.156746 0.259658 0.00900393)
(-0.197711 0.25195 -0.00347582)
(-0.247789 0.245952 -0.00978573)
(-0.27512 0.247596 -0.00929078)
(-0.22543 0.253437 0.000664289)
(-0.204211 0.23874 0.00168582)
(-0.243839 0.22314 0.0145227)
(-0.283357 0.206992 0.0229648)
(-0.333881 0.190915 0.0303352)
(-0.375525 0.167152 0.0235471)
(-0.414718 0.139566 0.03663)
(-0.447845 0.103231 0.0430491)
(-0.468771 0.0671494 0.0354716)
(-0.472247 0.0382937 0.0449114)
(-0.463676 0.0175256 0.0375243)
(-0.440048 0.0130482 0.0357864)
(-0.398196 0.0211741 0.0246676)
(-0.354777 0.0658813 0.00155375)
(-0.267912 0.122565 -0.026644)
(-0.140829 0.15692 -0.0260334)
(-0.0367768 0.148541 -0.0150334)
(0.00519437 0.0873574 -0.00250384)
(0.0107817 0.10544 -0.0122498)
(0.0838073 0.230916 -0.0385739)
(0.177613 0.29837 -0.0377742)
(0.228796 0.328203 -0.0201123)
(0.244693 0.351725 -0.00728736)
(0.239593 0.376173 -0.00171189)
(0.221844 0.400428 0.00202309)
(0.198642 0.415814 0.00287935)
(0.179334 0.426561 0.0106548)
(0.157161 0.429534 0.0226036)
(0.132186 0.421803 0.031438)
(0.105778 0.403658 0.0388887)
(0.0750326 0.377194 0.0497411)
(0.0406618 0.344738 0.0535034)
(0.0133026 0.304913 0.050572)
(-0.0185847 0.273753 0.0365209)
(-0.060277 0.253242 0.023085)
(-0.0996221 0.236256 0.012848)
(-0.133891 0.230066 0.00512324)
(-0.175924 0.222571 -0.00465405)
(-0.221631 0.221099 -0.0087015)
(-0.236477 0.221844 -0.00670934)
(-0.19237 0.239487 -0.000576125)
(-0.181687 0.21574 -0.000643646)
(-0.214523 0.195575 0.0112406)
(-0.252759 0.175237 0.0188047)
(-0.301934 0.15272 0.0230965)
(-0.346696 0.130003 0.0310842)
(-0.393003 0.0973419 0.0444287)
(-0.433028 0.0615654 0.0444208)
(-0.458105 0.0287121 0.0650742)
(-0.477724 -0.00823309 0.0493133)
(-0.481549 -0.0452908 0.0331484)
(-0.466086 -0.0663202 0.0105767)
(-0.424097 -0.0557118 0.00369521)
(-0.375009 -0.0114856 0.00703124)
(-0.288232 0.0711993 -0.00423116)
(-0.157252 0.12924 -0.031984)
(-0.0419503 0.143085 -0.0149585)
(0.00487132 0.0915218 -0.00413339)
(0.0104839 0.112857 -0.0115918)
(0.0825589 0.254649 -0.0411362)
(0.178458 0.325213 -0.0419279)
(0.235611 0.352725 -0.0232521)
(0.262213 0.36793 -0.00516745)
(0.2647 0.380992 0.00464154)
(0.249616 0.393999 0.0105126)
(0.228314 0.403073 0.0134226)
(0.209527 0.409089 0.0164296)
(0.188048 0.404573 0.0208747)
(0.165981 0.391054 0.02432)
(0.136164 0.367793 0.0369729)
(0.102344 0.33762 0.037895)
(0.0669166 0.305354 0.0441783)
(0.0317355 0.275764 0.0455887)
(0.00214232 0.242583 0.0341864)
(-0.0350184 0.226401 0.0187523)
(-0.073405 0.212703 0.00961344)
(-0.107462 0.208792 0.00227245)
(-0.147062 0.201229 -0.0045248)
(-0.185256 0.200039 -0.00648402)
(-0.183414 0.208669 -0.00247249)
(-0.151758 0.224846 -0.00158696)
(-0.155892 0.193015 0.000255837)
(-0.183126 0.169221 0.00732294)
(-0.217571 0.140934 0.0148215)
(-0.262427 0.118683 0.0157969)
(-0.306864 0.089823 0.0340334)
(-0.357322 0.0582397 0.0404866)
(-0.396371 0.0269024 0.0629715)
(-0.440705 -0.0128428 0.0489444)
(-0.480797 -0.0641828 0.0386335)
(-0.497772 -0.111438 0.0234315)
(-0.483997 -0.144407 0.0116132)
(-0.441674 -0.147116 -0.0088021)
(-0.381246 -0.107795 -0.00752818)
(-0.296043 -0.0092963 -0.000561374)
(-0.173789 0.0847405 -0.0179691)
(-0.047445 0.127038 -0.0205324)
(0.00641583 0.0905125 -0.00248842)
(0.00938992 0.122468 -0.00911775)
(0.0820918 0.278487 -0.0401087)
(0.179516 0.353952 -0.0430091)
(0.243204 0.37878 -0.0239136)
(0.276788 0.386332 -0.00342893)
(0.28468 0.386676 0.010895)
(0.275036 0.389615 0.0202746)
(0.258729 0.392283 0.0228482)
(0.242485 0.392678 0.0252511)
(0.220462 0.383747 0.0275886)
(0.195505 0.367882 0.0288308)
(0.165926 0.34043 0.0279419)
(0.131172 0.311768 0.0262713)
(0.0943197 0.277969 0.0292536)
(0.0543738 0.251189 0.0335923)
(0.0226147 0.226207 0.028369)
(-0.00984206 0.204358 0.0142862)
(-0.0458965 0.195816 0.00695739)
(-0.0771679 0.191409 0.0001156)
(-0.113835 0.181672 -0.00377488)
(-0.1356 0.184568 -0.00255554)
(-0.124368 0.204937 0.00145663)
(-0.114413 0.198579 0.000461499)
(-0.133254 0.167699 0.0026947)
(-0.15423 0.139906 0.00699686)
(-0.18223 0.108866 0.0110687)
(-0.221748 0.0837451 0.0228228)
(-0.266398 0.0530599 0.0303097)
(-0.308413 0.02481 0.0483335)
(-0.359064 -0.0103266 0.044792)
(-0.416011 -0.0618509 0.0403311)
(-0.464676 -0.115241 0.0297707)
(-0.494547 -0.167577 0.0180051)
(-0.496114 -0.209752 0.00198133)
(-0.460642 -0.229181 -0.0144722)
(-0.3927 -0.200742 -0.0211601)
(-0.30355 -0.111614 -0.0191235)
(-0.186098 0.0297339 0.00174417)
(-0.0554944 0.106324 -0.0276122)
(0.00505198 0.0928637 -0.00372773)
(0.00712915 0.10491 -0.00988413)
(0.0760182 0.274253 -0.0406206)
(0.173995 0.355881 -0.0426166)
(0.242529 0.381743 -0.0233805)
(0.2833 0.384156 9.85565e-05)
(0.298908 0.380796 0.0149203)
(0.296757 0.378426 0.0210358)
(0.283064 0.373631 0.0247309)
(0.266642 0.365955 0.0267504)
(0.246378 0.354419 0.0274555)
(0.222034 0.336157 0.0265345)
(0.190788 0.313153 0.0244373)
(0.15381 0.284666 0.019904)
(0.115085 0.255995 0.0134871)
(0.0783859 0.229753 0.0138169)
(0.0418108 0.213537 0.0170707)
(0.0130797 0.194599 0.0108609)
(-0.0117731 0.184894 0.00315297)
(-0.0463895 0.176646 -0.00254613)
(-0.0733278 0.174877 -0.00122281)
(-0.0743034 0.185725 0.00188099)
(-0.0766731 0.18929 0.00312464)
(-0.0902973 0.168241 0.0046337)
(-0.109325 0.140348 0.00628608)
(-0.130051 0.115013 0.00640699)
(-0.152925 0.0830761 0.00987371)
(-0.186548 0.0561632 0.0166652)
(-0.22197 0.0241033 0.0313557)
(-0.266054 -0.0053753 0.035794)
(-0.320424 -0.0525354 0.0364222)
(-0.37838 -0.102729 0.0319751)
(-0.432115 -0.160832 0.0268782)
(-0.470505 -0.220256 0.0161103)
(-0.48609 -0.275955 0.00221758)
(-0.463316 -0.309853 -0.0157188)
(-0.402993 -0.300039 -0.0280278)
(-0.297343 -0.222381 -0.0315958)
(-0.187892 -0.0682784 -0.0191629)
(-0.065913 0.0619126 -0.0194528)
(0.00638602 0.0835369 -0.00730851)
(0.00854357 0.10904 -0.00310381)
(0.0765561 0.285003 -0.033703)
(0.173339 0.370443 -0.0386573)
(0.247955 0.393638 -0.0185046)
(0.298269 0.389927 0.00676768)
(0.322409 0.377463 0.015253)
(0.321902 0.368108 0.0234567)
(0.308689 0.357532 0.0251069)
(0.295012 0.349516 0.0242461)
(0.275564 0.335616 0.0214788)
(0.252438 0.316996 0.0182686)
(0.221904 0.291546 0.0137128)
(0.183607 0.264959 0.00955703)
(0.143427 0.236977 0.00659228)
(0.106283 0.215692 0.00353602)
(0.0726144 0.200499 0.00479335)
(0.0407284 0.19389 0.00278675)
(0.0142112 0.191678 0.000222962)
(-0.00632232 0.186196 -0.000590896)
(-0.0195985 0.190429 0.000913413)
(-0.0322885 0.185877 0.0040599)
(-0.0498943 0.166022 0.00675415)
(-0.0679114 0.144466 0.00871322)
(-0.0877388 0.117685 0.00952303)
(-0.107971 0.0942634 0.0103197)
(-0.129412 0.0645942 0.00964638)
(-0.158455 0.0351733 0.0194959)
(-0.192855 0.00403596 0.0239607)
(-0.235274 -0.0350354 0.0254106)
(-0.288513 -0.0792555 0.0258546)
(-0.343717 -0.128778 0.0266074)
(-0.396687 -0.18707 0.0238133)
(-0.439366 -0.25046 0.0173077)
(-0.464232 -0.317025 0.00476614)
(-0.454078 -0.367198 -0.0121288)
(-0.403717 -0.382015 -0.0289111)
(-0.307883 -0.319254 -0.041211)
(-0.192672 -0.174902 -0.0314325)
(-0.062966 0.0151542 -0.00971982)
(0.00610387 0.0761773 -0.0129481)
(-0.00150964 0.083686 -0.015364)
(0.0557896 0.26775 -0.0405765)
(0.154435 0.36406 -0.0465327)
(0.237 0.390017 -0.0258978)
(0.297086 0.389156 -0.00336564)
(0.333344 0.369788 0.0105197)
(0.344908 0.353154 0.0162904)
(0.337118 0.334373 0.01704)
(0.323054 0.32131 0.014878)
(0.301388 0.313141 0.011324)
(0.275088 0.305422 0.00814608)
(0.242438 0.294345 0.00569678)
(0.20363 0.277605 0.00293751)
(0.165056 0.258641 0.00199696)
(0.133264 0.24005 0.00112426)
(0.104414 0.229456 0.00423738)
(0.0850176 0.22853 0.000430498)
(0.061292 0.228281 -0.00289268)
(0.0348743 0.220525 -0.00118046)
(0.0109175 0.206574 0.0011488)
(-0.0125754 0.181318 0.00707162)
(-0.0308168 0.154712 0.00956859)
(-0.0509314 0.129251 0.0110967)
(-0.0701626 0.103441 0.0126556)
(-0.0901895 0.0783385 0.0139711)
(-0.112657 0.0510876 0.0113539)
(-0.137926 0.0196138 0.0103936)
(-0.170281 -0.0131899 0.0111608)
(-0.209708 -0.0555627 0.0126748)
(-0.254162 -0.103357 0.0153674)
(-0.303009 -0.155635 0.0169164)
(-0.352858 -0.21969 0.0168197)
(-0.397257 -0.289612 0.0125112)
(-0.428967 -0.367514 0.00312705)
(-0.431977 -0.433174 -0.012597)
(-0.392239 -0.468689 -0.0289384)
(-0.302973 -0.424209 -0.0539919)
(-0.190049 -0.291808 -0.0462042)
(-0.0617193 -0.0626732 -0.0138377)
(0.00356024 0.0603466 -0.00250657)
(-0.00165583 0.147555 -0.00461244)
(0.0526329 0.346256 -0.0189677)
(0.144981 0.445586 -0.0305062)
(0.231177 0.467275 -0.0109266)
(0.300223 0.45622 -0.00333096)
(0.34151 0.423449 0.0126828)
(0.357314 0.386462 0.0154043)
(0.353543 0.371108 0.0180952)
(0.354557 0.381988 0.0153163)
(0.346418 0.390661 0.0107689)
(0.326219 0.391768 0.00497211)
(0.290971 0.383379 -0.000212455)
(0.245966 0.363333 -0.00386158)
(0.200384 0.337329 -0.00485597)
(0.165728 0.309651 -0.00328722)
(0.144792 0.286807 7.58783e-05)
(0.120531 0.269517 0.00396695)
(0.0865595 0.248962 -0.00437535)
(0.0532206 0.231679 -0.00375259)
(0.0229318 0.20158 -0.00148899)
(-0.00280935 0.177291 0.00591654)
(-0.0215332 0.144837 0.0090223)
(-0.0392631 0.119475 0.0107511)
(-0.0580067 0.0926453 0.0126088)
(-0.0769276 0.0674351 0.0142009)
(-0.099668 0.0412978 0.0114025)
(-0.125716 0.0125973 0.00748501)
(-0.158676 -0.0196774 0.00229473)
(-0.199147 -0.0562341 0.0026066)
(-0.239885 -0.100888 0.00498348)
(-0.283237 -0.149446 0.00920345)
(-0.325937 -0.211635 0.0122713)
(-0.36631 -0.283289 0.0124231)
(-0.399104 -0.369664 0.00616817)
(-0.408206 -0.453184 -0.00784635)
(-0.377022 -0.518524 -0.0263563)
(-0.304812 -0.520049 -0.0582887)
(-0.192618 -0.395482 -0.0585895)
(-0.05447 -0.179681 -0.0325199)
(0.0066095 0.0211383 -0.00339445)
(-0.0175267 0.229271 -0.0242926)
(0.0211166 0.468566 -0.0416314)
(0.112448 0.57822 -0.0500679)
(0.19891 0.617017 -0.0341555)
(0.271535 0.607161 -0.0225307)
(0.32045 0.575885 -0.00522268)
(0.365912 0.529414 0.00307415)
(0.411604 0.501749 0.00396738)
(0.424023 0.496798 -0.00341489)
(0.395838 0.482077 -0.00849332)
(0.356827 0.460306 -0.0113764)
(0.306441 0.431398 -0.0119244)
(0.251348 0.395974 -0.0113923)
(0.203577 0.358146 -0.00936464)
(0.170877 0.324594 -0.00709437)
(0.147962 0.291348 -0.00234267)
(0.128538 0.259227 0.00244453)
(0.103658 0.233098 0.0063567)
(0.0663455 0.21401 -0.00103567)
(0.0344073 0.188362 0.00118812)
(0.00691559 0.164097 0.00403841)
(-0.014089 0.131987 0.00927523)
(-0.0293694 0.106485 0.0100562)
(-0.0481277 0.0795203 0.0125067)
(-0.0651999 0.0536748 0.0106777)
(-0.0867659 0.0247808 0.0111433)
(-0.110941 -0.00176181 0.00955219)
(-0.139754 -0.0304394 0.00296984)
(-0.175002 -0.0626286 -0.00354288)
(-0.208726 -0.111512 -0.00790716)
(-0.246444 -0.166382 -0.0103325)
(-0.285011 -0.238275 -0.0120143)
(-0.322996 -0.317024 -0.0128429)
(-0.359062 -0.415792 -0.0154333)
(-0.383297 -0.513345 -0.0241167)
(-0.382012 -0.610642 -0.0418338)
(-0.313548 -0.639001 -0.0652815)
(-0.230675 -0.538634 -0.0795749)
(-0.0900651 -0.256243 -0.038111)
(0.0129746 0.0121602 -0.00207422)
(0.00112852 0.203591 0.00021062)
(0.0405494 0.448165 -0.0374787)
(0.116985 0.573902 -0.050158)
(0.204262 0.63176 -0.0463407)
(0.276663 0.637615 -0.036955)
(0.326986 0.619776 -0.02649)
(0.365851 0.584083 -0.019917)
(0.404735 0.538113 -0.00966029)
(0.419181 0.495075 -0.0111899)
(0.39538 0.459341 -0.0104332)
(0.362334 0.427162 -0.00995795)
(0.31556 0.397158 -0.00769287)
(0.262698 0.361949 -0.00524449)
(0.218277 0.330744 -0.0020622)
(0.186211 0.301983 -3.06541e-05)
(0.16383 0.272711 0.00309787)
(0.143644 0.242374 0.00654755)
(0.120476 0.212249 0.00924036)
(0.085334 0.192087 0.0117241)
(0.0472849 0.172819 0.00327281)
(0.0129569 0.147716 0.00564007)
(-0.00863882 0.119233 0.00961075)
(-0.022158 0.0924629 0.0110502)
(-0.0409845 0.0640977 0.0133575)
(-0.0599543 0.0367462 0.00818191)
(-0.0797582 0.00657816 0.0121212)
(-0.0993955 -0.0160147 0.0136401)
(-0.128272 -0.0429187 0.00966198)
(-0.173963 -0.0648027 0.00565759)
(-0.214927 -0.10201 0.00597906)
(-0.250665 -0.148072 0.00629669)
(-0.280108 -0.2194 0.00511155)
(-0.306736 -0.311712 0.000924419)
(-0.327225 -0.449866 -0.00863282)
(-0.347152 -0.597951 -0.0171702)
(-0.345871 -0.738284 -0.0273042)
(-0.29257 -0.80779 -0.0508194)
(-0.183082 -0.768166 -0.0649707)
(-0.0608738 -0.474074 -0.0672093)
(-0.00147209 -0.104405 0.00813768)
(0.000999757 0.216135 -0.00264958)
(0.0383079 0.435521 -0.033711)
(0.107418 0.55902 -0.0446144)
(0.187385 0.615212 -0.0428303)
(0.258299 0.621942 -0.0269683)
(0.312785 0.600148 -0.0216143)
(0.356984 0.562634 -0.0130371)
(0.401178 0.520399 -0.0053052)
(0.423444 0.476178 -0.00583881)
(0.406165 0.443913 -0.00492255)
(0.373331 0.41434 -0.00402963)
(0.322574 0.38196 -0.00215097)
(0.269009 0.346122 0.000717954)
(0.229034 0.314506 0.00280182)
(0.197945 0.285702 0.0043121)
(0.17228 0.255443 0.00669159)
(0.149747 0.224493 0.00975805)
(0.132133 0.188097 0.0143845)
(0.102423 0.164032 0.0145684)
(0.0624904 0.144602 0.0150103)
(0.023196 0.126188 0.0080226)
(-0.00127132 0.0998892 0.0107184)
(-0.017229 0.0730764 0.0122364)
(-0.0363062 0.044461 0.0113907)
(-0.0537034 0.0185245 0.0110004)
(-0.0675108 -0.00710339 0.0134412)
(-0.0831954 -0.0291095 0.0133027)
(-0.102962 -0.0554479 0.012905)
(-0.135773 -0.072026 0.0085442)
(-0.174121 -0.0888601 0.00535849)
(-0.216747 -0.110614 0.00514393)
(-0.262779 -0.158694 0.00688208)
(-0.32331 -0.225671 0.0113371)
(-0.372304 -0.342086 0.0168194)
(-0.382936 -0.480951 0.0143234)
(-0.371717 -0.644131 0.00740217)
(-0.325723 -0.766274 -0.00785173)
(-0.225351 -0.79222 -0.0319021)
(-0.0635024 -0.574348 -0.0435074)
(0.0213005 -0.140742 -0.0160629)
(0.00704675 0.195671 -0.00290094)
(0.0461736 0.395265 -0.0273556)
(0.108853 0.526462 -0.037218)
(0.185703 0.587928 -0.0364577)
(0.253352 0.604994 -0.0247861)
(0.305347 0.588201 -0.0155559)
(0.350921 0.551765 -0.00710037)
(0.392344 0.508953 -0.000568753)
(0.417961 0.455791 -0.00135117)
(0.409923 0.41727 -0.00106794)
(0.377381 0.381626 -0.000389738)
(0.326529 0.343819 0.00263449)
(0.277207 0.310097 0.00550773)
(0.241855 0.279982 0.00745741)
(0.211801 0.252139 0.0082033)
(0.186814 0.223425 0.00987023)
(0.158855 0.195377 0.0122634)
(0.13965 0.161095 0.0165763)
(0.117792 0.128273 0.0215884)
(0.0816834 0.110536 0.019632)
(0.0374805 0.097098 0.0186482)
(0.00561872 0.0746684 0.0144699)
(-0.0110643 0.0493475 0.017889)
(-0.0287489 0.0243586 0.0148521)
(-0.0434673 0.00303283 0.0136473)
(-0.05702 -0.0193943 0.0132555)
(-0.0733194 -0.0414758 0.0126339)
(-0.0898135 -0.068391 0.0124493)
(-0.114379 -0.0905956 0.0119355)