/*--------------------------------*- C++ -*----------------------------------*\
| =========                 |                                                 |
| \\      /  F ield         | OpenFOAM: The Open Source CFD Toolbox           |
|  \\    /   O peration     | Version:  v1806                                 |
|   \\  /    A nd           | Web:      www.OpenFOAM.com                      |
|    \\/     M anipulation  |                                                 |
\*---------------------------------------------------------------------------*/
FoamFile
{
    version     2.0;
    format      ascii;
    class       volScalarField;
    location    "0.083";
    object      p;
}
// * * * * * * * * * * * * * * * * * * * * * * * * * * * * * * * * * * * * * //

dimensions      [0 2 -2 0 0 0 0];


internalField   nonuniform List<scalar> 
64000
(
-6.34637e-05
-0.111211
-0.266135
-0.366245
-0.441792
-0.503816
-0.561466
-0.610459
-0.654117
-0.699909
-0.732608
-0.772644
-0.808461
-0.861567
-0.862428
-0.921375
-0.868141
-0.958955
-0.824914
-1.03733
-0.765622
-0.93917
-0.855269
-0.908677
-0.775884
-0.736892
-0.598431
-0.53992
-0.465873
-0.454675
-0.436027
-0.456119
-0.505266
-0.537602
-0.58463
-0.596631
-0.629485
-0.629122
-0.638319
-0.629859
-0.104653
-0.217848
-0.310749
-0.384671
-0.451354
-0.505136
-0.553804
-0.601539
-0.641063
-0.681674
-0.714724
-0.752961
-0.765946
-0.799724
-0.793152
-0.833699
-0.831912
-0.912557
-0.783222
-0.956874
-0.70689
-0.85678
-0.806348
-0.845145
-0.705435
-0.669853
-0.546849
-0.50073
-0.439475
-0.425659
-0.439018
-0.421818
-0.482029
-0.503609
-0.55407
-0.568517
-0.601829
-0.608268
-0.624416
-0.62033
-0.251945
-0.297506
-0.354136
-0.411304
-0.469361
-0.511329
-0.564241
-0.602138
-0.63604
-0.681233
-0.714107
-0.762569
-0.791229
-0.858481
-0.878197
-0.945551
-0.909457
-1.00185
-0.89196
-1.10259
-0.917453
-1.10092
-1.12012
-1.20545
-1.10814
-1.1021
-1.00061
-0.954453
-0.866938
-0.801599
-0.751786
-0.696542
-0.688689
-0.637444
-0.643922
-0.627974
-0.640238
-0.635103
-0.644438
-0.642685
-0.327712
-0.346469
-0.383439
-0.431317
-0.46518
-0.508341
-0.549985
-0.591792
-0.650101
-0.704379
-0.748351
-0.825578
-0.877007
-0.955314
-0.98497
-1.05208
-1.06096
-1.17412
-1.10732
-1.34242
-1.20037
-1.39137
-1.4714
-1.57712
-1.50899
-1.50956
-1.41026
-1.34853
-1.23918
-1.13643
-1.0356
-0.917986
-0.841924
-0.762022
-0.723547
-0.68295
-0.689041
-0.668091
-0.672714
-0.673947
-0.382146
-0.384651
-0.418483
-0.440571
-0.497238
-0.527847
-0.597637
-0.64088
-0.711844
-0.783291
-0.868782
-0.983485
-1.06274
-1.15407
-1.21363
-1.30816
-1.33323
-1.45328
-1.39169
-1.6384
-1.53588
-1.71584
-1.81694
-1.9322
-1.87797
-1.87764
-1.77646
-1.70116
-1.58148
-1.45841
-1.3216
-1.18132
-1.04256
-0.926417
-0.831336
-0.764572
-0.733518
-0.714381
-0.716396
-0.717545
-0.412548
-0.420937
-0.433934
-0.479029
-0.502109
-0.558691
-0.611249
-0.720628
-0.841367
-0.977361
-1.09675
-1.19008
-1.27679
-1.36908
-1.42985
-1.53611
-1.55314
-1.67604
-1.64486
-1.85174
-1.78298
-1.944
-2.06291
-2.15478
-2.10539
-2.09732
-1.99386
-1.92035
-1.78815
-1.67037
-1.51511
-1.36035
-1.20251
-1.08251
-0.962068
-0.835602
-0.797319
-0.767612
-0.769108
-0.773299
-0.464506
-0.449088
-0.487867
-0.539417
-0.626842
-0.67802
-0.816615
-0.953157
-1.08202
-1.1862
-1.29693
-1.41338
-1.51454
-1.62454
-1.69379
-1.78662
-1.8209
-1.92244
-1.90242
-2.08714
-2.08981
-2.12294
-2.24138
-2.31328
-2.26768
-2.2537
-2.15956
-2.08533
-1.96781
-1.84826
-1.68946
-1.52755
-1.33694
-1.18805
-1.05408
-0.908157
-0.844795
-0.819144
-0.819516
-0.8271
-0.490552
-0.487622
-0.526106
-0.601983
-0.693471
-0.786796
-0.9896
-1.05451
-1.22604
-1.35509
-1.49967
-1.62071
-1.73947
-1.8379
-1.9226
-2.0171
-2.05072
-2.14302
-2.14503
-2.25037
-2.30885
-2.2865
-2.35814
-2.43394
-2.38846
-2.37268
-2.28392
-2.21872
-2.10621
-2.00051
-1.85122
-1.68466
-1.50272
-1.31914
-1.19844
-1.00997
-0.929389
-0.89215
-0.889108
-0.900611
-0.52869
-0.511488
-0.576607
-0.660735
-0.791242
-0.942028
-1.11251
-1.25076
-1.38167
-1.54753
-1.68601
-1.82033
-1.93945
-2.05365
-2.14747
-2.23968
-2.29139
-2.36134
-2.37715
-2.41135
-2.48248
-2.46313
-2.44307
-2.53252
-2.49185
-2.47514
-2.3978
-2.32866
-2.24023
-2.13616
-1.99014
-1.82197
-1.64068
-1.4332
-1.28423
-1.12032
-0.991666
-0.957563
-0.9473
-0.96336
-0.595204
-0.584074
-0.653117
-0.762447
-0.911603
-1.094
-1.25495
-1.4012
-1.56008
-1.69806
-1.84766
-1.98603
-2.10844
-2.22099
-2.31586
-2.41202
-2.47132
-2.53886
-2.56458
-2.58665
-2.62731
-2.6523
-2.53108
-2.62416
-2.59238
-2.57661
-2.50289
-2.44741
-2.36081
-2.25831
-2.13258
-1.96841
-1.78397
-1.58363
-1.41666
-1.24863
-1.10417
-1.05079
-1.03497
-1.05404
-0.634021
-0.620453
-0.711469
-0.830397
-1.03263
-1.19345
-1.37756
-1.54108
-1.70652
-1.86027
-1.99836
-2.12711
-2.24617
-2.36734
-2.4685
-2.55533
-2.62268
-2.6807
-2.70823
-2.73261
-2.74281
-2.78125
-2.6239
-2.70782
-2.67303
-2.67461
-2.5997
-2.55866
-2.4733
-2.38436
-2.25094
-2.10139
-1.90992
-1.69418
-1.49307
-1.34651
-1.18599
-1.11707
-1.10244
-1.12194
-0.7451
-0.736666
-0.82753
-0.980542
-1.16557
-1.34411
-1.52146
-1.69089
-1.86069
-2.0031
-2.14926
-2.27558
-2.3837
-2.48179
-2.58996
-2.67864
-2.74907
-2.81241
-2.83786
-2.87445
-2.86966
-2.9001
-2.72761
-2.79722
-2.7731
-2.76308
-2.71256
-2.66215
-2.59158
-2.50115
-2.38529
-2.22175
-2.03898
-1.84039
-1.62418
-1.46678
-1.3088
-1.24086
-1.21149
-1.23707
-0.781422
-0.772716
-0.887293
-1.04127
-1.24185
-1.42004
-1.61637
-1.77992
-1.95078
-2.09904
-2.25074
-2.3761
-2.51008
-2.6096
-2.70089
-2.80176
-2.88492
-2.94114
-2.98298
-3.00679
-2.98667
-3.00716
-2.75414
-2.84637
-2.82664
-2.84574
-2.80028
-2.76497
-2.69319
-2.61191
-2.47384
-2.35122
-2.18156
-1.98958
-1.75974
-1.57249
-1.39998
-1.31607
-1.28476
-1.30808
-0.925236
-0.925445
-1.03352
-1.19127
-1.38068
-1.56564
-1.75265
-1.91648
-2.07992
-2.22451
-2.36908
-2.50303
-2.62079
-2.73547
-2.80928
-2.92127
-3.00757
-3.07006
-3.13059
-3.12836
-3.13667
-3.08014
-2.78802
-2.86931
-2.91234
-2.92582
-2.89968
-2.861
-2.79854
-2.69965
-2.63408
-2.50059
-2.34141
-2.14643
-1.94264
-1.73875
-1.56024
-1.465
-1.42375
-1.45343
-0.943957
-0.944732
-1.06397
-1.22201
-1.42139
-1.60627
-1.79188
-1.94736
-2.11382
-2.25623
-2.41054
-2.55228
-2.69956
-2.82733
-2.95678
-3.03864
-3.1538
-3.21474
-3.26619
-3.28114
-3.27715
-3.00943
-2.9474
-2.97334
-2.97416
-3.01949
-2.99221
-2.96063
-2.87618
-2.83659
-2.73655
-2.61693
-2.46204
-2.27858
-2.07299
-1.86052
-1.68226
-1.53118
-1.4945
-1.51792
-1.09557
-1.09484
-1.20233
-1.35559
-1.54157
-1.72038
-1.89481
-2.05229
-2.21587
-2.37141
-2.54019
-2.69335
-2.84679
-2.97303
-3.08879
-3.17585
-3.26373
-3.32047
-3.41256
-3.41026
-3.22005
-3.15783
-3.10823
-3.09414
-3.07468
-3.09124
-3.06541
-3.01694
-2.9956
-2.93485
-2.86527
-2.76766
-2.64658
-2.48529
-2.29172
-2.08853
-1.891
-1.78166
-1.67525
-1.70448
-1.04486
-1.06469
-1.18105
-1.34131
-1.53583
-1.72852
-1.90166
-2.04907
-2.20003
-2.34747
-2.50417
-2.67485
-2.84508
-3.01438
-3.1641
-3.31268
-3.40739
-3.49754
-3.48413
-3.40317
-3.35695
-3.3139
-3.27754
-3.23835
-3.20426
-3.18049
-3.17787
-3.14144
-3.08719
-3.008
-2.91814
-2.80973
-2.68933
-2.53607
-2.35828
-2.16484
-1.97624
-1.83344
-1.73231
-1.77529
-1.15291
-1.14852
-1.23735
-1.37119
-1.54405
-1.70996
-1.89645
-2.06063
-2.2488
-2.43685
-2.65072
-2.84696
-3.03825
-3.18505
-3.30576
-3.37936
-3.46314
-3.47262
-3.48566
-3.4705
-3.49855
-3.45976
-3.43753
-3.37762
-3.32499
-3.23721
-3.21439
-3.18547
-3.15171
-3.10862
-3.07598
-3.02542
-2.97152
-2.85489
-2.6909
-2.47834
-2.2873
-2.08985
-1.95398
-1.95181
-0.958051
-0.965809
-1.06134
-1.20182
-1.40326
-1.59433
-1.78555
-1.93122
-2.07177
-2.24295
-2.43151
-2.63563
-2.81432
-3.00255
-3.15126
-3.3282
-3.49335
-3.65692
-3.71817
-3.72708
-3.68253
-3.6587
-3.60361
-3.54332
-3.49826
-3.42954
-3.3319
-3.26947
-3.19221
-3.07114
-2.95456
-2.82427
-2.8001
-2.67874
-2.52558
-2.37521
-2.27758
-2.06315
-2.09776
-2.10788
-1.03651
-0.989771
-1.02763
-1.09209
-1.21563
-1.32492
-1.472
-1.68527
-1.99027
-2.28761
-2.59524
-2.8765
-3.11423
-3.3055
-3.4759
-3.60923
-3.75845
-3.8799
-3.95648
-3.94751
-3.92158
-3.82281
-3.78249
-3.71557
-3.62139
-3.52447
-3.41564
-3.26619
-3.21708
-3.22802
-3.31234
-3.32107
-3.21032
-3.12997
-3.03611
-2.80712
-2.54166
-2.40319
-1.95881
-2.03996
-0.973987
-0.981749
-1.02211
-1.11409
-1.25657
-1.39427
-1.54045
-1.72574
-1.99754
-2.28536
-2.58685
-2.89108
-3.15291
-3.3903
-3.58838
-3.76737
-3.94644
-4.06829
-4.18391
-4.16966
-4.13894
-4.00888
-3.98686
-3.84158
-3.73775
-3.61467
-3.51198
-3.38263
-3.26754
-3.10657
-2.9594
-2.82756
-2.80979
-2.86555
-2.97601
-2.8993
-2.84231
-2.68451
-2.73769
-2.53791
-1.01863
-1.01244
-1.04496
-1.10973
-1.22536
-1.34821
-1.4942
-1.68451
-1.98359
-2.31337
-2.66725
-3.0028
-3.29212
-3.54733
-3.77649
-3.96529
-4.13487
-4.25202
-4.35828
-4.3787
-4.31727
-4.21671
-4.06751
-3.97276
-3.87871
-3.70989
-3.61524
-3.4747
-3.39163
-3.25584
-3.17009
-3.00925
-2.8577
-2.55761
-2.23878
-2.04461
-1.95092
-1.8724
-1.80853
-1.85416
-1.01138
-1.01328
-1.05965
-1.13098
-1.25271
-1.37714
-1.52349
-1.71181
-1.99536
-2.34541
-2.7128
-3.0523
-3.35725
-3.63046
-3.88305
-4.08822
-4.27593
-4.36909
-4.47575
-4.49006
-4.46434
-4.31706
-4.19134
-4.01628
-3.9246
-3.79243
-3.68278
-3.54218
-3.44482
-3.29612
-3.1981
-3.00936
-2.90582
-2.66112
-2.51708
-2.31927
-2.19605
-2.01833
-2.01121
-2.13126
-1.05305
-1.03599
-1.10873
-1.15963
-1.2832
-1.39994
-1.54102
-1.72955
-2.01696
-2.36532
-2.73478
-3.07576
-3.39169
-3.67344
-3.94216
-4.15401
-4.33661
-4.42268
-4.49438
-4.5644
-4.54441
-4.44165
-4.24083
-4.12918
-3.95716
-3.82607
-3.75554
-3.57289
-3.49346
-3.31925
-3.23442
-3.03936
-2.92571
-2.68991
-2.5636
-2.36966
-2.24412
-2.0463
-1.88374
-1.96422
-1.08122
-1.07128
-1.14552
-1.19585
-1.31478
-1.42976
-1.56552
-1.74396
-2.01223
-2.3604
-2.74095
-3.07616
-3.38966
-3.66491
-3.9486
-4.15081
-4.34339
-4.40565
-4.55461
-4.58123
-4.60686
-4.47899
-4.31679
-4.15295
-4.01009
-3.82936
-3.76842
-3.62293
-3.54368
-3.38221
-3.31558
-3.12396
-3.04213
-2.82727
-2.75049
-2.56291
-2.48787
-2.30625
-2.23716
-2.32451
-1.10818
-1.08037
-1.16532
-1.21436
-1.33136
-1.45348
-1.56833
-1.78023
-2.05238
-2.36567
-2.68628
-2.99063
-3.30071
-3.61563
-3.88607
-4.09071
-4.28012
-4.37475
-4.53892
-4.52902
-4.58031
-4.46673
-4.30981
-4.16731
-4.05052
-3.85854
-3.79162
-3.55143
-3.53523
-3.31389
-3.22876
-2.98083
-2.89785
-2.67192
-2.62234
-2.43851
-2.37813
-2.20037
-2.08641
-2.09021
-1.15563
-1.13601
-1.20813
-1.2683
-1.37203
-1.49533
-1.62855
-1.84133
-2.09847
-2.38711
-2.69706
-2.97572
-3.26792
-3.48197
-3.78617
-4.0257
-4.25916
-4.37921
-4.48861
-4.49484
-4.54024
-4.44772
-4.34526
-4.16373
-4.06518
-3.88153
-3.83657
-3.66255
-3.70951
-3.62694
-3.76467
-3.72341
-3.82443
-3.68356
-3.68836
-3.47425
-3.39418
-3.15244
-2.98842
-2.83584
-1.15741
-1.14241
-1.16897
-1.26479
-1.36525
-1.47875
-1.6438
-1.83474
-2.09319
-2.35584
-2.64738
-2.91279
-3.19566
-3.43014
-3.69143
-3.84946
-4.13108
-4.22092
-4.36377
-4.36367
-4.41419
-4.4077
-4.30337
-4.17253
-4.11789
-3.94199
-3.93829
-3.77281
-3.88854
-3.71001
-3.77364
-3.56986
-3.60116
-3.4139
-3.49352
-3.34192
-3.41972
-3.26584
-3.32095
-3.30827
-1.22803
-1.21775
-1.25117
-1.31049
-1.41647
-1.48564
-1.68437
-1.87956
-2.12297
-2.36409
-2.63489
-2.87292
-3.14048
-3.34268
-3.59292
-3.73962
-3.96469
-4.13171
-4.25128
-4.22672
-4.26828
-4.27124
-4.23368
-4.05367
-4.07796
-3.92839
-3.95272
-3.84359
-3.90151
-3.76418
-3.86647
-3.64927
-3.69813
-3.47767
-3.54504
-3.35762
-3.40761
-3.18295
-3.15897
-2.9999
-1.20729
-1.19546
-1.22872
-1.26973
-1.38311
-1.47269
-1.6562
-1.83202
-2.07288
-2.28446
-2.54167
-2.7581
-3.00962
-3.1939
-3.4148
-3.52561
-3.74732
-3.87747
-4.0441
-4.04461
-4.04762
-4.07354
-4.07199
-3.97588
-3.96616
-3.83601
-3.8849
-3.75688
-3.94115
-3.67811
-3.79145
-3.5273
-3.61717
-3.34626
-3.47137
-3.19235
-3.29013
-2.98738
-2.96213
-2.82261
-1.29745
-1.29436
-1.31009
-1.31415
-1.43448
-1.54178
-1.70982
-1.87189
-2.0885
-2.28305
-2.51947
-2.71289
-2.94667
-3.11881
-3.30949
-3.47555
-3.67732
-3.76429
-3.90881
-3.89922
-3.87791
-3.91594
-3.92538
-3.81552
-3.86696
-3.69986
-3.6349
-3.9642
-3.86501
-3.72564
-3.89577
-3.55366
-3.66958
-3.33713
-3.4851
-3.1731
-3.24282
-2.86819
-2.76354
-2.52007
-1.24174
-1.23113
-1.25531
-1.25628
-1.30881
-1.45103
-1.62727
-1.76216
-1.98138
-2.15261
-2.3912
-2.56366
-2.80617
-2.94106
-3.18906
-3.33465
-3.50773
-3.61624
-3.67547
-3.73759
-3.67452
-3.73052
-3.74515
-3.63625
-3.7239
-3.5564
-3.51233
-3.9726
-3.84665
-3.69639
-3.82077
-3.55853
-3.66494
-3.28308
-3.44173
-2.98803
-3.14659
-2.62204
-2.51301
-2.0877
-1.35823
-1.35873
-1.37092
-1.3747
-1.40975
-1.50318
-1.68015
-1.78915
-1.98652
-2.13712
-2.36165
-2.53241
-2.73111
-2.91502
-3.12032
-3.26362
-3.4255
-3.54482
-3.58729
-3.65728
-3.49634
-3.59171
-3.59569
-3.47013
-3.58872
-3.40709
-3.3598
-3.97908
-3.84433
-3.68989
-3.86627
-3.51511
-3.75357
-3.29806
-3.49293
-2.96457
-3.06971
-2.47501
-2.26167
-1.6149
-1.25519
-1.23775
-1.27989
-1.23445
-1.29805
-1.31012
-1.54367
-1.61561
-1.82164
-1.96489
-2.17986
-2.33149
-2.60219
-2.75812
-2.97934
-3.12623
-3.27979
-3.41722
-3.42171
-3.52543
-3.28123
-3.40562
-3.38944
-3.26162
-3.39824
-3.24579
-3.16649
-3.96616
-3.78032
-3.75603
-3.83694
-3.4836
-3.72284
-3.24232
-3.49163
-2.82734
-2.97617
-2.04908
-1.9274
-0.843034
-1.40228
-1.41865
-1.41328
-1.40032
-1.42176
-1.37278
-1.58163
-1.63383
-1.82324
-1.9225
-2.1603
-2.32091
-2.56037
-2.7286
-2.94508
-3.08952
-3.24377
-3.3915
-3.37799
-3.48285
-3.16754
-3.30082
-3.25253
-3.10064
-3.22839
-3.07751
-3.02713
-3.88609
-3.82611
-3.69116
-3.92419
-3.50019
-3.8224
-3.2398
-3.59321
-2.88353
-3.07115
-1.88046
-1.64389
-0.00590959
-1.27658
-1.2114
-1.28274
-1.17012
-1.25779
-1.14018
-1.36005
-1.39186
-1.58697
-1.72737
-1.96505
-2.1296
-2.39348
-2.56769
-2.80589
-2.976
-3.13489
-3.3019
-3.27882
-3.37856
-3.0029
-3.11563
-3.03797
-2.88009
-2.99852
-2.86171
-2.92884
-3.7763
-3.83319
-3.7131
-3.96225
-3.41098
-3.83845
-3.15345
-3.49884
-2.67993
-2.94161
-1.3114
-1.06012
1.67445
-1.44022
-1.51708
-1.4285
-1.42926
-1.3558
-1.31032
-1.35171
-1.40323
-1.57633
-1.68702
-1.91384
-2.07602
-2.32712
-2.5068
-2.75086
-2.93764
-3.12389
-3.2915
-3.31355
-3.35195
-2.94261
-3.00755
-2.9108
-2.70316
-2.79874
-2.63839
-2.86525
-3.62922
-3.87373
-3.71838
-4.04334
-3.52859
-3.90501
-3.18826
-3.69575
-2.65961
-3.19371
-1.12277
-0.671751
3.37519
-1.72075
-1.27907
-1.39865
-1.06612
-1.1501
-0.965561
-1.07882
-1.14938
-1.32755
-1.45351
-1.70313
-1.86886
-2.14301
-2.33258
-2.59407
-2.79896
-3.00521
-3.22319
-3.24857
-3.23001
-2.83763
-2.78066
-2.64514
-2.42603
-2.54123
-2.39748
-2.85156
-3.48452
-3.91052
-3.73672
-4.08367
-3.50863
-3.86133
-3.01569
-3.49194
-2.14883
-2.57379
-0.0220287
0.909792
7.88342
-1.57956
-1.82928
-1.64109
-1.61584
-1.20015
-1.13724
-1.08471
-1.11684
-1.28657
-1.39147
-1.61871
-1.78418
-2.04788
-2.23709
-2.49715
-2.71072
-2.9511
-3.20402
-3.34746
-3.17681
-2.86427
-2.68616
-2.50504
-2.19326
-2.34777
-2.17657
-2.82771
-3.33154
-3.91616
-3.72132
-4.11812
-3.56241
-3.97206
-3.12282
-3.6587
-2.3071
-2.82583
0.716563
2.36711
11.7943
-4.09351
-1.30547
-1.61127
-1.17737
-1.08773
-0.856068
-0.936128
-0.963782
-1.15543
-1.28874
-1.54368
-1.70567
-1.97835
-2.16717
-2.42967
-2.65212
-2.95212
-3.20544
-3.33627
-3.08198
-2.75059
-2.42658
-2.21484
-1.9122
-2.18558
-2.16168
-2.96891
-3.43392
-4.05885
-3.80839
-4.14124
-3.46045
-3.81326
-2.94379
-3.28143
-1.52666
-1.15947
4.78389
9.73906
24.6741
-0.112379
-0.221513
-0.313308
-0.388005
-0.452852
-0.509734
-0.56453
-0.616885
-0.664053
-0.707841
-0.736892
-0.793662
-0.817171
-0.868376
-0.874892
-0.930229
-0.886226
-0.978655
-0.890391
-1.0926
-0.844587
-0.966555
-0.951999
-0.986521
-0.85504
-0.819429
-0.692245
-0.645838
-0.575792
-0.547024
-0.538908
-0.514681
-0.560275
-0.569958
-0.605632
-0.608545
-0.630899
-0.629494
-0.638416
-0.626555
-0.216183
-0.27992
-0.342448
-0.405459
-0.458757
-0.512884
-0.556337
-0.608869
-0.629539
-0.687533
-0.702034
-0.780982
-0.775101
-0.816116
-0.804942
-0.858286
-0.833456
-0.926516
-0.807351
-1.00333
-0.847501
-0.959942
-0.939362
-0.990713
-0.868594
-0.856933
-0.744622
-0.70845
-0.643967
-0.604732
-0.586553
-0.574997
-0.551572
-0.556356
-0.589267
-0.593688
-0.61965
-0.61727
-0.627379
-0.614578
-0.309105
-0.332982
-0.374946
-0.417601
-0.471715
-0.513422
-0.564182
-0.596883
-0.666125
-0.696097
-0.731309
-0.772614
-0.797167
-0.849423
-0.877436
-0.971889
-0.947196
-1.03901
-0.952003
-1.17682
-1.08639
-1.24485
-1.30508
-1.40437
-1.31422
-1.31857
-1.21956
-1.17559
-1.08592
-0.999856
-0.905958
-0.80745
-0.754956
-0.700452
-0.686599
-0.649565
-0.656723
-0.644848
-0.649511
-0.641796
-0.35147
-0.375
-0.39831
-0.438674
-0.469728
-0.51608
-0.558932
-0.609245
-0.658135
-0.712635
-0.752755
-0.817838
-0.874612
-0.971062
-1.00542
-1.10767
-1.10806
-1.22978
-1.17681
-1.42499
-1.40277
-1.59083
-1.68752
-1.79615
-1.71674
-1.7148
-1.60531
-1.53092
-1.4096
-1.28304
-1.15385
-1.00692
-0.891967
-0.789507
-0.753752
-0.702473
-0.702367
-0.678655
-0.680037
-0.675768
-0.400391
-0.410036
-0.428421
-0.453192
-0.509354
-0.523214
-0.58955
-0.652522
-0.726599
-0.795939
-0.879645
-0.997156
-1.08397
-1.17518
-1.23626
-1.35766
-1.38061
-1.50869
-1.50145
-1.71629
-1.69222
-1.87334
-1.98864
-2.08377
-2.00153
-1.99852
-1.88848
-1.81538
-1.6686
-1.51905
-1.35461
-1.2074
-1.06452
-0.934366
-0.834845
-0.773955
-0.744529
-0.723844
-0.719761
-0.720782
-0.435801
-0.432242
-0.459053
-0.496243
-0.505492
-0.552828
-0.613827
-0.717912
-0.856054
-0.987023
-1.105
-1.20167
-1.29139
-1.39494
-1.45968
-1.59188
-1.62752
-1.73746
-1.70665
-1.90033
-1.90659
-2.07163
-2.18891
-2.27764
-2.20943
-2.1787
-2.06965
-1.96817
-1.86102
-1.69864
-1.53537
-1.35794
-1.20512
-1.08229
-0.957378
-0.853587
-0.815197
-0.78492
-0.776614
-0.780148
-0.470159
-0.473571
-0.512692
-0.54992
-0.607034
-0.646254
-0.775108
-0.967773
-1.08392
-1.19085
-1.30324
-1.4241
-1.53007
-1.63871
-1.72628
-1.81721
-1.86085
-1.96001
-1.95168
-2.09386
-2.13033
-2.2026
-2.30363
-2.38202
-2.31677
-2.28924
-2.19032
-2.10705
-1.9678
-1.83669
-1.66741
-1.49038
-1.31658
-1.16404
-1.05126
-0.917646
-0.857447
-0.831536
-0.822678
-0.830079
-0.508231
-0.515235
-0.560537
-0.62287
-0.699704
-0.766786
-0.977326
-1.07154
-1.22915
-1.36258
-1.49548
-1.63097
-1.74265
-1.85829
-1.9365
-2.03116
-2.06305
-2.14967
-2.15573
-2.24107
-2.29719
-2.31971
-2.37263
-2.46083
-2.41127
-2.38936
-2.30664
-2.22436
-2.11359
-1.9695
-1.81445
-1.64964
-1.47997
-1.30304
-1.17633
-1.03422
-0.951889
-0.917395
-0.900946
-0.909426
-0.545143
-0.551546
-0.61367
-0.685602
-0.803241
-0.912976
-1.10565
-1.25213
-1.39861
-1.54668
-1.68721
-1.81537
-1.94166
-2.05795
-2.14826
-2.2334
-2.27866
-2.34048
-2.35419
-2.39048
-2.43529
-2.44889
-2.44469
-2.53242
-2.5023
-2.48433
-2.41307
-2.33808
-2.21251
-2.08942
-1.94309
-1.77802
-1.61464
-1.38452
-1.25602
-1.09928
-1.01105
-0.963726
-0.95652
-0.965672
-0.617524
-0.623642
-0.699322
-0.800652
-0.918166
-1.08234
-1.23785
-1.39218
-1.55104
-1.71038
-1.83858
-1.98663
-2.10599
-2.2201
-2.31691
-2.40583
-2.45631
-2.51484
-2.53115
-2.55588
-2.57619
-2.61046
-2.53924
-2.61105
-2.60156
-2.5818
-2.52743
-2.43514
-2.34032
-2.20396
-2.0926
-1.97976
-1.80612
-1.64253
-1.41355
-1.23937
-1.11193
-1.07285
-1.04568
-1.06167
-0.654521
-0.660782
-0.754064
-0.854773
-1.0648
-1.17424
-1.37043
-1.52249
-1.68647
-1.85664
-2.00156
-2.13604
-2.25839
-2.36306
-2.46966
-2.55752
-2.61699
-2.66629
-2.68846
-2.70578
-2.70547
-2.73976
-2.62537
-2.69933
-2.67968
-2.6766
-2.6076
-2.55507
-2.42371
-2.35687
-2.25628
-2.07477
-1.90551
-1.67323
-1.50737
-1.31491
-1.17087
-1.12993
-1.10983
-1.12411
-0.767282
-0.777813
-0.873796
-1.02307
-1.19211
-1.35223
-1.50045
-1.67698
-1.84048
-1.97492
-2.1333
-2.27466
-2.38846
-2.48987
-2.58649
-2.68599
-2.74946
-2.80542
-2.83286
-2.85239
-2.84705
-2.8585
-2.73212
-2.78227
-2.77394
-2.75938
-2.72056
-2.6172
-2.57656
-2.50446
-2.34491
-2.24074
-2.07317
-1.92911
-1.70982
-1.51225
-1.28358
-1.23361
-1.21821
-1.23873
-0.812125
-0.821294
-0.94022
-1.09287
-1.28425
-1.43894
-1.62275
-1.75652
-1.92369
-2.08173
-2.23362
-2.35083
-2.51042
-2.60877
-2.71521
-2.81308
-2.88719
-2.94136
-2.97911
-2.99945
-2.97504
-2.96358
-2.73949
-2.80147
-2.82095
-2.83998
-2.78376
-2.76601
-2.71281
-2.58285
-2.54358
-2.3906
-2.21
-1.97277
-1.76744
-1.6022
-1.43604
-1.27422
-1.29538
-1.30367
-0.95839
-0.973177
-1.09263
-1.2458
-1.42704
-1.59233
-1.76769
-1.91821
-2.06712
-2.20267
-2.33535
-2.49493
-2.59262
-2.73441
-2.83308
-2.93525
-3.01429
-3.07907
-3.13227
-3.13835
-3.12715
-3.00648
-2.78283
-2.82884
-2.89088
-2.91612
-2.8769
-2.87037
-2.79133
-2.78269
-2.65735
-2.52643
-2.34612
-2.16041
-1.91181
-1.7428
-1.59123
-1.45569
-1.40251
-1.46002
-0.988137
-1.00148
-1.12775
-1.28449
-1.47376
-1.64495
-1.82951
-1.96867
-2.1253
-2.26589
-2.41268
-2.54869
-2.67912
-2.82015
-2.98437
-3.07708
-3.16605
-3.23243
-3.2815
-3.29808
-3.23078
-3.00105
-2.9089
-2.93166
-2.95293
-3.00424
-3.0026
-2.95929
-2.93301
-2.85757
-2.76542
-2.63589
-2.47678
-2.27489
-2.04008
-1.8323
-1.66187
-1.58626
-1.44317
-1.52133
-1.12035
-1.13457
-1.25859
-1.41193
-1.60024
-1.76541
-1.93107
-2.0819
-2.24236
-2.39448
-2.55696
-2.71043
-2.84977
-2.95662
-3.09526
-3.19588
-3.29248
-3.35714
-3.42718
-3.3842
-3.21537
-3.134
-3.07543
-3.05957
-3.03945
-3.06475
-3.02898
-3.05268
-3.01811
-2.96472
-2.88499
-2.78842
-2.65624
-2.48794
-2.27085
-2.0581
-1.85871
-1.78253
-1.65564
-1.70583
-1.10823
-1.13159
-1.25466
-1.42056
-1.61688
-1.76988
-1.95403
-2.09196
-2.24125
-2.38582
-2.53752
-2.70246
-2.86726
-3.0358
-3.17553
-3.33734
-3.43541
-3.49676
-3.48269
-3.38642
-3.33928
-3.29659
-3.25839
-3.21456
-3.20156
-3.17268
-3.23889
-3.17416
-3.12566
-3.03971
-2.95882
-2.85497
-2.73678
-2.57411
-2.37628
-2.16265
-1.95818
-1.82474
-1.74964
-1.73198
-1.16205
-1.17577
-1.27441
-1.42817
-1.60432
-1.77045
-1.93978
-2.09166
-2.26531
-2.44365
-2.64779
-2.84102
-3.02061
-3.16118
-3.26634
-3.4095
-3.47103
-3.48729
-3.49751
-3.48963
-3.49956
-3.47
-3.43376
-3.37381
-3.30949
-3.24419
-3.21427
-3.21913
-3.18999
-3.14414
-3.09912
-3.04406
-2.98006
-2.86094
-2.68582
-2.47325
-2.20254
-2.08677
-2.00185
-2.00072
-1.01645
-1.05427
-1.1393
-1.29563
-1.44531
-1.63903
-1.80937
-1.95989
-2.09897
-2.27973
-2.45832
-2.66046
-2.83438
-3.01676
-3.168
-3.38533
-3.52142
-3.63935
-3.71482
-3.71698
-3.71259
-3.6696
-3.61882
-3.55888
-3.47897
-3.37514
-3.28182
-3.20676
-3.18155
-3.11144
-3.05521
-2.98053
-2.92015
-2.80099
-2.65405
-2.52085
-2.302
-2.14143
-2.13389
-2.12803
-1.00831
-1.00517
-1.05516
-1.14703
-1.25199
-1.38102
-1.50684
-1.70708
-1.97917
-2.25962
-2.55621
-2.83491
-3.06892
-3.26239
-3.43898
-3.59943
-3.78622
-3.89205
-3.96153
-3.96177
-3.94101
-3.85454
-3.79085
-3.69042
-3.57903
-3.47988
-3.37288
-3.24764
-3.16387
-3.1328
-3.17072
-3.18025
-3.17015
-3.12173
-3.0214
-2.82397
-2.5462
-2.30741
-2.10564
-2.10021
-1.01533
-0.97223
-1.01297
-1.09809
-1.21161
-1.34709
-1.46987
-1.68403
-1.9409
-2.23655
-2.53638
-2.85063
-3.12212
-3.3753
-3.58261
-3.78041
-3.97955
-4.1157
-4.23982
-4.18798
-4.16675
-4.05365
-3.95246
-3.83673
-3.71665
-3.59808
-3.48415
-3.33689
-3.22484
-3.08587
-2.9729
-2.83051
-2.79389
-2.78437
-2.84847
-2.78778
-2.65787
-2.55129
-2.52292
-2.63508
-1.02901
-0.987102
-1.02267
-1.08307
-1.20853
-1.30235
-1.44341
-1.64352
-1.93468
-2.26934
-2.62517
-2.97223
-3.27526
-3.54624
-3.78853
-3.99617
-4.18147
-4.31368
-4.4288
-4.42721
-4.34117
-4.2506
-4.15702
-3.98988
-3.85687
-3.70513
-3.59665
-3.45144
-3.34669
-3.19976
-3.11028
-2.95385
-2.82777
-2.58142
-2.30114
-2.08754
-1.96264
-1.85386
-1.78892
-1.83303
-0.999219
-0.997571
-1.04038
-1.11059
-1.23242
-1.34525
-1.48629
-1.68338
-1.95692
-2.30304
-2.67241
-3.02792
-3.34765
-3.63557
-3.89898
-4.11836
-4.3183
-4.43811
-4.57048
-4.57661
-4.53115
-4.37181
-4.21969
-4.0875
-3.94143
-3.7896
-3.67187
-3.52195
-3.41753
-3.25923
-3.14326
-2.95296
-2.84351
-2.59321
-2.40806
-2.21111
-2.08538
-1.95346
-1.86344
-2.00934
-1.0455
-1.03529
-1.07972
-1.13733
-1.25626
-1.36908
-1.52141
-1.70363
-1.97685
-2.32706
-2.70534
-3.06303
-3.39194
-3.68116
-3.95233
-4.17002
-4.37835
-4.5029
-4.62185
-4.67985
-4.64512
-4.48882
-4.32186
-4.13633
-3.98331
-3.83516
-3.74106
-3.55505
-3.4678
-3.28562
-3.19645
-2.99035
-2.86667
-2.61688
-2.47549
-2.27234
-2.15201
-1.95748
-1.82632
-1.87674
-1.08501
-1.07449
-1.1232
-1.1808
-1.29374
-1.42271
-1.56068
-1.7436
-2.00499
-2.3469
-2.71869
-3.06787
-3.39443
-3.67464
-3.94911
-4.17036
-4.39486
-4.50753
-4.67624
-4.71934
-4.69569
-4.56393
-4.40402
-4.1772
-4.03667
-3.82412
-3.77051
-3.59739
-3.50942
-3.33142
-3.25403
-3.04434
-2.95508
-2.72866
-2.65275
-2.47481
-2.40708
-2.23253
-2.13258
-2.24413
-1.09901
-1.08701
-1.14671
-1.20164
-1.31126
-1.4264
-1.57328
-1.75806
-2.0227
-2.34414
-2.69074
-3.01567
-3.32512
-3.60222
-3.89151
-4.11396
-4.34131
-4.48218
-4.66253
-4.66661
-4.62973
-4.51735
-4.40201
-4.20868
-4.04933
-3.85131
-3.80109
-3.51683
-3.51495
-3.2729
-3.21372
-2.95993
-2.89583
-2.66159
-2.62008
-2.42706
-2.37294
-2.17378
-2.06397
-2.02048
-1.15401
-1.14572
-1.19216
-1.25723
-1.35708
-1.47574
-1.61796
-1.81437
-2.0716
-2.36454
-2.6744
-2.9593
-3.26438
-3.53307
-3.8389
-4.06504
-4.32396
-4.47914
-4.61041
-4.57116
-4.53331
-4.4957
-4.40727
-4.21418
-4.10807
-3.86356
-3.82929
-3.66362
-3.67912
-3.56672
-3.69506
-3.61498
-3.71881
-3.57271
-3.6046
-3.40615
-3.34903
-3.16713
-2.94879
-2.86128
-1.15407
-1.15048
-1.18296
-1.24912
-1.3508
-1.45536
-1.6153
-1.80277
-2.05082
-2.31047
-2.59908
-2.86979
-3.1702
-3.43692
-3.74591
-3.97733
-4.25055
-4.35812
-4.44812
-4.38394
-4.43492
-4.39576
-4.33399
-4.19245
-4.155
-3.95305
-3.98398
-3.70592
-3.86336
-3.66069
-3.78668
-3.57405
-3.64691
-3.44961
-3.54291
-3.37483
-3.46185
-3.30861
-3.21611
-3.22902
-1.2295
-1.22735
-1.25635
-1.30094
-1.40852
-1.50155
-1.67539
-1.85727
-2.09791
-2.33131
-2.59929
-2.83885
-3.11652
-3.35043
-3.64317
-3.85238
-4.09216
-4.15938
-4.23914
-4.26737
-4.27801
-4.28294
-4.22851
-4.07966
-4.08967
-3.92795
-3.95369
-3.81318
-3.93114
-3.69297
-3.86279
-3.67168
-3.75388
-3.52995
-3.62642
-3.4268
-3.49743
-3.24548
-3.1832
-3.06014
-1.20958
-1.20453
-1.23518
-1.25559
-1.37054
-1.46447
-1.642
-1.8131
-2.0402
-2.26222
-2.51286
-2.73029
-2.98523
-3.18992
-3.44987
-3.624
-3.81486
-3.91846
-4.00316
-4.07033
-4.0512
-4.0514
-4.05494
-3.93883
-3.96964
-3.81363
-3.83676
-3.7886
-3.95226
-3.73691
-3.84059
-3.54174
-3.64782
-3.40099
-3.54496
-3.25412
-3.40308
-3.0441
-3.03494
-2.79963
-1.302
-1.30177
-1.32166
-1.33222
-1.42449
-1.53848
-1.70332
-1.86003
-2.08268
-2.26179
-2.5035
-2.69546
-2.93329
-3.11343
-3.34309
-3.50677
-3.68938
-3.78974
-3.95583
-3.92692
-3.88683
-3.87333
-3.90042
-3.7806
-3.83142
-3.66695
-3.69831
-3.92808
-3.92395
-3.76063
-3.85098
-3.62206
-3.7001
-3.36701
-3.5711
-3.25551
-3.40374
-2.9867
-2.91736
-2.56783
-1.24705
-1.23319
-1.26745
-1.25853
-1.33124
-1.44404
-1.6199
-1.75432
-1.96839
-2.15323
-2.37291
-2.56184
-2.7953
-2.96056
-3.20246
-3.35779
-3.51674
-3.63023
-3.70861
-3.75701
-3.711
-3.69215
-3.71353
-3.59979
-3.66943
-3.49548
-3.58734
-3.93878
-3.93153
-3.73249
-3.80221
-3.56566
-3.68907
-3.38181
-3.5162
-3.0866
-3.36705
-2.81088
-2.80747
-2.26386
-1.36215
-1.35551
-1.37653
-1.38367
-1.41705
-1.50178
-1.67195
-1.78464
-1.96641
-2.13292
-2.35934
-2.53369
-2.75429
-2.92708
-3.10237
-3.23995
-3.39496
-3.56518
-3.64524
-3.67621
-3.50655
-3.54397
-3.56092
-3.44222
-3.52836
-3.34875
-3.44299
-3.90762
-3.96104
-3.72735
-3.86275
-3.51076
-3.78154
-3.32319
-3.65184
-3.08674
-3.34481
-2.78699
-2.78783
-1.9847
-1.25582
-1.2279
-1.29001
-1.22786
-1.31443
-1.3094
-1.53841
-1.61303
-1.82262
-1.95512
-2.19791
-2.36051
-2.58701
-2.71526
-2.9695
-3.11728
-3.27213
-3.42739
-3.44658
-3.53052
-3.29603
-3.35323
-3.35267
-3.24221
-3.33248
-3.18909
-3.27535
-3.8546
-3.90939
-3.72693
-3.85029
-3.48066
-3.72676
-3.28303
-3.57568
-3.05854
-3.33652
-2.46607
-2.72966
-1.45575
-1.40538
-1.42184
-1.41784
-1.42212
-1.40364
-1.39713
-1.56911
-1.64203
-1.82565
-1.94052
-2.16897
-2.32297
-2.56194
-2.73887
-2.94581
-3.09563
-3.27724
-3.42127
-3.41683
-3.48189
-3.19882
-3.23049
-3.21889
-3.08486
-3.16026
-3.02093
-3.1278
-3.7551
-3.92854
-3.75197
-3.99055
-3.49559
-3.84979
-3.26944
-3.68684
-3.02748
-3.51507
-2.57264
-2.61197
-0.917404
-1.26171
-1.21588
-1.28614
-1.18233
-1.27906
-1.13663
-1.36316
-1.41387
-1.62445
-1.7489
-1.98259
-2.13848
-2.41052
-2.57495
-2.82867
-3.00403
-3.20952
-3.34395
-3.35925
-3.39474
-3.04938
-3.04153
-3.00451
-2.85243
-2.93363
-2.78995
-3.00942
-3.6273
-3.91652
-3.72806
-4.02335
-3.47251
-3.85361
-3.16966
-3.65383
-2.78576
-3.38911
-2.07893
-2.53177
0.55687
-1.43052
-1.53377
-1.45201
-1.45755
-1.39313
-1.3205
-1.38237
-1.4528
-1.6169
-1.73048
-1.94317
-2.11699
-2.36776
-2.54858
-2.79627
-2.98381
-3.19303
-3.34724
-3.38586
-3.39968
-3.06134
-2.96801
-2.88828
-2.69277
-2.72756
-2.5708
-2.91687
-3.4981
-3.93013
-3.7401
-4.10867
-3.57425
-3.97562
-3.25405
-3.82715
-2.82925
-3.5535
-1.87906
-2.45895
2.30232
-1.64514
-1.25091
-1.39582
-1.09726
-1.17279
-1.01725
-1.11535
-1.17916
-1.37779
-1.49656
-1.7627
-1.92509
-2.20823
-2.40499
-2.67979
-2.90309
-3.10562
-3.34536
-3.42502
-3.31223
-2.9671
-2.81267
-2.68507
-2.4077
-2.52025
-2.34057
-2.86369
-3.39073
-3.94918
-3.77087
-4.18782
-3.54419
-3.96686
-3.13105
-3.65711
-2.37957
-2.93661
-0.633879
-0.230097
7.4292
-1.35661
-1.79477
-1.67161
-1.67424
-1.39078
-1.16961
-1.18135
-1.1947
-1.34472
-1.4503
-1.68648
-1.8728
-2.14368
-2.33756
-2.61208
-2.85284
-3.12318
-3.36848
-3.53769
-3.37036
-3.05277
-2.82759
-2.55021
-2.20289
-2.33121
-2.14153
-2.80735
-3.22286
-3.92648
-3.74102
-4.14646
-3.58948
-4.01911
-3.12805
-3.70654
-2.36206
-2.84024
0.579047
2.71851
14.2426
-3.96787
-1.20927
-1.4883
-1.10273
-1.05532
-0.877524
-0.950486
-0.982024
-1.1832
-1.31439
-1.56794
-1.72537
-2.01317
-2.2322
-2.53826
-2.80642
-3.12277
-3.43182
-3.5847
-3.2209
-2.90272
-2.63
-2.23529
-1.89582
-2.15169
-2.10068
-2.93975
-3.35604
-4.07523
-3.85018
-4.21658
-3.49263
-3.82991
-2.8957
-3.25873
-1.42647
-0.831535
5.23999
12.7652
31.1299
-0.243129
-0.289752
-0.344193
-0.397839
-0.458445
-0.510407
-0.566399
-0.610222
-0.655853
-0.701104
-0.744559
-0.797432
-0.822463
-0.883
-0.879783
-0.952738
-0.925703
-1.00309
-0.872857
-1.07383
-0.786159
-1.01207