/*--------------------------------*- C++ -*----------------------------------*\
| =========                 |                                                 |
| \\      /  F ield         | OpenFOAM: The Open Source CFD Toolbox           |
|  \\    /   O peration     | Version:  v1806                                 |
|   \\  /    A nd           | Web:      www.OpenFOAM.com                      |
|    \\/     M anipulation  |                                                 |
\*---------------------------------------------------------------------------*/
FoamFile
{
    version     2.0;
    format      ascii;
    class       volScalarField;
    location    "0.019";
    object      p;
}
// * * * * * * * * * * * * * * * * * * * * * * * * * * * * * * * * * * * * * //

dimensions      [0 2 -2 0 0 0 0];


internalField   nonuniform List<scalar> 
64000
(
-3.0413e-05
-0.102133
-0.246674
-0.334855
-0.499653
-0.535049
-0.606858
-0.650091
-0.705359
-0.760514
-0.795761
-0.871981
-0.887634
-0.943896
-0.918386
-0.886036
-0.867598
-0.813955
-0.897346
-0.806965
-0.968783
-0.895723
-2.18339
-1.75851
-2.0617
-1.93596
-1.88422
-1.82168
-1.79303
-1.70725
-1.74793
-1.77278
-1.81495
-1.83383
-1.87021
-1.86119
-1.885
-1.87278
-1.86527
-1.83805
-0.124201
-0.214637
-0.31124
-0.366835
-0.505217
-0.580974
-0.678789
-0.735175
-0.748482
-0.761398
-0.642475
-0.613644
-0.573291
-0.578002
-0.611463
-0.675888
-0.854993
-0.808862
-0.807808
-0.681184
-0.791706
-0.802878
-2.06468
-1.80912
-1.99349
-1.94209
-1.9015
-1.88635
-1.80396
-1.78227
-1.72953
-1.71519
-1.7572
-1.76196
-1.80649
-1.79454
-1.81062
-1.81396
-1.81527
-1.79126
-0.274984
-0.30956
-0.368239
-0.399128
-0.478143
-0.462631
-0.510015
-0.52731
-0.503259
-0.59467
-0.721122
-0.905107
-0.989333
-1.14953
-1.11738
-1.09145
-1.02678
-0.944955
-0.912989
-0.810629
-0.984996
-1.02907
-2.44968
-2.33614
-2.53313
-2.54268
-2.53829
-2.5424
-2.50102
-2.42273
-2.36206
-2.26954
-2.09212
-2.01569
-1.96011
-1.89763
-1.87426
-1.83447
-1.80111
-1.75477
-0.384482
-0.390318
-0.443707
-0.48628
-0.466906
-0.622813
-0.660367
-0.706758
-0.938933
-1.17953
-1.29729
-1.36549
-1.36599
-1.31413
-1.30484
-1.28528
-1.2347
-1.14085
-1.06822
-0.979517
-1.11069
-1.16567
-2.6905
-2.68464
-2.89419
-2.92424
-2.92413
-2.94812
-2.91902
-2.88818
-2.82144
-2.73162
-2.5637
-2.27895
-2.07928
-1.93547
-1.78685
-1.65187
-1.60903
-1.5965
-0.451784
-0.46215
-0.528287
-0.561406
-0.577499
-0.961674
-1.25565
-1.40266
-1.55158
-1.66934
-1.72042
-1.70813
-1.79622
-1.75209
-1.74912
-1.6957
-1.60529
-1.49879
-1.41341
-1.35166
-1.45361
-1.48445
-3.04601
-3.08841
-3.30916
-3.33739
-3.32835
-3.34515
-3.34447
-3.33162
-3.29734
-3.24284
-3.1148
-2.94132
-2.61288
-2.22607
-1.62534
-1.30982
-1.45037
-1.41323
-0.547887
-0.583848
-0.641226
-0.66816
-0.766649
-1.37477
-1.55955
-1.79237
-1.91121
-2.01279
-2.061
-2.10833
-2.1185
-2.03886
-2.1603
-2.09745
-1.97548
-1.84502
-1.71103
-1.63288
-1.68863
-1.60131
-2.90307
-3.18214
-3.37291
-3.41606
-3.43832
-3.48779
-3.52074
-3.55236
-3.49927
-3.40198
-3.31459
-3.06184
-2.75204
-2.23328
-1.45818
-1.09573
-1.31466
-1.2948
-0.577635
-0.59439
-0.679642
-0.741373
-1.11182
-1.68803
-1.81344
-2.05102
-2.17285
-2.30674
-2.39161
-2.48395
-2.57932
-2.6319
-2.64401
-2.59207
-2.49917
-2.51978
-2.4937
-2.5348
-2.39442
-1.6641
-2.23946
-2.70701
-3.25146
-3.38764
-3.47369
-3.55569
-3.63352
-3.70418
-3.63617
-3.54014
-3.41589
-3.19418
-2.85796
-2.36495
-1.57943
-1.09799
-1.1845
-1.24597
-0.685814
-0.654998
-0.713233
-0.971616
-1.46567
-1.84653
-2.02171
-2.18595
-2.37909
-2.53349
-2.67309
-2.80571
-2.8915
-3.0191
-3.11592
-3.21097
-3.1713
-3.16796
-3.25018
-3.12758
-2.47534
-1.55151
-1.75091
-2.1369
-2.9011
-3.32238
-3.47165
-3.6183
-3.71149
-3.84123
-3.76536
-3.67312
-3.54042
-3.32413
-2.97786
-2.42994
-1.71669
-1.10986
-1.0463
-1.18666
-0.653298
-0.613906
-0.814559
-1.24718
-1.62388
-1.96523
-2.15483
-2.35781
-2.49306
-2.72232
-2.89236
-2.97223
-3.15718
-3.33741
-3.50373
-3.67279
-3.60943
-3.69257
-3.66466
-2.99474
-2.08874
-1.54271
-1.53439
-1.69012
-2.30889
-3.16857
-3.52074
-3.67715
-3.77098
-3.89392
-3.81804
-3.67348
-3.53408
-3.27051
-2.97792
-2.52253
-1.83634
-1.18147
-0.953324
-1.149
-0.734433
-0.740035
-0.999968
-1.37856
-1.69684
-2.01057
-2.22943
-2.46271
-2.62231
-2.80668
-2.95765
-3.07537
-3.26114
-3.49756
-3.72688
-3.84537
-3.61388
-3.95652
-3.08012
-2.19738
-1.81163
-1.56813
-1.52702
-1.44223
-1.70299
-2.76655
-3.48894
-3.72849
-3.832
-3.85976
-3.86363
-3.76649
-3.56702
-3.39323
-3.0216
-2.57294
-1.89969
-1.3043
-0.956806
-1.08702
-0.761433
-0.828607
-1.08677
-1.4151
-1.72361
-1.99207
-2.25021
-2.45807
-2.6499
-2.83871
-2.95095
-3.04325
-3.20196
-3.47032
-3.71333
-3.68164
-3.57699
-2.94099
-1.93771
-1.70551
-1.57392
-1.51312
-1.58619
-1.44085
-1.52131
-2.02492
-3.42621
-3.8522
-3.92523
-3.90104
-3.79881
-3.72065
-3.50877
-3.19989
-2.95132
-2.54368
-2.00172
-1.32208
-0.994635
-1.02771
-0.865045
-0.928682
-1.1474
-1.41852
-1.69261
-1.95043
-2.19057
-2.39188
-2.52183
-2.62243
-2.70595
-2.83805
-2.93861
-3.21808
-3.38917
-3.11215
-2.63018
-1.53964
-1.28138
-1.27065
-1.26277
-1.33456
-1.63242
-1.53105
-1.58373
-1.73036
-2.83207
-3.87813
-4.04863
-3.96999
-3.85305
-3.66397
-3.57966
-3.33553
-2.95642
-2.44368
-1.95751
-1.39252
-0.991939
-1.05633
-0.945482
-0.9931
-1.17243
-1.39072
-1.63194
-1.84734
-2.0618
-2.21415
-2.25094
-2.30449
-2.39902
-2.48375
-2.58665
-2.70822
-2.39818
-1.80508
-1.07298
-0.673553
-0.671355
-0.778464
-0.847964
-1.01073
-1.61552
-1.6334
-1.66697
-1.75592
-2.05992
-3.51693
-3.95824
-3.92115
-3.8372
-3.73617
-3.4465
-3.15197
-2.8956
-2.56728
-1.86072
-1.42477
-0.987186
-1.04479
-0.994333
-1.02487
-1.17526
-1.34615
-1.54185
-1.70022
-1.87987
-1.92347
-1.89076
-1.93577
-2.04309
-2.08899
-1.94092
-1.54421
-0.457816
-0.247824
0.0731668
0.0846411
-0.0593278
-0.242772
-0.376293
-0.569223
-1.50661
-1.7086
-1.80085
-1.85803
-2.11176
-2.69968
-3.94451
-3.89183
-3.90292
-3.62901
-3.34735
-3.0307
-2.66574
-2.27753
-1.96851
-1.35277
-0.977323
-1.01604
-1.06009
-1.05587
-1.16071
-1.28388
-1.45063
-1.57439
-1.66676
-1.62402
-1.53762
-1.55068
-1.46343
-1.00542
-0.211085
0.386976
0.728507
0.891503
0.742978
0.5071
0.413511
0.210858
0.0833279
-0.0807129
-1.25865
-1.74007
-1.87472
-1.98862
-2.09677
-2.39986
-3.33996
-3.91248
-3.68718
-3.43285
-3.09829
-2.74423
-2.40146
-1.97089
-1.63028
-1.3484
-1.00012
-0.973333
-0.99276
-0.998716
-1.0813
-1.17495
-1.30668
-1.42826
-1.51763
-1.39229
-1.06375
-0.675037
-0.0811577
0.618202
1.13137
1.27899
1.19375
1.14401
0.885146
0.61206
0.510469
0.394397
0.324346
0.234545
-0.928664
-1.77525
-1.97523
-2.09244
-2.24798
-2.41871
-2.6237
-3.36092
-3.37664
-3.13771
-2.77851
-2.4223
-2.06444
-1.76715
-1.39555
-1.18421
-0.859051
-0.910895
-1.17226
-1.07819
-1.11261
-1.15091
-1.24142
-1.40779
-1.43824
-0.923521
-0.117843
0.444628
0.883282
1.09232
1.06745
0.942827
0.73842
0.728015
0.439059
0.263274
0.0909774
0.102271
0.061294
0.0789292
-0.735444
-1.85881
-2.1099
-2.20701
-2.23066
-2.40425
-2.59346
-2.9365
-3.00563
-2.61527
-2.18324
-1.74383
-1.29582
-0.970241
-0.851767
-0.879421
-0.867223
-0.804838
-0.899993
-0.905758
-0.974961
-1.00087
-1.11041
-1.24933
-1.00377
-0.219571
0.137976
0.127257
-0.013674
-0.0368387
-0.0836494
-0.113075
-0.164516
-0.231033
-0.345972
-0.502612
-0.646511
-0.650916
-0.657335
-0.505424
-0.913673
-1.97372
-2.23593
-2.28103
-2.35455
-2.48115
-2.6084
-2.95254
-2.87279
-2.5163
-1.9853
-1.46136
-1.12295
-1.02609
-0.793344
-0.439612
-0.750685
-0.714228
-2.14863
-1.92287
-1.8959
-1.8505
-1.97399
-2.10187
-1.90702
-1.83013
-1.77273
-1.73488
-1.63107
-1.47062
-1.33605
-1.19122
-1.12885
-1.05678
-1.14078
-1.16202
-1.30097
-1.4
-1.43385
-1.36229
-1.47272
-2.16558
-2.3591
-2.3311
-2.42247
-2.50632
-2.64025
-2.79856
-3.07078
-2.64301
-1.59763
-1.23938
-0.963189
-0.908107
-0.758192
-0.946451
-0.649641
-0.782515
-2.09409
-2.3126
-2.43691
-2.55156
-2.7343
-2.90688
-2.84074
-2.97302
-2.94266
-2.84419
-2.6809
-2.43495
-2.18137
-1.925
-1.73574
-1.5827
-1.51595
-1.58859
-1.57517
-1.75974
-1.83965
-1.93122
-2.01808
-2.37639
-2.34812
-2.32211
-2.39278
-2.46961
-2.63988
-2.84404
-2.92247
-3.23702
-2.72883
-1.2076
-0.442343
-0.154483
-0.282507
-0.461501
-0.620197
-0.722829
-2.161
-2.22764
-2.29977
-2.41827
-2.55985
-2.66214
-2.67011
-3.0063
-3.2606
-3.3096
-3.25598
-3.03221
-2.71581
-2.34741
-2.02596
-1.76488
-1.59185
-1.53693
-1.63832
-1.78318
-1.96592
-2.11283
-2.27526
-2.51162
-2.38094
-2.32848
-2.33995
-2.43451
-2.60548
-2.82245
-3.0151
-3.12994
-3.16726
-2.49043
-1.90743
-1.49756
-1.1495
-1.10755
-1.00406
-1.29267
-2.38287
-2.42547
-2.50026
-2.59841
-2.71919
-2.80543
-2.86643
-3.14069
-3.56157
-3.74371
-3.74805
-3.5485
-3.17943
-2.71003
-2.27817
-1.99289
-1.88903
-1.86947
-1.85132
-1.88662
-2.03474
-2.18858
-2.36829
-2.44532
-2.46932
-2.35009
-2.32229
-2.37154
-2.51425
-2.72669
-2.94883
-3.17621
-3.06885
-2.68523
-2.53812
-2.5187
-2.52256
-2.50458
-2.49384
-2.41443
-2.42348
-2.50801
-2.5968
-2.6941
-2.85594
-2.94692
-3.06191
-3.30014
-3.72716
-4.06145
-4.16277
-4.02649
-3.6795
-3.19507
-2.82504
-2.80964
-2.77511
-2.50819
-2.39528
-2.32488
-2.27786
-2.29812
-2.37904
-2.49336
-2.47578
-2.43441
-2.37189
-2.37185
-2.48728
-2.70432
-2.96268
-3.19355
-3.18488
-2.96081
-2.88693
-2.88765
-2.97527
-2.93869
-2.75081
-2.62827
-2.52703
-2.47571
-2.68227
-2.75786
-2.92719
-3.04825
-3.19444
-3.43732
-3.82498
-4.19332
-4.36957
-4.33453
-4.12362
-3.78015
-3.50906
-3.42043
-3.1248
-2.55367
-2.41735
-2.40706
-2.43543
-2.4665
-2.45414
-2.514
-2.56532
-2.52832
-2.47569
-2.44749
-2.49281
-2.64771
-2.91177
-3.15663
-3.25921
-3.23313
-3.30657
-3.34635
-3.51816
-3.50992
-3.41281
-2.97193
-2.62658
-2.47131
-2.76954
-2.82029
-3.00573
-3.15329
-3.32803
-3.56032
-3.8981
-4.23367
-4.42219
-4.44834
-4.36537
-4.21031
-3.97122
-3.7143
-3.32834
-2.56239
-2.43125
-2.425
-2.43188
-2.52911
-2.47996
-2.57246
-2.57376
-2.61207
-2.5735
-2.52935
-2.51002
-2.56803
-2.71898
-2.87859
-3.04401
-3.13361
-3.35188
-3.45941
-3.74024
-3.77633
-3.70814
-2.96875
-2.71171
-2.49381
-2.83521
-2.88981
-3.07971
-3.26943
-3.45294
-3.66827
-3.95068
-4.24859
-4.41435
-4.45468
-4.39887
-4.33579
-4.15972
-3.9027
-3.54587
-2.59157
-2.42518
-2.44282
-2.47179
-2.55706
-2.5213
-2.60414
-2.7017
-2.82953
-2.84362
-2.98206
-3.22535
-3.53
-3.78215
-3.91731
-4.03732
-4.03361
-4.19277
-4.13897
-4.3804
-4.2357
-4.28476
-3.46144
-2.77772
-2.54155
-2.85588
-2.99127
-3.18297
-3.34168
-3.56013
-3.75981
-3.99137
-4.26817
-4.44599
-4.4908
-4.43015
-4.34777
-4.214
-3.96075
-3.71473
-2.66807
-2.43623
-2.44361
-2.48203
-2.56328
-2.63087
-2.64552
-2.777
-3.00398
-3.10481
-3.42243
-3.54547
-3.54451
-3.53543
-3.48367
-3.51963
-3.44403
-3.5821
-3.40531
-3.6393
-3.38917
-3.78698
-3.5947
-2.82725
-2.64134
-2.79414
-3.08391
-3.2752
-3.42629
-3.62612
-3.76805
-3.99633
-4.19647
-4.32496
-4.38345
-4.38446
-4.32804
-4.24693
-4.12138
-3.79145
-2.84712
-2.4016
-2.41637
-2.48253
-2.57998
-2.69564
-2.70953
-2.75247
-3.0755
-3.27923
-3.55317
-3.54588
-3.51316
-3.51802
-3.47093
-3.51732
-3.36198
-3.4737
-3.09234
-3.22304
-2.651
-2.80948
-2.50316
-2.86943
-2.76274
-2.74772
-3.16238
-3.34068
-3.50718
-3.66586
-3.83316
-4.01565
-4.17341
-4.29101
-4.34937
-4.36869
-4.33201
-4.25649
-4.11658
-3.96
-3.11864
-2.36571
-2.37211
-2.44496
-2.51808
-2.63024
-2.54364
-2.60522
-3.30106
-3.35857
-3.49119
-3.47966
-3.44858
-3.45837
-3.38065
-3.43571
-3.25886
-3.38136
-2.88505
-3.06174
-2.3532
-2.54813
-2.38621
-2.91419
-2.87351
-2.7537
-3.15073
-3.35607
-3.54192
-3.67951
-3.85587
-3.98279
-4.12595
-4.22873
-4.29429
-4.32381
-4.31655
-4.32494
-4.1488
-4.05288
-3.48596
-2.30774
-2.29498
-2.33867
-2.40971
-2.52994
-2.33921
-2.4668
-3.46108
-3.2601
-3.45391
-3.41903
-3.42513
-3.4266
-3.31018
-3.4043
-3.09916
-3.31479
-2.66524
-2.92305
-2.034
-2.2281
-1.8851
-2.95939
-3.00125
-2.80585
-3.11732
-3.39855
-3.55698
-3.72463
-3.8724
-4.00118
-4.11254
-4.20499
-4.27013
-4.30614
-4.32876
-4.29058
-4.24983
-4.26269
-3.71926
-2.28073
-2.28428
-2.25946
-2.3031
-2.4465
-2.19909
-2.31997
-3.48778
-3.15666
-3.3751
-3.38524
-3.36128
-3.35331
-3.26776
-3.30159
-3.06052
-3.23937
-2.51262
-2.86668
-1.85097
-2.12863
-1.5951
-2.99136
-3.0089
-2.91114
-2.98213
-3.38414
-3.50241
-3.6658
-3.79762
-3.93267
-4.05605
-4.14304
-4.2127
-4.28733
-4.26505
-4.30192
-4.25107
-4.30237
-3.98841
-2.27823
-2.23013
-2.15741
-2.20292
-2.3828
-2.16125
-2.17135
-3.52687
-3.06323
-3.38037
-3.3235
-3.33591
-3.33547
-3.16135
-3.30825
-2.8666
-3.2859
-2.34552
-2.872
-1.65456
-2.08237
-1.28798
-3.06524
-3.07511
-3.08723
-3.00046
-3.4176
-3.57176
-3.71181
-3.834
-3.95149
-4.05783
-4.15968
-4.26888
-4.29049
-4.33628
-4.30758
-4.28602
-4.2411
-4.13519
-2.33405
-2.18011
-2.09515
-2.1274
-2.33487
-2.17767
-2.03158
-3.53008
-3.02494
-3.35207
-3.26922
-3.30408
-3.30985
-3.13145
-3.21501
-2.84319
-3.19529
-2.25078
-2.91303
-1.48106
-2.07021
-0.950525
-3.01119
-2.98812
-3.04599
-3.001
-3.0963
-3.35757
-3.52229
-3.6395
-3.77329
-3.89614
-4.01768
-4.1046
-4.22462
-4.26558
-4.26886
-4.24511
-4.13522
-4.18089
-2.31648
-2.05248
-1.96238
-2.00559
-2.23061
-2.15253
-1.91741
-3.45743
-3.02313
-3.32779
-3.25863
-3.2588
-3.30433
-3.05348
-3.29212
-2.64168
-3.28542
-1.91045
-2.95398
-1.01127
-1.86609
-0.3587
-3.20268
-3.26287
-3.25436
-3.24001
-3.32518
-3.48871
-3.61928
-3.7175
-3.84571
-3.93066
-4.05904
-4.18582
-4.26804
-4.3483
-4.35295
-4.32684
-4.16969
-4.26416
-2.34222
-1.97074
-1.86306
-1.90065
-2.10241
-2.08629
-1.86209
-3.40811
-3.096
-3.3565
-3.29727
-3.17412
-3.36384
-2.95736
-3.32859
-2.51096
-3.32924
-1.82075
-2.93542
-0.704804
-1.5442
0.41484
-3.00831
-2.88408
-3.02729
-2.97507
-3.00265
-3.23963
-3.25633
-3.38649
-3.50582
-3.66284
-3.8318
-3.97466
-4.12783
-4.19633
-4.27048
-4.31303
-4.12157
-4.22089
-2.18843
-1.72431
-1.60241
-1.63626
-1.82374
-1.87834
-1.76828
-3.30605
-3.14084
-3.34985
-3.29727
-3.16617
-3.23893
-2.97395
-3.337
-2.36782
-3.22824
-1.29055
-2.6496
0.485005
-0.393376
2.36986
-3.17186
-3.31972
-3.1512
-3.40592
-3.28114
-3.48685
-3.48073
-3.51857
-3.65643
-3.77255
-3.92497
-4.08234
-4.23499
-4.34188
-4.49704
-4.53959
-4.30233
-4.27309
-2.17661
-1.56882
-1.41434
-1.41221
-1.53863
-1.64851
-1.77191
-3.30372
-3.28033
-3.38224
-3.38002
-3.11938
-3.3141
-2.7764
-3.54859
-2.18266
-3.65801
-1.19169
-2.63013
1.36823
0.901994
4.28116
-3.76018
-3.17333
-3.33114
-2.85725
-3.09856
-3.0001
-3.05117
-3.14571
-3.28934
-3.43124
-3.63488
-3.84606
-4.10469
-4.33565
-4.5866
-4.71234
-4.49381
-4.1333
-1.89211
-1.15945
-0.970039
-0.978047
-1.09894
-1.315
-1.77944
-3.26969
-3.3795
-3.39589
-3.38546
-3.05113
-3.28302
-2.65038
-3.38555
-1.89512
-3.26695
-0.22785
-1.50625
4.34377
4.63777
10.6657
-3.38314
-3.89796
-3.53045
-3.65745
-3.09505
-3.32358
-3.2015
-3.25695
-3.39166
-3.5157
-3.6932
-3.93247
-4.25707
-4.60108
-4.92965
-5.10135
-4.82654
-4.09124
-1.87751
-0.984518
-0.701895
-0.604937
-0.772806
-1.04911
-1.8246
-3.29112
-3.52412
-3.45061
-3.42546
-2.96233
-3.27762
-2.63734
-3.73645
-2.29171
-3.85238
-0.514655
-1.02697
6.59112
9.86467
19.2953
-6.06019
-3.23038
-3.72732
-3.16201
-3.09964
-2.90973
-3.00798
-3.04679
-3.19907
-3.33413
-3.54647
-3.79527
-4.17435
-4.67708
-5.07352
-5.29456
-4.93986
-3.86743
-1.67398
-0.643857
-0.313594
-0.184942
-0.48737
-0.8768
-1.88424
-3.34856
-3.66029
-3.53047
-3.4705
-2.87725
-3.21064
-2.48481
-3.63689
-2.28894
-3.94611
-0.311363
0.277855
10.7518
21.1955
39.8466
-0.10201
-0.200205
-0.289058
-0.353705
-0.49863
-0.545487
-0.613557
-0.651757
-0.725535
-0.767299
-0.827782
-0.91942
-0.925629
-0.931008
-0.90631
-0.88324
-0.86629
-0.801672
-0.926821
-0.851552
-0.87146
-0.839251
-2.19391
-1.94837
-2.18745
-2.19493
-2.15939
-2.10218
-1.99619
-1.96394
-1.85512
-1.86558
-1.91477
-1.87025
-1.89665
-1.88059
-1.89522
-1.88564
-1.88429
-1.85805
-0.222999
-0.286991
-0.349933
-0.384121
-0.505678
-0.563956
-0.639624
-0.724695
-0.708875
-0.743437
-0.597414
-0.617769
-0.563424
-0.597569
-0.695564
-0.827842
-0.87297
-0.79384
-0.759366
-0.643141
-0.754157
-0.900169
-2.13636
-2.12486
-2.30835
-2.32519
-2.29057
-2.23318
-2.15895
-2.08926
-1.98625
-1.88397
-1.85965
-1.82282
-1.85393
-1.8191
-1.841
-1.83533
-1.83298
-1.80593
-0.303032
-0.337072
-0.380141
-0.426357
-0.470587
-0.496031
-0.561914
-0.545714
-0.583169
-0.611425
-0.727699
-0.8963
-1.00267
-1.15086
-1.22223
-1.17686
-1.08694
-0.980715
-0.918425
-0.810031
-0.967549
-1.1986
-2.55579
-2.71299
-2.8883
-2.91887
-2.90471
-2.8497
-2.79111
-2.73438
-2.64434
-2.43401
-2.20429
-2.09271
-1.99108
-1.89416
-1.8874
-1.85405
-1.82589
-1.78237
-0.395111
-0.393683
-0.448364
-0.454689
-0.454679
-0.547922
-0.637657
-0.645759
-0.869264
-1.15382
-1.31538
-1.40307
-1.41016
-1.48667
-1.49345
-1.40299
-1.28418
-1.14658
-1.03366
-0.927669
-1.09733
-1.39782
-2.82005
-3.07869
-3.24609
-3.27814
-3.26678
-3.21409
-3.16466
-3.12635
-3.08145
-2.97059
-2.73369
-2.35804
-2.12958
-1.88951
-1.77923
-1.65741
-1.65677
-1.6081
-0.454696
-0.464013
-0.554068
-0.586537
-0.652328
-0.667236
-1.16416
-1.41342
-1.61299
-1.74174
-1.79782
-1.8108
-1.84448
-1.94595
-1.90981
-1.81828
-1.68651
-1.54326
-1.40989
-1.23535
-1.28925
-1.49429
-2.98851
-3.33395
-3.46957
-3.50052
-3.53267
-3.51954
-3.51876
-3.4757
-3.42362
-3.34387
-3.2345
-3.01249
-2.61302
-2.15732
-1.56696
-1.36973
-1.44363
-1.4227
-0.574908
-0.591225
-0.675774
-0.712337
-0.814547
-1.11298
-1.62528
-1.86789
-1.99826
-2.0968
-2.13787
-2.15096
-2.18418
-2.28851
-2.25957
-2.19595
-2.02546
-1.85056
-1.68671
-1.51927
-1.49131
-1.5328
-2.78603
-3.38593
-3.60536
-3.62882
-3.61485
-3.63869
-3.69914
-3.63482
-3.6325
-3.54824
-3.40456
-3.17973
-2.79901
-2.16903
-1.40355
-1.16715
-1.26632
-1.29862
-0.608491
-0.645925
-0.762704
-0.816552
-0.987033
-1.65235
-1.90458
-2.11652
-2.25364
-2.37898
-2.4576
-2.51149
-2.60267
-2.7099
-2.70986
-2.69404
-2.61077
-2.55571
-2.55685
-2.482
-2.13369
-1.56225
-2.11432
-2.78328
-3.43344
-3.58
-3.63452
-3.66735
-3.69759
-3.7609
-3.6628
-3.57089
-3.4496
-3.24237
-2.91037
-2.29809
-1.45348
-1.1163
-1.17262
-1.24016
-0.707443
-0.731734
-0.840466
-1.08544
-1.41955
-1.80676
-2.03279
-2.25579
-2.43792
-2.59498
-2.75058
-2.89874
-3.05061
-3.15976
-3.2449
-3.31194
-3.33105
-3.3799
-3.35167
-2.93567
-2.1558
-1.4216
-1.58777
-2.07924
-2.94638
-3.4542
-3.61937
-3.72255
-3.75055
-3.73025
-3.7936
-3.64153
-3.57035
-3.34256
-2.97619
-2.41986
-1.58041
-1.1188
-1.0874
-1.18782
-0.683793
-0.685385
-0.902243
-1.44583
-1.58241
-2.03174
-2.15355
-2.37493
-2.58541
-2.80729
-2.9313
-3.14792
-3.36479
-3.54606
-3.71465
-3.87
-3.92402
-3.94383
-3.50529
-2.67212
-1.88358
-1.43152
-1.4017
-1.57405
-2.18589
-3.15859
-3.59643
-3.77938
-3.77253
-3.77548
-3.72884
-3.64729
-3.42511
-3.17861
-2.92797
-2.45681
-1.72644
-1.10859
-1.02237
-1.1324
-0.727034
-0.793071
-1.12788
-1.53757
-1.69643
-2.04685
-2.23734
-2.57204
-2.71192
-2.88506
-3.02717
-3.31944
-3.57875
-3.82008
-4.05828
-4.21074
-4.13268
-3.74343
-2.70274
-1.99874
-1.66722
-1.50196
-1.4371
-1.32071
-1.53505
-2.60205
-3.47193
-3.79498
-3.95337
-3.82867
-3.82526
-3.78269
-3.71912
-3.56606
-3.07585
-2.52425
-1.84978
-1.21331
-0.992715
-1.10928
-0.783002
-0.911606
-1.21516
-1.54886
-1.79781
-1.99829
-2.27042
-2.51431
-2.71258
-2.93315
-3.06524
-3.37824
-3.66071
-3.92233
-4.18121
-4.1886
-3.66383
-2.50991
-1.71391
-1.48531
-1.49434
-1.54886
-1.55111
-1.31648
-1.30925
-1.82453
-3.21065
-3.83244
-3.91143
-4.08346
-3.94223
-3.6406
-3.35901
-3.19417
-2.99486
-2.5879
-1.91012
-1.26136
-0.963803
-1.05293
-0.917658
-1.03087
-1.25678
-1.5302
-1.77025
-2.01132
-2.1733
-2.46457
-2.57138
-2.74832
-2.94839
-3.34519
-3.50129
-3.81719
-3.94067
-3.39952
-2.20712
-1.24551
-0.989526
-1.08699
-1.30425
-1.52171
-1.66385
-1.45232
-1.3852
-1.61559
-2.71846
-3.75192
-4.27526
-4.20357
-4.04697
-3.9002
-3.66726
-3.41383
-3.03606
-2.4675
-1.98941
-1.34379
-0.947682
-1.04773
-1.02532
-1.10134
-1.28257
-1.50873
-1.6987
-1.89835
-2.08946
-2.2173
-2.332
-2.53101
-2.73068
-2.82445
-2.9879
-3.37724
-2.80919
-1.58495
-0.66673
-0.344572
-0.431686
-0.706855
-1.0412
-1.38242
-1.7241
-1.60938
-1.54476
-1.64848
-2.00386
-3.39909
-4.03232
-4.0187
-4.20811
-4.00405
-3.70732
-3.39472
-2.96952
-2.781
-1.92958
-1.37025
-0.967545
-1.0037
-1.11859
-1.15994
-1.29683
-1.4508
-1.61346
-1.7665
-1.9245
-1.95146
-1.97149
-2.04436
-2.12277
-2.26729
-1.98533
-2.05995
-0.681266
0.0977221
0.371065
0.311718
0.0474806
-0.319981
-0.700178
-1.13273
-1.71503
-1.7414
-1.74589
-1.80654
-2.16315
-2.92948
-4.16798
-4.44374
-4.22084
-3.95096
-3.63794
-3.29403
-2.8953
-2.48971
-2.21427
-1.45578
-0.927442
-0.97273
-1.16303
-1.18879
-1.30371
-1.41958
-1.54318
-1.62159
-1.68051
-1.65172
-1.56717
-1.58881
-1.49468
-0.920079
0.00163988
0.232367
0.760947
1.05094
0.974215
0.741447
0.413557
0.0264043
-0.33517
-0.805807
-1.61137
-1.83552
-1.87668
-1.99251
-2.03388
-2.50465
-3.39679
-4.15604
-4.01828
-3.698
-3.33192
-2.96244
-2.56855
-2.32645
-1.83536
-1.51763
-0.972974
-0.919625
-1.10395
-1.09396
-1.19676
-1.29598
-1.42376
-1.44705
-1.5081
-1.35698
-0.972585
-0.532289
0.0219747
0.842781
1.34571
1.29446
1.33212
1.34071
1.14007
0.863862
0.538684
0.186049
-0.112853
-0.533805
-1.45393
-1.89502
-2.00581
-1.96569
-2.1556
-2.37153
-2.69431
-3.41786
-3.5726
-3.26706
-2.87789
-2.48762
-2.08933
-1.80958
-1.52135
-1.32506
-0.88032
-0.813398
-1.11198
-1.08499
-1.14587
-1.19675
-1.33024
-1.3404
-1.37278
-0.807773
0.0787957
0.710509
1.08097
1.35366
1.32988
1.15873
1.0117
0.844015
0.72628
0.532452
0.263144
-0.013281
-0.240761
-0.513139
-1.29066
-1.98354
-2.16001
-2.14691
-2.15732
-2.34362
-2.55097
-2.82583
-2.92623
-2.63072
-2.18661
-1.76277
-1.36018
-1.11427
-0.905714
-0.884025
-0.854829
-0.783785
-0.960039
-1.01816
-1.08045
-1.11402
-1.175
-1.23013
-1.03054
-0.198532
0.328633
0.505099
0.469824
0.400774
0.276894
0.149955
0.0608292
-0.0780109
-0.177893
-0.264412
-0.397654
-0.593372
-0.743992
-0.820396
-1.30251
-2.04288
-2.19998
-2.1634
-2.25301
-2.3953
-2.56719
-2.824
-2.7698
-2.28291
-1.74045
-1.25802
-0.857064
-0.55373
-0.415245
-0.464755
-0.676846
-0.644755
-2.00802
-1.86413
-1.8248
-1.79821
-1.76224
-1.87362
-1.70638
-1.52764
-1.35064
-1.25244
-1.1624
-1.0694
-1.01438
-0.986169
-0.99615
-1.00285
-1.09252
-1.06892
-1.16374
-1.25932
-1.39944
-1.42353
-1.64194
-2.18292
-2.27459
-2.2257
-2.30584
-2.43526
-2.61693
-2.80417
-3.00176
-2.64323
-1.54975
-0.892201
-0.438991
-0.116917
-0.0121969
-0.258871
-0.400131
-0.560566
-2.39994
-2.36851
-2.46625
-2.52588
-2.57533
-2.7181
-2.64809
-2.87811
-2.85585
-2.72892
-2.52501
-2.28506
-2.06522
-1.84523
-1.72013
-1.60722
-1.62921
-1.6309
-1.61157
-1.73
-1.84862
-1.93982
-2.06625
-2.38093
-2.25078
-2.22924
-2.29901
-2.43961
-2.63611
-2.86118
-3.0298
-3.20522
-2.61348
-1.16605
-0.28482
0.0478379
0.265481
-0.0643346
-0.351177
-0.534377
-2.24745
-2.28313
-2.41219
-2.50731
-2.63348
-2.71468
-2.78846
-3.13975
-3.43816
-3.47961
-3.37302
-3.10845
-2.79379
-2.44047
-2.17484
-1.94566
-1.83096
-1.78349
-1.89008
-1.87733
-2.0698
-2.17582
-2.31549
-2.45246
-2.2982
-2.23713
-2.25761
-2.37167
-2.56719
-2.81689
-3.06774
-3.2683
-3.24208
-2.45622
-1.68304
-1.2089
-0.845673
-0.718838
-0.780774
-0.935548
-2.41993
-2.44641
-2.55756
-2.63728
-2.80194
-2.84177
-2.93261
-3.24669
-3.73414
-3.9703
-3.96414
-3.73962
-3.3853
-2.98429
-2.64508
-2.37246
-2.19238
-2.06548
-2.04324
-2.10616
-2.14895
-2.27772
-2.40311
-2.40942
-2.37607
-2.26537
-2.22216
-2.28172
-2.44729
-2.68632
-2.94318
-3.19107
-3.22785
-2.89771
-2.65266
-2.528
-2.43847
-2.27419
-2.29328
-2.4206
-2.38269
-2.51006
-2.63246
-2.72387
-2.87218
-2.97273
-3.09171
-3.35356
-3.84548
-4.25812
-4.39954
-4.27404
-3.98142
-3.6221
-3.28448
-2.99626
-2.71878
-2.43674
-2.33061
-2.26012
-2.30717
-2.30631
-2.44688
-2.44403
-2.44247
-2.35635
-2.26877
-2.25222
-2.36217
-2.59514
-2.87695
-3.12745
-3.23956
-3.15375
-3.15345
-3.17179
-3.24086
-3.09639
-2.86721
-2.58121
-2.49092
-2.57378
-2.73031
-2.82578
-2.97825
-3.11404
-3.24426
-3.48605
-3.91261
-4.35521
-4.60234
-4.61616
-4.45915
-4.1961
-3.86636
-3.43278
-2.94004
-2.44565
-2.30586
-2.30235
-2.34088
-2.3482
-2.41519
-2.45761
-2.51437
-2.46167
-2.37866
-2.31825
-2.33817
-2.48821
-2.75142
-3.00228
-3.17678
-3.25056
-3.44796
-3.5864
-3.84161
-3.75521
-3.55225
-3.03484
-2.59079
-2.58208
-2.82508
-2.93497
-3.09385
-3.25603
-3.37944
-3.62009
-3.97353
-4.35404
-4.60964
-4.69797
-4.64536
-4.46291
-4.11745
-3.65134
-3.08164
-2.45577
-2.29599
-2.2842
-2.3227
-2.39868
-2.40676
-2.5144
-2.49998
-2.54372
-2.53342
-2.4809
-2.494
-2.60763
-2.78497
-2.95762
-3.1543
-3.277
-3.56129
-3.71048
-4.08183
-4.08954
-3.95312
-3.14748
-2.67749
-2.51048
-2.84949
-3.00275
-3.19521
-3.33348
-3.48082
-3.72844
-4.0183
-4.32798
-4.5327
-4.61146
-4.58017
-4.46215
-4.19578
-3.81575
-3.2085
-2.45549
-2.27198
-2.26387
-2.30899
-2.39986
-2.45974
-2.56792
-2.66865
-2.7391
-2.77034
-2.9351
-3.18286
-3.46183
-3.68252
-3.81044
-3.95906
-3.98267
-4.20792
-4.18931
-4.51442
-4.38785
-4.43594
-3.78244
-2.7826
-2.54874
-2.82703
-3.02513
-3.24087
-3.43348
-3.60091
-3.81865
-4.0507
-4.29195
-4.45339
-4.50809
-4.47303
-4.38998
-4.22419
-3.94854
-3.45468
-2.53185
-2.21937
-2.19365
-2.2468
-2.381
-2.51005
-2.61977
-2.75527
-3.0096
-3.06005
-3.28351
-3.49905
-3.59036
-3.6022
-3.56948
-3.60892
-3.5191
-3.6762
-3.48947
-3.79521
-3.51379
-3.78558
-3.61298
-2.8503
-2.63991
-2.80131
-3.08022
-3.28431
-3.46386
-3.68078
-3.86587
-4.05478
-4.22979
-4.34742
-4.39698
-4.38684
-4.34256
-4.26972
-4.08386
-3.68264
-2.75704
-2.27934
-2.18037
-2.24745
-2.35579
-2.49425
-2.58253
-2.72495
-3.04174
-3.3552
-3.5738
-3.56721
-3.54121
-3.57335
-3.51389
-3.5544
-3.3582
-3.48896
-3.07751
-3.27798
-2.68283
-2.92123
-2.54979
-2.89854
-2.7478
-2.78471
-3.15227
-3.36641
-3.52221
-3.71142
-3.91355
-4.06936
-4.20254
-4.30274
-4.35692
-4.37729
-4.36502
-4.3286
-4.21001
-3.91503
-3.05787
-2.28592
-2.20755
-2.20868
-2.26796
-2.39331
-2.4342
-2.62571
-3.25353
-3.4224
-3.52899
-3.49268
-3.52683
-3.50053
-3.39655
-3.44179
-3.19818
-3.33093
-2.80897
-3.07126
-2.29959
-2.50522
-2.162
-2.9409
-2.84842
-2.79063
-3.14579
-3.40044
-3.56552
-3.7
-3.87757
-4.0421
-4.16631
-4.26634
-4.33443
-4.37865
-4.40105
-4.41212
-4.32596
-4.14899
-3.40391
-2.34546
-2.17157
-2.15688
-2.16906
-2.25989
-2.24902
-2.52306
-3.38346
-3.35853
-3.46052
-3.43537
-3.41088
-3.45602
-3.3778
-3.42734
-3.08051
-3.31673
-2.63489
-3.04124
-2.1012
-2.33397
-1.80791
-2.98015
-2.95244
-2.84978
-3.12485
-3.44647
-3.62219
-3.76423
-3.92463
-4.02247
-4.15866
-4.26378
-4.34443
-4.40199
-4.4516
-4.46886
-4.42138
-4.36762
-3.60945
-2.32379
-2.15734
-2.14789
-2.09476
-2.16201
-2.11994
-2.42564
-3.43506
-3.33149
-3.37291
-3.39381
-3.30926
-3.4268
-3.2021
-3.44687
-3.04106
-3.29393
-2.56908
-3.09226
-2.05834
-2.3938
-1.6737
-3.00055
-2.99742
-2.89821
-3.0017
-3.38674
-3.55496
-3.70645
-3.83176
-3.98075
-4.0575
-4.18312
-4.27288
-4.35488
-4.41428
-4.47915
-4.43831
-4.45648
-3.89834
-2.35427
-2.10318
-2.04414
-2.01903
-2.09527
-2.05662
-2.32286
-3.47385
-3.29089
-3.35098
-3.3323
-3.31266
-3.31432
-3.23265
-3.28104
-2.95695
-3.4061
-2.43484
-3.24526
-1.99575
-2.52672
-1.54646
-3.06242
-3.07371
-3.04077
-3.03475
-3.39158
-3.61432
-3.75839
-3.8754
-4.01103
-4.11893
-4.22532
-4.27957
-4.33083
-4.42562
-4.47473
-4.40086
-4.37234
-4.04498
-2.40514
-2.11766
-1.95546
-1.96943
-2.06358
-2.04627
-2.2363
-3.48662
-3.28977
-3.35617
-3.31587
-3.26815
-3.33412
-3.08721
-3.35774
-2.80567
-3.30308
-2.52883
-3.33318
-1.98567
-2.718
-1.40848
-3.0102
-2.98964
-3.08693
-2.87869
-3.10885
-3.39117
-3.56281
-3.68125
-3.80915
-3.96456
-4.09088
-4.20181
-4.33176
-4.30186
-4.40035
-4.36151
-4.3138
-4.14303
-2.38458
-1.97083
-1.80033
-1.85705
-1.97839
-2.00165
-2.14274
-3.44946
-3.24624
-3.36159
-3.29647
-3.19882
-3.32782
-3.028
-3.30398
-2.70916
-3.4378
-2.07438
-3.56014
-1.55162
-2.6886
-1.04781
-3.21999
-3.22378
-3.25286
-3.30999
-3.16072
-3.54001
-3.67062
-3.77194
-3.89009
-4.01068
-4.15125
-4.28332
-4.35757
-4.46826
-4.54204
-4.53236
-4.39958
-4.2592
-2.42516
-1.8492
-1.69209
-1.75792
-1.88669
-1.95109
-2.11649
-3.41808
-3.29894
-3.3705
-3.30673
-3.1658
-3.33975
-2.96703
-3.38033
-2.52179
-3.49912
-1.99268
-3.47744
-1.51966
-2.3882
-0.354924
-2.96821
-2.93292
-3.03729
-3.00489
-3.00087
-3.14308
-3.31791
-3.41747
-3.55976
-3.70956
-3.88834
-4.01617
-4.19133
-4.27255
-4.35569
-4.50704
-4.3675
-4.19242
-2.30229
-1.64768
-1.42496
-1.48035
-1.62864
-1.75526
-1.98875
-3.32032
-3.3199
-3.36694
-3.32901
-3.11363
-3.27301
-2.89059
-3.38741
-2.36071
-3.49454
-1.46768
-3.08332
-0.405324
-1.46398
1.60355
-3.15654
-3.34643
-3.18003
-3.44512
-3.34409
-3.48917
-3.54681
-3.60943
-3.73691
-3.86216
-3.9969
-4.17957
-4.34606
-4.50457
-4.74131
-4.70505
-4.69527
-4.3139
-2.22905
-1.49363
-1.17587
-1.25874
-1.41284
-1.59787
-1.99691
-3.35409
-3.4507
-3.43508
-3.39958
-3.11085
-3.36007
-2.83744
-3.59919
-2.34949
-3.83689
-1.44878
-3.05672
0.598496
-0.253318
3.74535
-3.71128
-3.16521
-3.35737
-2.91914
-3.11046
-3.00711
-3.11056
-3.16803
-3.35229
-3.48253
-3.71259
-3.92021
-4.20132
-4.45586
-4.74258
-4.92689
-4.82587
-4.31999
-2.16759
-1.25059
-0.987526
-0.91489
-1.03267
-1.24494
-1.87133
-3.25334
-3.49004
-3.42513
-3.40098
-3.012
-3.28051
-2.65892
-3.53278
-2.14513
-3.7489
-0.875871
-1.97926
3.66781
4.66447
12.3452
-3.13288
-3.89277
-3.6238
-3.76691
-3.38101
-3.31417
-3.33649
-3.34952
-3.48211
-3.58347
-3.76097
-4.01773
-4.34625
-4.65384
-5.08271
-5.32978
-5.19529
-4.34872
-2.10286
-1.05721
-0.730939
-0.589888
-0.786243
-1.09301
-1.91842
-3.30136
-3.57165
-3.51073
-3.48206
-2.9447
-3.28716
-2.60911
-3.78492
-2.39139
-4.26712
-1.15666
-1.98227
5.69501
12.2608
26.7289
-5.94092
-3.1538
-3.63914
-3.11261
-3.10104
-2.92539
-3.03221
-3.07063
-3.24125
-3.37755
-3.58637
-3.8386
-4.20704
-4.73066
-5.16357
-5.5448
-5.28858
-4.15429
-1.88503
-0.726186
-0.331589
-0.186725
-0.480705
-0.881547
-1.92396
-3.31839
-3.75202
-3.58646
-3.53929
-2.86692
-3.21962
-2.42999
-3.68559
-2.28476
-4.17958
-0.685008
-0.184815
11.274
26.711
49.0382
-0.213442
-0.251447
-0.280782
-0.328706
-0.458365
-0.516927
-0.602474
-0.652165
-0.693638
-0.760454
-0.824843
-0.960263
-0.950795
-0.954744
-0.847294
-0.888928
-0.909999
-0.857063
-0.812386
-0.663053
-0.820125
-1.05248
-2.24823
-2.15574
-2.34534
-2.23516
-2.08488
-1.98837
-1.90475
-1.79669
-1.75895
-1.70631
-1.75368
-1.77164
-1.84712
-1.85341
-1.89736
-1.87608
-1.86331
-1.84613
-0.27137