/*--------------------------------*- C++ -*----------------------------------*\
| =========                 |                                                 |
| \\      /  F ield         | OpenFOAM: The Open Source CFD Toolbox           |
|  \\    /   O peration     | Version:  v1806                                 |
|   \\  /    A nd           | Web:      www.OpenFOAM.com                      |
|    \\/     M anipulation  |                                                 |
\*---------------------------------------------------------------------------*/
FoamFile
{
    version     2.0;
    format      ascii;
    class       volVectorField;
    location    "0.019";
    object      U;
}
// * * * * * * * * * * * * * * * * * * * * * * * * * * * * * * * * * * * * * //

dimensions      [0 1 -1 0 0 0 0];


internalField   nonuniform List<vector> 
64000
(
(-0.00266884 -0.00587683 5.36006e-05)
(0.01167 -0.00750692 -1.13685e-05)
(0.0272709 -0.00552371 0.00254229)
(0.0343346 -0.00552626 0.00319198)
(0.0272864 -0.00360177 0.0041023)
(0.0199801 -0.00298983 0.00493867)
(0.0181055 -0.00381879 0.00490603)
(0.0148108 -0.00532511 0.00484095)
(0.0111419 -0.00754566 0.00532897)
(0.00661278 -0.00842083 0.00493155)
(-0.00440664 -0.00991348 0.00524865)
(-0.0238868 -0.00804137 0.00594089)
(-0.0461074 -0.00826334 0.00490546)
(-0.0758957 -0.00723429 0.00430883)
(-0.109214 -0.00367227 0.00580375)
(-0.146312 0.00299275 0.00423355)
(-0.188915 0.00810803 0.00442473)
(-0.227561 0.00183764 0.0072825)
(-0.270038 -0.00808897 0.00535494)
(-0.278842 -0.0147236 -0.00352325)
(-0.313904 -0.0393822 -0.0420215)
(-0.217494 -0.0208757 -0.032598)
(-0.0907019 -0.0247257 -0.0381291)
(-0.0954431 -0.00915307 -0.0386312)
(-0.0803944 -0.002195 -0.0508226)
(-0.0752852 0.0067086 -0.0616229)
(-0.0591817 0.0165224 -0.0686594)
(-0.0357803 0.0274909 -0.06483)
(-0.00257474 0.0400376 -0.0508298)
(0.0420523 0.0538195 -0.032007)
(0.0858709 0.0411635 -0.0324242)
(0.120195 0.0353881 -0.0218161)
(0.13423 0.0232062 -0.00983149)
(0.129528 0.0102578 -0.00182347)
(0.110716 0.00229222 0.00326955)
(0.085809 -0.00409127 0.00524129)
(0.0614523 -0.00680511 0.00730317)
(0.0404093 -0.00591278 0.0078598)
(0.0217251 -0.00433797 0.00788187)
(0.00560358 -0.00328072 0.00670836)
(-0.00162485 -0.0109833 0.00119909)
(0.0141179 -0.019799 9.52748e-05)
(0.037704 -0.0169902 0.000654158)
(0.0511047 -0.0138903 0.00109915)
(0.0483048 -0.00597865 0.00133862)
(0.0396484 -0.00193328 0.000410787)
(0.034967 0.000185246 -0.00114942)
(0.0271394 0.0043542 -0.00119148)
(0.0180373 0.00961506 -0.0053865)
(0.00456343 0.0232129 -0.00243412)
(-0.0178781 0.030643 -0.00592908)
(-0.0555427 0.0415763 0.00137355)
(-0.103719 0.0529109 -0.00123244)
(-0.1605 0.0686127 -0.00435834)
(-0.223945 0.076738 -0.00851635)
(-0.299091 0.0821347 -0.0234767)
(-0.395776 0.0887684 -0.0412716)
(-0.4891 0.0949078 -0.0544596)
(-0.567382 0.100204 -0.070805)
(-0.619714 0.111707 -0.0915357)
(-0.64946 0.103137 -0.119261)
(-0.537512 0.143412 -0.127522)
(-0.405903 0.157428 -0.150093)
(-0.384232 0.197561 -0.158177)
(-0.350492 0.22179 -0.166901)
(-0.309418 0.243511 -0.175021)
(-0.252189 0.261304 -0.177965)
(-0.18291 0.27441 -0.169772)
(-0.102137 0.286008 -0.147113)
(-0.0388566 0.288929 -0.120787)
(0.0265381 0.277424 -0.0768602)
(0.096105 0.246418 -0.0505966)
(0.128372 0.19812 -0.0397516)
(0.142062 0.151142 -0.0281256)
(0.133262 0.105641 -0.0144422)
(0.109575 0.0687041 -0.00635608)
(0.08516 0.0431405 -0.00182019)
(0.0610606 0.0282466 -4.97516e-05)
(0.0366043 0.0187129 0.00155049)
(0.0114826 0.00900988 0.00352763)
(6.29833e-05 -0.0215958 0.0027607)
(0.0179865 -0.0309202 -0.00047571)
(0.0445785 -0.0249868 -0.000372111)
(0.0609539 -0.0153851 0.000454003)
(0.0566057 1.10456e-05 -0.00178211)
(0.0418206 0.0201907 -0.00224015)
(0.0340773 0.0341616 -0.00349736)
(0.022524 0.0528745 -0.00736959)
(0.0104998 0.076838 -0.00153233)
(-0.0170141 0.097768 -0.00452886)
(-0.0641154 0.115702 -0.00911453)
(-0.121402 0.139337 -0.0127297)
(-0.187855 0.162326 -0.0180773)
(-0.275392 0.183652 -0.0286708)
(-0.375902 0.204689 -0.0354156)
(-0.470428 0.219403 -0.0462543)
(-0.563581 0.237313 -0.0575757)
(-0.646824 0.26632 -0.0698423)
(-0.716515 0.297814 -0.084683)
(-0.759716 0.333618 -0.102588)
(-0.77185 0.362764 -0.121017)
(-0.640874 0.398692 -0.120517)
(-0.487872 0.430255 -0.132312)
(-0.448233 0.471329 -0.129938)
(-0.409357 0.499876 -0.127356)
(-0.364601 0.519352 -0.126225)
(-0.308646 0.528435 -0.122885)
(-0.242368 0.525022 -0.113152)
(-0.171192 0.512555 -0.094255)
(-0.10231 0.485251 -0.0711951)
(-0.0468 0.465851 -0.0482501)
(-0.00672891 0.420799 -0.0267838)
(0.0288047 0.365066 -0.0109018)
(0.0546298 0.299784 -0.00591597)
(0.0609819 0.230835 -0.00907697)
(0.0595627 0.171746 -0.00788034)
(0.0538643 0.122223 -0.00680138)
(0.0443695 0.0860209 -0.00405054)
(0.0310226 0.0575478 -0.000476942)
(0.0111151 0.0277687 0.00330151)
(-3.69224e-05 -0.0295876 0.00166294)
(0.0208469 -0.0369419 -0.00156008)
(0.0501315 -0.0245604 -0.00198276)
(0.0664295 -0.0051945 -0.000228124)
(0.0676683 0.0172295 -0.00427617)
(0.0483018 0.0542746 -0.00621517)
(0.0281072 0.0826844 -0.00750397)
(0.0103112 0.116233 -0.00224958)
(-0.0227228 0.144068 -0.00751073)
(-0.0737213 0.165885 -0.0101772)
(-0.128424 0.192271 -0.0144655)
(-0.196598 0.223489 -0.0221842)
(-0.279783 0.256571 -0.025765)
(-0.364802 0.282849 -0.0292094)
(-0.4522 0.319449 -0.0362905)
(-0.53782 0.354607 -0.0438352)
(-0.617354 0.391134 -0.0489574)
(-0.684927 0.428413 -0.0527141)
(-0.737206 0.464851 -0.0570099)
(-0.767325 0.504634 -0.0628992)
(-0.767675 0.53658 -0.0657988)
(-0.623809 0.562494 -0.0505003)
(-0.459223 0.58424 -0.0508098)
(-0.414846 0.604269 -0.0391872)
(-0.382064 0.614061 -0.0287535)
(-0.347746 0.613498 -0.023168)
(-0.307127 0.601518 -0.0197707)
(-0.259082 0.577313 -0.0153679)
(-0.20661 0.546776 -0.00569129)
(-0.156406 0.506731 0.00205425)
(-0.112916 0.461906 0.00701106)
(-0.0772417 0.415974 0.00850101)
(-0.0546236 0.369874 0.00701732)
(-0.0367261 0.31916 0.00330824)
(-0.0196381 0.265072 -0.00124278)
(-0.00706954 0.213403 -0.00476191)
(0.00415038 0.161395 -0.00558025)
(0.0135951 0.117806 -0.00641686)
(0.017725 0.0821183 -0.00197104)
(0.00898715 0.0366035 0.00347775)
(0.000989971 -0.0355159 0.000952101)
(0.0261067 -0.035684 -0.00374967)
(0.0597698 -0.0171024 -0.00102936)
(0.0737259 0.0119837 -0.00286515)
(0.0750931 0.0456047 -0.00318572)
(0.0516573 0.0863515 -0.00871994)
(0.0214954 0.121944 0.000360416)
(-0.013614 0.163946 -0.0029126)
(-0.0623974 0.197366 -0.00558042)
(-0.115377 0.234861 -0.0105865)
(-0.172551 0.275234 -0.014579)
(-0.234668 0.311241 -0.0190946)
(-0.307777 0.351467 -0.0211196)
(-0.383171 0.393389 -0.0215284)
(-0.456994 0.435383 -0.0238516)
(-0.52665 0.473371 -0.0227376)
(-0.588059 0.512329 -0.0180556)
(-0.639449 0.552054 -0.0108566)
(-0.675335 0.591682 -0.00330276)
(-0.693609 0.630324 -0.00435812)
(-0.69194 0.658526 -0.00383531)
(-0.548618 0.675971 0.0162357)
(-0.38513 0.676489 0.0180125)
(-0.345142 0.666086 0.0308986)
(-0.324554 0.648669 0.0382133)
(-0.309279 0.621961 0.0425704)
(-0.291655 0.587541 0.0450057)
(-0.264846 0.545834 0.0441923)
(-0.235149 0.501593 0.0401088)
(-0.207285 0.456011 0.0333291)
(-0.181377 0.409657 0.0240987)
(-0.159143 0.361821 0.0171764)
(-0.134217 0.317071 0.0117196)
(-0.11021 0.276446 0.00487205)
(-0.0899851 0.240338 -0.00156387)
(-0.0710556 0.203173 -0.00650162)
(-0.0497824 0.164736 -0.00937085)
(-0.0202454 0.128133 -0.00767181)
(0.00392019 0.0940595 -0.00279156)
(0.00581317 0.0386738 0.00373979)
(0.00335014 -0.039071 0.000407837)
(0.0317986 -0.0312065 -0.00414223)
(0.0676093 -0.000987309 -0.00457098)
(0.0835039 0.035632 -0.00333641)
(0.0815829 0.0804846 -0.00788606)
(0.0476154 0.118989 -0.0040338)
(0.010416 0.161497 0.0025136)
(-0.0270503 0.209463 -0.00167411)
(-0.0781116 0.258686 -0.00511576)
(-0.128766 0.308002 -0.00863773)
(-0.182494 0.355969 -0.0106128)
(-0.238756 0.397453 -0.0105011)
(-0.295169 0.435675 -0.00680397)
(-0.350652 0.472372 -0.00594957)
(-0.409637 0.509076 -0.00421113)
(-0.463942 0.546889 -0.0012573)
(-0.50745 0.589081 0.00568447)
(-0.541746 0.6289 0.0134386)
(-0.567247 0.66452 0.0168647)
(-0.585194 0.691879 0.0170782)
(-0.585421 0.710924 0.0234745)
(-0.455398 0.734706 0.0469707)
(-0.313464 0.696467 0.0473893)
(-0.287904 0.64153 0.0578749)
(-0.284028 0.594449 0.0660547)
(-0.288358 0.547554 0.0683617)
(-0.290206 0.500312 0.0661009)
(-0.284179 0.453142 0.0622319)
(-0.269806 0.4043 0.0578346)
(-0.254911 0.361347 0.0475973)
(-0.242799 0.32271 0.034168)
(-0.227311 0.287602 0.0193792)
(-0.208665 0.257315 0.0087767)
(-0.181015 0.226174 0.00321566)
(-0.148221 0.19939 -0.00359431)
(-0.118787 0.177901 -0.00890895)
(-0.0840895 0.155479 -0.0119394)
(-0.0403913 0.132403 -0.00921613)
(-0.00293953 0.0981988 -0.00464504)
(0.00526317 0.0374558 0.00369862)
(0.00373413 -0.035209 -0.00133572)
(0.0409519 -0.0119225 -0.00546978)
(0.0825435 0.0234121 -0.010154)
(0.0961742 0.06918 -0.00811542)
(0.0851733 0.114487 -0.00956677)
(0.0453812 0.156321 -0.00152931)
(0.0129336 0.209178 0.00306597)
(-0.0218295 0.261586 -0.00142714)
(-0.0680446 0.319891 -0.00286085)
(-0.112547 0.373089 -0.00447078)
(-0.159317 0.422819 -0.00423762)
(-0.205829 0.463837 -0.00221272)
(-0.253201 0.500109 0.00268474)
(-0.296287 0.530315 0.00583226)
(-0.334509 0.557147 0.00854421)
(-0.365325 0.584593 0.0154988)
(-0.39357 0.610326 0.0206653)
(-0.424437 0.640395 0.0262108)
(-0.45166 0.659566 0.0292573)
(-0.469805 0.674946 0.0286676)
(-0.459572 0.694444 0.035639)
(-0.37292 0.723078 0.0522567)
(-0.295695 0.65972 0.0508983)
(-0.278918 0.579179 0.0540252)
(-0.274547 0.508598 0.0562372)
(-0.289474 0.457336 0.0568566)
(-0.304907 0.412588 0.0547499)
(-0.313516 0.372343 0.0515633)
(-0.312161 0.33091 0.0447653)
(-0.304272 0.294275 0.0338101)
(-0.296566 0.261985 0.0212032)
(-0.285272 0.23452 0.0115779)
(-0.26788 0.215508 0.000775536)
(-0.241436 0.201317 -0.00378897)
(-0.201042 0.187034 -0.00766283)
(-0.157418 0.172924 -0.0137047)
(-0.110912 0.16103 -0.0174419)
(-0.0573925 0.143525 -0.0137484)
(-0.00959315 0.107402 -0.00633938)
(0.00591136 0.039805 0.00279663)
(0.00816839 -0.0287664 -0.000695155)
(0.0460632 0.0145457 -0.0164825)
(0.0918173 0.0560468 -0.0170562)
(0.107299 0.103266 -0.0127522)
(0.0912278 0.147161 -0.0100205)
(0.0567957 0.198203 -0.00248562)
(0.0273521 0.259454 0.00203389)
(0.000329429 0.311048 0.00232261)
(-0.0369645 0.367006 0.00124366)
(-0.0762055 0.419151 0.00184454)
(-0.116212 0.461348 0.00304857)
(-0.155476 0.495324 0.00817244)
(-0.189986 0.524989 0.0131393)
(-0.221889 0.547061 0.0170428)
(-0.251862 0.560801 0.0220486)
(-0.278302 0.56746 0.0265906)
(-0.294889 0.566845 0.0298344)
(-0.317787 0.576174 0.0251605)
(-0.346935 0.57599 0.022237)
(-0.360268 0.586505 0.0233198)
(-0.350733 0.611392 0.0325968)
(-0.316117 0.628654 0.0415118)
(-0.300569 0.577138 0.0393742)
(-0.306188 0.506127 0.0371783)
(-0.302038 0.426253 0.0339599)
(-0.310244 0.374331 0.0342257)
(-0.329529 0.338457 0.0352362)
(-0.346266 0.305362 0.0354485)
(-0.351688 0.271716 0.0322236)
(-0.348773 0.238741 0.0192486)
(-0.346495 0.208234 0.0120036)
(-0.333661 0.182992 0.00311434)
(-0.313646 0.169304 -0.00423436)
(-0.28578 0.165139 -0.00807549)
(-0.24597 0.168481 -0.0125951)
(-0.194327 0.16902 -0.0156257)
(-0.132723 0.164412 -0.0209457)
(-0.0716977 0.151668 -0.0177432)
(-0.0151028 0.116953 -0.00872555)
(0.0059233 0.0419384 0.00217541)
(0.0109123 -0.0135947 -0.00235235)
(0.0561066 0.0446332 -0.0235851)
(0.104031 0.0948751 -0.0242149)
(0.11786 0.138891 -0.0185888)
(0.106795 0.185176 -0.0137184)
(0.0833423 0.240858 -0.0066986)
(0.0567984 0.301184 0.00330323)
(0.0297568 0.354917 0.00664417)
(0.0040855 0.399815 0.00935758)
(-0.0294106 0.438713 0.0105264)
(-0.0658467 0.473127 0.0135003)
(-0.0943253 0.499772 0.0202583)
(-0.122827 0.517718 0.02307)
(-0.151852 0.523347 0.0257614)
(-0.178657 0.519528 0.0272719)
(-0.202799 0.506822 0.0272572)
(-0.215225 0.495244 0.0246428)
(-0.240202 0.481467 0.0126457)
(-0.2679 0.472536 0.0121945)
(-0.269785 0.49124 0.0193486)
(-0.267871 0.516951 0.0271684)
(-0.277702 0.525902 0.0299608)
(-0.311989 0.498653 0.0267084)
(-0.3487 0.447962 0.0221485)
(-0.34899 0.377088 0.0169534)
(-0.340686 0.316604 0.0159043)
(-0.354578 0.285634 0.0194106)
(-0.375601 0.257677 0.0223307)
(-0.387529 0.229226 0.0215499)
(-0.38993 0.194941 0.0122893)
(-0.388982 0.165931 0.00100876)
(-0.37639 0.146744 -0.00360095)
(-0.352505 0.132139 -0.00988295)
(-0.318935 0.132693 -0.0153486)
(-0.272814 0.139676 -0.0156369)
(-0.220345 0.157028 -0.0186692)
(-0.154608 0.162476 -0.0214295)
(-0.0837136 0.159061 -0.0217042)
(-0.0205573 0.127011 -0.0114278)
(0.00519292 0.046282 0.00156416)
(0.00926412 0.00723109 -0.00808915)
(0.0567118 0.0842082 -0.0310413)
(0.11133 0.136829 -0.0306391)
(0.131441 0.181113 -0.0230604)
(0.130285 0.227801 -0.0178733)
(0.115053 0.280349 -0.00817626)
(0.0948693 0.333708 -0.00213636)
(0.0699034 0.382124 0.00850299)
(0.0402452 0.419157 0.0189296)
(0.0167945 0.445653 0.022357)
(-0.00719196 0.467374 0.0260667)
(-0.0344979 0.478932 0.0304489)
(-0.0622006 0.485165 0.0307962)
(-0.091335 0.476921 0.0298769)
(-0.121053 0.45864 0.0266225)
(-0.144622 0.434529 0.021686)
(-0.160546 0.416383 0.0115974)
(-0.186584 0.388566 0.000793523)
(-0.195826 0.400383 0.00895478)
(-0.192187 0.424334 0.0158674)
(-0.212773 0.440098 0.0205731)
(-0.252649 0.445854 0.0218253)
(-0.317193 0.43678 0.0178484)
(-0.38337 0.407498 0.0135002)
(-0.401764 0.361371 0.010192)
(-0.379042 0.288867 0.00772185)
(-0.372414 0.247632 0.00977356)
(-0.39262 0.220876 0.0128778)
(-0.411692 0.193784 0.0133736)
(-0.419626 0.164632 0.00806895)
(-0.416451 0.133004 0.0137066)
(-0.407337 0.109709 0.0160978)
(-0.387508 0.0951482 0.014184)
(-0.354814 0.0939326 0.00735051)
(-0.304974 0.106225 -0.012513)
(-0.243175 0.127566 -0.0188886)
(-0.169293 0.155337 -0.021016)
(-0.0921198 0.157261 -0.0209071)
(-0.0254567 0.13405 -0.013477)
(0.00417569 0.0498252 0.00168783)
(0.00754024 0.0225139 -0.0111206)
(0.0580644 0.123403 -0.0365764)
(0.120973 0.18306 -0.0365288)
(0.149649 0.226711 -0.0252305)
(0.156952 0.270401 -0.0189103)
(0.150026 0.314283 -0.0102432)
(0.13362 0.35879 -0.00139239)
(0.109565 0.395287 0.00674703)
(0.0850516 0.423637 0.013139)
(0.0611451 0.445764 0.0296604)
(0.0358453 0.454068 0.0379409)
(0.0180872 0.453704 0.0436578)
(-0.00686043 0.440995 0.0371935)
(-0.0428738 0.42181 0.0307805)
(-0.0757475 0.396638 0.0220505)
(-0.0990368 0.370739 0.0112344)
(-0.12274 0.349956 -0.00275012)
(-0.131865 0.342735 0.000362423)
(-0.126449 0.364385 0.00641106)
(-0.14395 0.374509 0.0120294)
(-0.178655 0.379223 0.018005)
(-0.228931 0.385125 0.0189566)
(-0.309148 0.384029 0.014133)
(-0.388705 0.367565 0.0108917)
(-0.434494 0.345966 0.00713519)
(-0.421482 0.288858 0.00655513)
(-0.389707 0.21734 0.00564773)
(-0.39847 0.185481 0.00671416)
(-0.418088 0.16001 0.0050089)
(-0.435276 0.130304 0.0236051)
(-0.444928 0.097006 0.0306544)
(-0.438041 0.0668389 0.0278622)
(-0.418941 0.0504405 0.0162345)
(-0.384581 0.0501061 0.00978286)
(-0.332538 0.0642526 0.00203758)
(-0.26111 0.0913492 -0.0163833)
(-0.182711 0.1292 -0.0221096)
(-0.102511 0.152723 -0.0206526)
(-0.0265919 0.13696 -0.0148463)
(0.00281331 0.0542431 0.00106131)
(0.00565157 0.0406492 -0.0135266)
(0.0591477 0.166082 -0.0420589)
(0.130641 0.231365 -0.0415907)
(0.168504 0.271621 -0.0265002)
(0.183843 0.308369 -0.0154423)
(0.18216 0.342679 -0.00833797)
(0.16998 0.375281 -0.00371312)
(0.148035 0.399604 0.00798394)
(0.126069 0.419878 0.0148125)
(0.105927 0.433449 0.0245505)
(0.0831864 0.437226 0.0322851)
(0.0569644 0.429816 0.0446519)
(0.0284501 0.405111 0.0418527)
(-0.002063 0.374768 0.0307985)
(-0.036656 0.346497 0.0147774)
(-0.0626813 0.328808 0.000769291)
(-0.0735173 0.318032 -0.00542265)
(-0.0747931 0.329962 -0.000349967)
(-0.0847453 0.333548 0.00490085)
(-0.113395 0.332149 0.0119778)
(-0.149392 0.331572 0.0191754)
(-0.201041 0.334835 0.0198438)
(-0.288911 0.334132 0.014029)
(-0.373023 0.322928 0.0122563)
(-0.427901 0.310347 0.00765657)
(-0.450985 0.286142 0.00541576)
(-0.416107 0.21253 0.00634014)
(-0.390607 0.152213 0.00518892)
(-0.412122 0.12395 0.015918)
(-0.438606 0.0889598 0.0263565)
(-0.454592 0.0573795 0.0361262)
(-0.45555 0.0320398 0.0534775)
(-0.440155 0.00937036 0.0524215)
(-0.414331 -0.000616752 0.0366429)
(-0.367519 0.0136696 0.0242606)
(-0.29157 0.0479646 0.00458867)
(-0.194309 0.090452 -0.021845)
(-0.103556 0.135973 -0.0213271)
(-0.0300141 0.134347 -0.0151907)
(0.00352964 0.0557484 -3.43028e-05)
(0.00434134 0.0568091 -0.0162901)
(0.0601432 0.205837 -0.0480376)
(0.138559 0.276827 -0.0473337)
(0.185509 0.313026 -0.0279817)
(0.208826 0.339104 -0.0125378)
(0.212022 0.361788 -0.00270483)
(0.200526 0.38423 0.001856)
(0.182052 0.399379 0.00500299)
(0.167075 0.413332 0.00984845)
(0.148058 0.418622 0.0214471)
(0.122816 0.413089 0.0258144)
(0.0950751 0.397041 0.0297095)
(0.0601614 0.373404 0.0335176)
(0.0252432 0.343485 0.024197)
(0.00119292 0.324538 0.00814835)
(-0.0157812 0.317754 -0.00400729)
(-0.0257186 0.31677 -0.0030819)
(-0.0365921 0.312924 0.000836934)
(-0.0575692 0.304684 0.00671408)
(-0.0873242 0.29693 0.0139867)
(-0.11987 0.290137 0.0218271)
(-0.168098 0.287097 0.0222576)
(-0.257397 0.283462 0.0154101)
(-0.342075 0.274954 0.0139434)
(-0.393984 0.265932 0.00910897)
(-0.435829 0.256974 0.00576329)
(-0.435785 0.223998 0.00704104)
(-0.39749 0.137939 0.00837542)
(-0.394992 0.0919955 0.0159023)
(-0.425032 0.0509742 0.0302848)
(-0.443345 0.0185138 0.0485561)
(-0.457386 -0.0192288 0.0384733)
(-0.463858 -0.0546241 0.027401)
(-0.44146 -0.0764827 0.0175066)
(-0.393898 -0.0664872 0.00527325)
(-0.323325 -0.0212249 0.00734015)
(-0.219609 0.045984 -0.000857774)
(-0.111969 0.104321 -0.0286997)
(-0.0297668 0.127545 -0.0139899)
(0.00298878 0.0558709 -0.00143749)
(0.00314612 0.0692244 -0.0178095)
(0.060854 0.238364 -0.0518292)
(0.145057 0.314252 -0.0522456)
(0.197868 0.346047 -0.0318034)
(0.227066 0.362361 -0.0119571)
(0.236726 0.373397 0.00198169)
(0.230669 0.383691 0.00777671)
(0.21605 0.395825 0.012171)
(0.202302 0.403891 0.0134626)
(0.182047 0.401359 0.0147194)
(0.156355 0.388627 0.0141462)
(0.126976 0.369098 0.0197092)
(0.0932167 0.348868 0.0202075)
(0.0675173 0.334898 0.0146495)
(0.0486603 0.331806 0.000574824)
(0.0279937 0.318768 -0.0036867)
(0.00563558 0.313304 -0.0018003)
(-0.014687 0.296784 0.00435075)
(-0.0350899 0.280003 0.00944617)
(-0.0631704 0.264898 0.016271)
(-0.0907449 0.250673 0.0240055)
(-0.132827 0.239317 0.0245808)
(-0.218365 0.231778 0.0171319)
(-0.299988 0.22508 0.0153909)
(-0.347579 0.217093 0.0111562)
(-0.387028 0.211231 0.0093321)
(-0.42303 0.198181 0.0123381)
(-0.405821 0.145494 0.0143363)
(-0.381553 0.0587971 0.0225276)
(-0.39991 0.0156701 0.0316498)
(-0.427249 -0.0306991 0.0273877)
(-0.459253 -0.0834096 0.0235787)
(-0.471868 -0.128576 0.0157573)
(-0.459516 -0.156124 0.00453962)
(-0.414044 -0.160311 -0.00556969)
(-0.338738 -0.114831 -0.0119022)
(-0.238712 -0.0280845 -0.00443633)
(-0.124267 0.0630921 -0.0159239)
(-0.0309972 0.113393 -0.0176021)
(0.00246858 0.0566164 -0.00290017)
(0.00137916 0.0739692 -0.0156486)
(0.0589092 0.260717 -0.050698)
(0.14718 0.34102 -0.0522256)
(0.207113 0.368619 -0.0317304)
(0.242585 0.37654 -0.0107481)
(0.255632 0.37766 0.00423011)
(0.257102 0.379515 0.0106464)
(0.249436 0.385535 0.0133477)
(0.235317 0.388395 0.0131569)
(0.212761 0.384412 0.0135256)
(0.186646 0.374781 0.0129481)
(0.16329 0.363976 0.0124493)
(0.139108 0.356149 0.0131444)
(0.118713 0.349646 0.00385268)
(0.0869117 0.338343 -0.00514925)
(0.0556851 0.3161 -0.00261039)
(0.030954 0.299852 -0.00150356)
(0.00210009 0.28298 0.00498)
(-0.0184485 0.257024 0.0113316)
(-0.0420333 0.234199 0.0174496)
(-0.0647318 0.212202 0.0245867)
(-0.0991775 0.191303 0.0256565)
(-0.176393 0.180016 0.0185402)
(-0.25422 0.176728 0.0163024)
(-0.297674 0.169251 0.0121618)
(-0.336241 0.163174 0.0116811)
(-0.374379 0.152349 0.0042088)
(-0.401776 0.1365 0.00391397)
(-0.382532 0.0603307 0.00991707)
(-0.370345 -0.0140845 0.0117701)
(-0.404578 -0.0768237 0.0155924)
(-0.437364 -0.133402 0.0139419)
(-0.459299 -0.185449 0.00705502)
(-0.460639 -0.226836 -0.00452998)
(-0.424687 -0.243344 -0.0154525)
(-0.353804 -0.214685 -0.0272014)
(-0.254667 -0.127487 -0.0258329)
(-0.135106 0.00297419 -0.000836954)
(-0.0341513 0.0826099 -0.0246882)
(0.00234868 0.0558406 -0.00491683)
(0.000557127 0.0871016 -0.0120033)
(0.056518 0.282296 -0.0486864)
(0.145744 0.365775 -0.0513043)
(0.210719 0.389462 -0.0315867)
(0.252393 0.388383 -0.00934038)
(0.273347 0.381587 0.00480234)
(0.282304 0.37521 0.00901606)
(0.278689 0.375394 0.010307)
(0.267856 0.379744 0.00930845)
(0.249956 0.384051 0.00901459)
(0.231211 0.386111 0.00932663)
(0.213231 0.386282 0.00932441)
(0.186848 0.378207 0.0120073)
(0.15384 0.363725 0.00461853)
(0.11066 0.337063 -0.0069059)
(0.0750519 0.313243 -0.00479433)
(0.0504137 0.286643 -0.00240057)
(0.0177494 0.265705 0.00283172)
(-0.00652867 0.237873 0.0115081)
(-0.0257989 0.206814 0.0172428)
(-0.0458975 0.17806 0.0235326)
(-0.0716612 0.149323 0.0258913)
(-0.134033 0.13314 0.0204161)
(-0.206089 0.133467 0.0169481)
(-0.249777 0.128268 0.0122542)
(-0.284383 0.120372 0.00682866)
(-0.320152 0.110462 -0.00129572)
(-0.357003 0.0948562 -0.00032586)
(-0.379166 0.0661844 -2.26942e-05)
(-0.372898 -0.0181239 -0.000898751)
(-0.377534 -0.0931864 0.00389474)
(-0.406218 -0.164934 0.00585505)
(-0.43311 -0.229517 0.0022507)
(-0.445595 -0.285438 -0.00720761)
(-0.423303 -0.319407 -0.0201211)
(-0.361703 -0.309147 -0.0352307)
(-0.260919 -0.234316 -0.0450977)
(-0.147956 -0.084386 -0.0297936)
(-0.0391357 0.0439662 -0.0188356)
(0.00903167 0.0519173 -0.00820909)
(-0.00643246 0.0946092 -0.0190326)
(0.0442648 0.298484 -0.0507173)
(0.137231 0.388524 -0.0539634)
(0.208088 0.412019 -0.0350186)
(0.258485 0.406758 -0.0112865)
(0.285862 0.393876 -0.000544542)
(0.303374 0.379099 0.0053678)
(0.313553 0.386102 0.0058695)
(0.313408 0.402324 0.0047622)
(0.300864 0.417462 0.00540221)
(0.282393 0.42657 0.00709424)
(0.256847 0.419172 0.00708923)
(0.219868 0.397178 0.00781291)
(0.176749 0.367211 0.00703873)
(0.128056 0.335114 -0.00264461)
(0.0892163 0.311316 -0.00648863)
(0.0626455 0.278238 -0.00409842)
(0.0321169 0.250286 0.000293597)
(0.00414173 0.223783 0.00829995)
(-0.0165237 0.188155 0.0155518)
(-0.0333118 0.15625 0.0212058)
(-0.0519556 0.1242 0.0245491)
(-0.09684 0.101972 0.0218389)
(-0.159744 0.100434 0.0180679)
(-0.206061 0.0952713 0.0142469)
(-0.242026 0.086919 0.00627845)
(-0.277826 0.073944 0.00173561)
(-0.310783 0.0607663 0.004807)
(-0.345018 0.0412782 0.00364755)
(-0.361405 -0.00443424 -0.00158514)
(-0.367944 -0.0988039 -0.00852754)
(-0.383537 -0.167994 -0.00150233)
(-0.401855 -0.242869 -0.00142082)
(-0.418473 -0.314148 -0.00766604)
(-0.407146 -0.36872 -0.0197683)
(-0.359807 -0.38074 -0.0386379)
(-0.268466 -0.326999 -0.054418)
(-0.15421 -0.183401 -0.0463559)
(-0.0387753 -0.00452919 -0.00826279)
(0.0100393 0.0469972 -0.0109492)
(-0.0079776 0.166636 -0.020195)
(0.0392753 0.37481 -0.0455727)
(0.130439 0.470042 -0.0505071)
(0.204731 0.49305 -0.0338066)
(0.261981 0.483455 -0.0118396)
(0.296488 0.462233 -0.00278673)
(0.334373 0.445402 0.00485101)
(0.366574 0.463097 0.00565981)
(0.370905 0.478616 0.00447298)
(0.355509 0.480753 0.00337127)
(0.323986 0.470203 0.00270639)
(0.281692 0.443258 0.00282528)
(0.234257 0.407402 0.00357157)
(0.187524 0.367685 0.0045616)
(0.144244 0.330953 0.00328493)
(0.101958 0.303589 -0.00276119)
(0.0702069 0.273637 -0.00623119)
(0.0442355 0.239253 -0.0021262)
(0.0140777 0.211121 0.00320276)
(-0.0086846 0.179189 0.0120293)
(-0.0238932 0.146589 0.0172494)
(-0.0389745 0.114693 0.021215)
(-0.0694299 0.0877111 0.0206537)
(-0.121984 0.0790946 0.0176685)
(-0.168382 0.0711383 0.0147538)
(-0.204515 0.0582916 0.00288413)
(-0.235824 0.0492504 0.0050916)
(-0.266013 0.0391877 0.00633107)
(-0.303445 0.0210274 0.00642101)
(-0.351562 -0.00639551 0.00351627)
(-0.356618 -0.0669113 0.00254688)
(-0.348235 -0.171942 -0.0142831)
(-0.373188 -0.267891 -0.0169882)
(-0.391228 -0.351458 -0.0213963)
(-0.385546 -0.427386 -0.0326013)
(-0.350612 -0.469611 -0.0547007)
(-0.274031 -0.440127 -0.0755899)
(-0.168174 -0.292112 -0.0712694)
(-0.0426767 -0.0821494 -0.034803)
(0.0136198 0.0346611 -0.00979114)
(-0.0166543 0.29323 -0.0252823)
(0.0226965 0.513362 -0.0445212)
(0.114262 0.616448 -0.0508048)
(0.19172 0.64666 -0.0360183)
(0.256111 0.638622 -0.0178069)
(0.30278 0.61458 -0.00846609)
(0.368809 0.587256 0.000879157)
(0.415072 0.573064 0.000567887)
(0.404376 0.555768 -0.000819092)
(0.372896 0.526585 -0.000644892)
(0.333154 0.488317 4.94065e-05)
(0.2883 0.446443 0.000698249)
(0.240385 0.403026 0.00133033)
(0.193785 0.361893 0.00216913)
(0.152502 0.323621 0.00334599)
(0.115999 0.288833 0.00383071)
(0.0801575 0.260073 -0.0018073)
(0.051122 0.22878 -0.0040429)
(0.0259429 0.196425 0.000510742)
(0.000785296 0.169829 0.00684537)
(-0.0165196 0.137616 0.0130034)
(-0.0300583 0.108753 0.0169275)
(-0.0514597 0.0802893 0.0177822)
(-0.0938897 0.0642413 0.0153356)
(-0.141268 0.052608 0.0115542)
(-0.172908 0.0377518 0.00824816)
(-0.197642 0.0289128 0.00836644)
(-0.227608 0.0153119 0.00926433)
(-0.262025 0.00044675 0.0106718)
(-0.298976 -0.0185175 0.00934106)
(-0.356235 -0.0417727 0.00293559)
(-0.380178 -0.127566 0.00439688)
(-0.360067 -0.253366 -0.00759338)
(-0.363445 -0.382729 -0.020414)
(-0.365382 -0.492073 -0.0326371)
(-0.338749 -0.571157 -0.0529055)
(-0.255494 -0.571417 -0.0765011)
(-0.160806 -0.440877 -0.0853237)
(-0.0461737 -0.173092 -0.0569147)
(0.0189748 0.0194521 -0.0128033)
(-0.00949251 0.312036 -0.0126291)
(0.0276102 0.549818 -0.0427394)
(0.11078 0.667217 -0.0518149)
(0.190277 0.713333 -0.0424323)
(0.257595 0.712318 -0.0281499)
(0.303115 0.689664 -0.0199892)
(0.361316 0.656654 -0.00885742)
(0.405889 0.606134 -0.00426298)
(0.398629 0.564024 -0.00228437)
(0.367509 0.521152 -0.000104411)
(0.329532 0.476648 0.00121897)
(0.287322 0.431128 0.00247595)
(0.242825 0.386072 0.00328487)
(0.199898 0.344611 0.0031421)
(0.159396 0.306391 0.00398241)
(0.122973 0.271137 0.00500061)
(0.0924246 0.237256 0.00727498)
(0.0616861 0.208504 0.00119234)
(0.0351559 0.178665 0.000367219)
(0.0110297 0.15224 0.00427464)
(-0.00818692 0.123939 0.0105029)
(-0.0209128 0.0970695 0.0134993)
(-0.0389955 0.0702921 0.0148523)
(-0.073837 0.0498007 0.0131425)
(-0.116496 0.0350886 0.00857565)
(-0.145173 0.0248421 0.00993565)
(-0.167959 0.0117755 0.0106961)
(-0.193215 -0.00109906 0.0128957)
(-0.220006 -0.0131708 0.0143667)
(-0.254522 -0.0294491 0.0128928)
(-0.299299 -0.0550097 0.00976542)
(-0.360704 -0.0813676 0.00316491)
(-0.399865 -0.164484 0.00158719)
(-0.391045 -0.292125 -0.00362366)
(-0.367408 -0.425154 -0.0141416)
(-0.331781 -0.549529 -0.0292796)
(-0.251188 -0.615091 -0.0572289)
(-0.135697 -0.550744 -0.0708993)
(-0.0179315 -0.287632 -0.0698976)
(0.0239881 0.0048377 -0.00513771)
(0.00292689 0.2926 0.00272847)
(0.0411532 0.515697 -0.0303154)
(0.11333 0.637714 -0.03953)
(0.19056 0.689941 -0.0341908)
(0.25616 0.690547 -0.0199238)
(0.305598 0.666143 -0.0126908)
(0.356888 0.634342 -0.00280461)
(0.395973 0.583534 0.000118025)
(0.394245 0.535636 0.00101139)
(0.363884 0.493255 0.00261453)
(0.326387 0.449187 0.00418324)
(0.285659 0.404255 0.00582795)
(0.244323 0.359814 0.00750811)
(0.204282 0.318849 0.00829697)
(0.166926 0.281094 0.00923355)
(0.131852 0.247874 0.00951983)
(0.0999991 0.21536 0.0101228)
(0.072933 0.184119 0.00997847)
(0.0479145 0.157341 0.0084784)
(0.0218312 0.13084 0.00483978)
(0.0016872 0.107166 0.00964587)
(-0.0121415 0.0797556 0.0117682)
(-0.0279172 0.0560332 0.0129004)
(-0.057725 0.03266 0.0112973)
(-0.0927601 0.0190111 0.0104047)
(-0.118843 0.00876396 0.0108112)
(-0.139857 -0.00153381 0.0126562)
(-0.159114 -0.0115407 0.0142392)
(-0.182509 -0.0235864 0.015366)
(-0.211998 -0.0408996 0.015494)
(-0.251371 -0.0641989 0.0130052)
(-0.299157 -0.0976809 0.0101686)
(-0.343642 -0.133783 0.00438651)
(-0.370812 -0.200876 -0.002144)
(-0.378983 -0.30821 -0.0085802)
(-0.369334 -0.437304 -0.0169747)
(-0.299732 -0.54024 -0.0309769)
(-0.181885 -0.533791 -0.0529793)
(-0.0230725 -0.317423 -0.0558476)
(0.0449094 0.0383005 -0.0240974)
(0.0052522 0.287638 0.00385698)
(0.042547 0.489885 -0.0238918)
(0.110723 0.612352 -0.0319457)
(0.185638 0.667699 -0.0285444)
(0.250708 0.673262 -0.0126625)
(0.302831 0.648932 -0.00648282)
(0.350705 0.612819 0.00176103)
(0.38243 0.563899 0.00398321)
(0.383686 0.510129 0.00360816)
(0.358312 0.463099 0.0043229)
(0.321487 0.417647 0.00574561)
(0.283018 0.372246 0.00790982)
(0.245359 0.328005 0.0110083)
(0.209778 0.287447 0.0142214)
(0.175828 0.250803 0.0167958)
(0.142464 0.215047 0.0170675)
(0.111381 0.177323 0.0158474)
(0.0837186 0.146335 0.0139313)
(0.059046 0.123926 0.0125459)
(0.0350055 0.10464 0.0120149)
(0.0121487 0.0869816 0.00883079)
(-0.00260089 0.0629125 0.0121273)
(-0.0175711 0.0398927 0.0117596)
(-0.0420345 0.0180624 0.0101358)
(-0.0699183 0.00477693 0.0104722)
(-0.0920028 -0.00415329 0.0124966)
(-0.109162 -0.011882 0.0130522)
(-0.127722 -0.0212807 0.014033)
(-0.148937 -0.0335586 0.0154371)
(-0.175522 -0.0502489 0.0168922)
(-0.209101 -0.0740659 0.0176647)
(-0.247643 -0.106528 0.0175671)
(-0.279299 -0.148098 0.0159322)
(-0.304549 -0.206685 0.0124565)
(-0.332213 -0.295552 0.00791645)
(-0.350709 -0.411176 -0.000626648)
(-0.322592 -0.51005 -0.0164995)
(-0.227952 -0.531506 -0.0385382)
(-0.0657931 -0.330564 -0.0496552)
(0.0269304 0.0584556 -0.0130061)
(0.00969214 0.260998 0.00425302)
(0.0473804 0.444774 -0.0181688)
(0.109511 0.570738 -0.0260684)
(0.1826 0.63091 -0.0245943)
(0.246246 0.643282 -0.0120505)
(0.297541 0.622152 -0.00405137)
(0.343537 0.584499 0.00317422)
(0.369976 0.536594 0.00594259)
(0.369839 0.483265 0.00537503)
(0.348025 0.432647 0.00495443)
(0.314526 0.384725 0.00591827)
(0.278415 0.338222 0.00822112)
(0.244902 0.292848 0.0123965)
(0.213939 0.249758 0.0175982)
(0.181203 0.207771 0.0211834)
(0.143626 0.163252 0.0217924)
(0.11435 0.121224 0.021847)
(0.0998256 0.0925244 0.0204098)
(0.0833153 0.07916 0.0173321)
(0.0587346 0.068187 0.0149327)
(0.0309242 0.0583531 0.0137507)
(0.00963744 0.0465048 0.010899)
(-0.00495968 0.0258572 0.013141)
(-0.0250136 0.0058493 0.0107167)
(-0.0459727 -0.00536513 0.0113451)
(-0.0639133 -0.0136824 0.0117547)
(-0.0809903 -0.0233107 0.0124416)