/*--------------------------------*- C++ -*----------------------------------*\
| =========                 |                                                 |
| \\      /  F ield         | OpenFOAM: The Open Source CFD Toolbox           |
|  \\    /   O peration     | Version:  v1806                                 |
|   \\  /    A nd           | Web:      www.OpenFOAM.com                      |
|    \\/     M anipulation  |                                                 |
\*---------------------------------------------------------------------------*/
FoamFile
{
    version     2.0;
    format      ascii;
    class       vectorField;
    location    "0.1275";
    object      currentcloudofpoints;
}
// * * * * * * * * * * * * * * * * * * * * * * * * * * * * * * * * * * * * * //


2409
(
(1.31846 1.54111 1.43625)
(0.697269 1.30119 1.03459)
(1.27243 1.3322 1.10465)
(1.55284 1.63282 0.786186)
(1.32818 1.78515 1.2063)
(1.20113 1.38764 0.823592)
(1.52204 1.26358 1.3172)
(0.547697 1.1201 0.609537)
(1.52837 0.987363 0.996176)
(0.832327 0.925296 0.707276)
(1.14491 1.18166 1.50925)
(1.40384 1.10455 1.45867)
(1.65888 1.2564 1.34979)
(1.42668 1.58836 1.25029)
(1.42071 1.13612 1.27719)
(1.34941 1.16891 1.44512)
(1.43196 1.09199 1.43848)
(1.32265 1.54389 0.881561)
(1.67755 1.29384 1.35394)
(1.50745 1.17222 1.45153)
(0.546743 1.09354 1.17796)
(0.615625 1.48831 1.1533)
(1.47369 1.33572 1.5601)
(1.45445 1.63405 1.0892)
(0.522232 1.29062 1.0656)
(0.690462 1.07971 1.51797)
(0.424095 1.10756 1.25984)
(0.849337 1.41396 1.65507)
(1.04151 1.17612 1.31172)
(1.24903 1.46463 0.663013)
(1.33237 1.12746 0.783612)
(1.47471 1.35724 0.600565)
(1.29542 1.14352 0.748492)
(0.896758 1.40415 0.827447)
(1.26076 1.12653 0.590815)
(1.52915 1.1584 0.805487)
(1.46119 1.37053 0.600811)
(1.47836 1.25527 0.571628)
(0.934183 1.22923 0.371899)
(0.796796 1.08071 0.724385)
(0.905296 1.25202 0.893002)
(0.958063 0.86112 0.891057)
(1.42583 1.39852 0.812136)
(1.41382 1.24158 0.597369)
(0.881545 1.10771 0.840224)
(0.714835 1.30485 0.494191)
(0.660173 1.30071 0.473934)
(1.47467 1.65833 1.10121)
(1.31128 1.29612 1.60297)
(1.23749 1.42013 1.5866)
(0.961964 1.14889 1.00109)
(1.4932 1.61669 1.11941)
(1.46847 1.54288 1.45748)
(1.21509 1.32323 1.50196)
(1.64051 1.2441 1.11208)
(1.13537 1.31893 1.4892)
(1.08071 1.05161 1.0326)
(1.35337 1.62666 0.53388)
(1.25314 1.71098 0.924107)
(1.13075 1.57762 0.488747)
(1.38383 1.5699 0.948147)
(1.23898 1.20855 0.824694)
(1.15031 1.39878 0.883217)
(0.843152 1.28837 0.802958)
(1.50528 1.301 0.650475)
(1.045 0.812741 1.16139)
(1.38927 1.60239 1.02444)
(1.4489 1.48939 1.3005)
(1.31773 1.44056 0.827555)
(1.36355 1.5309 1.21088)
(0.552714 1.12791 1.12224)
(1.4955 1.63396 1.06981)
(1.07217 1.11467 1.19755)
(1.17591 1.67866 0.853533)
(1.21576 1.3859 0.869667)
(1.77112 1.24832 1.19526)
(1.70664 1.09468 1.24981)
(1.32388 1.2001 1.32643)
(1.05493 1.17345 1.04438)
(1.72563 1.44626 1.3176)
(1.69718 1.06784 1.22306)
(1.82223 1.25031 1.16804)
(1.20663 1.34651 1.12285)
(0.593096 1.182 1.34292)
(0.418 1.39643 1.28541)
(0.635461 1.17313 1.53445)
(1.1743 1.41654 1.63342)
(0.997519 1.09718 1.61979)
(0.945632 1.02165 1.53774)
(1.49331 1.1277 1.52262)
(0.709281 1.18183 1.44525)
(0.395696 1.27955 1.3743)
(0.4773 1.50883 1.33342)
(0.925906 1.49464 1.43511)
(0.969073 1.05175 1.53884)
(1.00876 1.30905 1.36197)
(1.14416 1.68007 1.41355)
(1.17585 1.25871 1.52028)
(0.905726 1.28431 1.29254)
(1.291 1.1098 1.5907)
(1.28139 1.14091 1.51185)
(1.39696 1.11028 1.3162)
(1.39394 1.12695 1.37273)
(1.41361 1.09554 1.08708)
(1.5169 1.00849 1.09248)
(1.37588 1.09556 1.59304)
(1.17816 1.09532 1.42581)
(1.29407 1.11545 1.56294)
(1.33778 1.10954 1.34671)
(1.39281 1.11362 1.34453)
(1.33227 1.17504 1.08927)
(1.47064 1.05264 1.10244)
(1.52951 0.98221 1.04976)
(0.907155 0.827546 0.724226)
(0.571403 1.47366 1.0425)
(0.52769 1.34294 0.467765)
(0.678041 1.64475 0.822393)
(0.659671 1.384 0.67308)
(1.12103 1.06028 0.398155)
(1.02673 1.04422 0.371372)
(1.05849 1.03403 0.944372)
(1.11653 1.24693 0.340408)
(0.890194 1.61552 0.82985)
(1.15914 1.07093 1.20246)
(1.05141 0.910508 0.509598)
(0.996861 1.08354 0.824964)
(1.15348 1.05481 0.443045)
(1.02197 1.20947 0.376687)
(1.50497 1.01247 0.902556)
(1.40023 1.08279 0.880382)
(1.12455 1.19598 0.938896)
(1.28659 1.47371 0.691074)
(1.09617 1.16815 0.757612)
(1.22335 1.1457 0.748566)
(1.03551 1.09265 0.5783)
(1.5172 0.994967 0.946361)
(1.45853 1.05308 0.887972)
(1.28846 1.13385 0.863614)
(0.819039 1.3621 0.742801)
(1.02849 1.23703 0.745265)
(1.10556 1.17226 0.74622)
(1.17148 1.13511 0.705426)
(1.21881 1.14094 0.398556)
(1.48727 1.62224 1.33036)
(1.26465 1.62487 1.42184)
(1.26191 1.35599 1.19424)
(1.16779 1.49829 1.08115)
(0.676495 1.29164 1.35779)
(0.799064 0.860928 1.11105)
(1.43963 1.1675 1.18)
(1.37643 1.7833 1.17438)
(1.18707 1.45038 0.828538)
(1.37753 1.29435 0.514684)
(1.31716 1.32208 1.27148)
(1.29772 1.64808 1.10789)
(1.12012 1.35856 1.65315)
(0.951939 1.05878 1.42168)
(1.54161 1.15496 1.23577)
(1.42684 1.71926 0.591203)
(1.36234 1.68042 0.64056)
(1.50966 1.7058 0.737889)
(1.45251 1.43122 0.90091)
(1.20263 1.61614 0.58045)
(1.1325 1.01064 0.666992)
(0.816843 1.46168 0.400563)
(1.20889 1.56673 1.0267)
(1.30787 1.72061 0.719954)
(1.35583 1.66719 0.657613)
(1.45604 1.71769 0.753801)
(1.18552 1.62893 0.637109)
(1.08582 1.53 0.410714)
(1.22409 1.13371 0.403176)
(1.23172 1.15587 0.402223)
(0.841426 0.953367 0.689178)
(1.2956 1.4082 0.709197)
(1.11275 1.59985 1.43138)
(1.37595 1.66681 0.801583)
(1.47301 1.18971 1.40736)
(0.975842 1.42023 1.11049)
(1.13752 1.14968 1.22453)
(1.05261 1.6991 0.8345)
(0.862532 1.5897 0.825515)
(1.22234 1.61583 0.768666)
(0.805641 1.39242 0.46973)
(1.67701 1.48198 1.33621)
(1.51679 1.13321 1.33819)
(0.998807 1.15643 0.98735)
(1.08733 1.13837 1.19269)
(1.15284 1.39179 0.782381)
(1.35402 1.33429 1.21658)
(1.42096 1.39882 0.949329)
(1.63746 1.25253 1.02699)
(1.67577 1.2424 1.19695)
(1.61743 1.23184 1.15516)
(1.5122 1.13924 1.03108)
(1.53149 1.26326 1.39947)
(1.12588 1.36424 1.52391)
(1.71779 1.38127 1.29013)
(1.41793 1.40858 0.946861)
(1.67512 1.0986 1.16193)
(1.6575 1.25082 1.17267)
(1.51763 1.18454 1.06495)
(1.52475 1.05222 1.00304)
(1.12999 1.54466 0.512245)
(1.05174 1.16702 0.641643)
(1.3507 1.15294 0.751215)
(1.17648 1.09579 1.36754)
(1.39115 1.70749 1.23332)
(1.06782 1.13178 1.4451)
(0.752017 1.18636 0.821204)
(0.673214 1.18407 0.436798)
(0.542485 1.55179 0.825494)
(1.12648 1.29379 0.830243)
(1.21055 1.38381 0.886084)
(1.38283 1.15277 0.985793)
(1.57077 1.51288 1.06784)
(1.52606 1.53548 1.11843)
(1.54365 1.78389 1.08616)
(1.66678 1.06168 1.28158)
(1.05391 1.49937 1.40397)
(1.51731 1.13098 1.18131)
(1.5697 1.05508 1.13949)
(1.59089 1.02178 1.29584)
(1.16685 1.79301 1.33505)
(1.65114 1.33884 0.960594)
(1.74082 1.47757 1.08374)
(1.32493 1.25863 0.60093)
(1.73752 1.18683 1.04725)
(1.68059 1.01419 1.22907)
(1.32584 1.1594 0.684624)
(1.62752 1.24254 1.25291)
(1.60314 1.06086 1.28374)
(1.68356 1.04482 1.17525)
(1.15408 1.79048 1.1333)
(1.06632 1.13016 1.42289)
(1.23555 1.28106 1.319)
(1.43112 1.40257 0.981982)
(1.42533 1.12365 1.11447)
(1.55993 1.60821 1.13686)
(1.20041 1.43313 0.996351)
(1.61846 1.67995 1.04809)
(1.51906 1.1896 1.24923)
(1.70917 1.38311 1.1486)
(1.15427 1.81147 1.08015)
(1.12274 1.14355 1.45594)
(1.54876 1.09844 1.08133)
(1.53155 1.73519 1.05391)
(0.955789 1.58036 0.600947)
(1.59683 1.30327 1.27678)
(1.66063 1.2494 0.966124)
(1.83551 1.33134 1.18327)
(1.04613 1.11884 1.38176)
(1.27959 1.16635 1.53479)
(1.25154 1.12237 1.49163)
(1.03638 1.10428 1.50699)
(0.973167 1.14702 1.25963)
(1.41336 1.12254 1.24894)
(1.42334 1.15614 1.18933)
(1.45636 1.20313 1.22989)
(1.43534 1.16431 1.18916)
(1.45827 1.16087 1.22157)
(1.63826 1.12529 1.32193)
(1.44145 1.16687 1.19868)
(1.40041 1.16113 1.16348)
(1.58097 1.18333 1.30713)
(1.39329 1.15351 1.14474)
(1.37198 1.15016 1.07046)
(1.47273 1.20349 1.17934)
(1.48355 1.06612 1.12085)
(1.53208 1.05932 1.10739)
(1.4706 1.05938 1.1521)
(1.5396 1.03472 1.0808)
(1.53693 1.02393 1.03231)
(1.57162 1.1089 1.12051)
(1.52793 1.11595 1.05411)
(1.49023 1.47743 1.18571)
(1.5045 1.57712 1.20676)
(1.15806 1.77733 1.07006)
(1.52941 1.58157 1.20061)
(1.46484 1.71356 1.23704)
(1.31316 1.72036 1.19428)
(1.35405 1.76476 1.1042)
(1.43452 1.69777 1.25598)
(1.70657 1.47327 1.06007)
(1.67488 1.2545 0.990488)
(1.15257 1.66603 1.49692)
(1.72977 1.0601 1.20958)
(1.66842 1.22237 1.06386)
(1.80946 1.42269 1.24496)
(1.66035 1.28065 1.243)
(1.65481 1.21755 1.24437)
(1.72412 1.07358 1.24272)
(1.55577 1.16004 1.09498)
(1.63582 1.25169 1.21764)
(1.63768 1.20638 1.24383)
(1.59776 1.16203 1.13826)
(1.34982 1.78508 1.22893)
(1.30837 1.77114 1.12483)
(1.28607 1.71966 1.09414)
(1.55928 1.54511 1.10424)
(1.56507 1.78199 1.13415)
(1.32859 1.74931 1.13832)
(1.48134 1.3654 1.05826)
(1.73624 1.30342 0.964145)
(1.561 1.35185 0.978742)
(1.43475 1.40783 1.57515)
(1.6155 1.14792 1.31201)
(1.65629 1.26039 1.4218)
(1.26554 1.18837 1.55375)
(1.58191 1.11682 1.27356)
(1.72568 1.22436 1.05741)
(1.52399 1.49575 1.00891)
(1.33806 1.28983 1.14486)
(0.864969 1.24408 1.17101)
(1.0372 1.47849 1.4341)
(0.995125 1.11488 1.17451)
(1.6749 1.46326 1.04807)
(1.68715 1.11244 1.28664)
(1.68725 1.02909 1.24329)
(1.62749 1.2976 1.05669)
(1.73211 1.41258 1.0561)
(1.65185 1.18949 1.32054)
(1.77001 1.37535 1.17574)
(1.62888 1.03268 1.28276)
(1.66717 1.02375 1.2508)
(1.6365 1.02226 1.27415)
(1.67968 1.02489 1.19532)
(1.6885 1.42197 1.14179)
(1.63135 1.58002 1.39663)
(1.21665 1.80842 1.17212)
(1.26168 1.84286 1.17195)
(1.35255 1.80876 1.27127)
(1.1787 1.65183 1.01423)
(1.161 1.72654 1.03445)
(1.09317 1.35283 0.797237)
(1.12316 1.4906 1.30486)
(1.23899 1.58736 1.39452)
(1.12538 1.34449 0.80315)
(1.1496 1.6129 1.31306)
(1.34057 1.33883 0.564337)
(1.34471 1.33324 1.31822)
(1.04385 1.28456 0.975023)
(1.29791 1.13911 0.616677)
(1.21129 1.38512 1.16084)
(1.22726 1.36004 1.2009)
(1.1946 1.68036 0.66589)
(1.07138 1.53501 1.53064)
(1.18178 1.37543 0.784983)
(1.13333 1.12931 1.50271)
(1.44523 1.15162 1.1693)
(1.46879 1.16649 1.19107)
(1.19301 1.11244 1.44062)
(1.141 1.19591 1.01543)
(1.30398 1.6871 1.32934)
(1.27541 1.37533 1.19432)
(1.34313 1.76303 1.13671)
(1.56812 1.67482 1.10465)
(1.44932 1.21639 1.3177)
(1.54795 1.34699 0.981422)
(1.60625 1.12639 1.15771)
(0.997573 1.11254 1.16832)
(1.06919 1.03735 1.2109)
(0.953597 1.61113 1.22835)
(0.820819 1.53381 1.20854)
(1.69254 1.56999 1.08751)
(1.61482 1.02122 1.17988)
(1.56094 1.01034 1.2101)
(1.48298 1.04062 1.19853)
(1.6311 1.07795 1.16675)
(1.5809 1.02875 1.25638)
(1.63962 1.38662 1.06014)
(1.56917 1.17675 1.2118)
(1.22564 1.77893 1.24795)
(1.61156 1.56913 1.36967)
(1.42646 1.4779 0.982386)
(1.65961 1.39137 1.26114)
(1.75142 1.23154 1.04494)
(1.618 1.2868 1.02317)
(1.46292 1.40981 1.26717)
(1.60146 1.09589 1.24282)
(1.07866 1.22783 1.58887)
(0.599756 1.53016 1.33712)
(1.01248 1.14872 1.12501)
(0.533102 1.36874 1.34816)
(0.675518 1.48465 1.41407)
(1.09851 1.41578 1.62463)
(0.457264 0.940425 1.31648)
(1.31897 1.38037 0.629004)
(1.23035 1.04708 1.53163)
(1.31083 1.31791 1.59297)
(0.709289 1.20925 1.44534)
(1.10684 1.34676 0.835091)
(0.796397 1.22976 1.53364)
(0.60233 1.31455 1.14834)
(1.13666 1.52471 1.58629)
(1.00291 1.31648 0.997916)
(0.378171 1.39022 1.28064)
(1.048 1.18467 1.63919)
(0.316125 1.13047 1.10998)
(0.70744 1.18631 1.63878)
(1.10258 1.23969 1.61331)
(1.01684 1.69553 1.3814)
(1.13453 1.45293 1.62217)
(0.770226 1.19486 1.46886)
(0.681162 1.21701 1.40723)
(1.33837 1.62752 1.20099)
(1.35031 1.32646 1.16279)
(0.619357 1.53305 1.37305)
(0.911092 1.02394 1.31067)
(0.834209 1.19172 1.12149)
(0.509357 1.32522 1.39511)
(0.769748 0.993172 1.48188)
(1.15298 0.965222 1.16687)
(1.35058 1.03902 1.46095)
(0.665779 1.36844 0.887911)
(1.03997 1.34663 1.16331)
(1.42769 1.53099 1.33193)
(0.400618 0.928842 1.13831)
(0.398401 1.0791 1.18284)
(0.90496 1.15923 1.31009)
(0.83772 1.35104 1.47144)
(0.285911 1.15965 0.947593)
(0.456448 1.36792 1.32077)
(0.406699 1.41573 1.26381)
(0.652618 0.963798 1.20673)
(0.289648 1.29284 1.06705)
(0.300474 1.12424 1.06556)
(0.410166 1.40763 1.27304)
(0.993343 1.03425 1.56792)
(1.55879 1.52716 1.06803)
(1.10611 1.1519 1.67741)
(1.00367 1.08292 1.52602)
(0.776102 1.21141 1.06723)
(1.56427 1.13401 1.21848)
(1.50886 1.08131 1.18548)
(1.20278 1.46065 1.63374)
(0.873453 1.58619 1.10734)
(0.823762 1.53639 1.12295)
(0.728949 1.48391 1.4181)
(0.899894 1.66197 0.98779)
(0.973383 1.63362 1.27161)
(0.535854 1.42451 1.4022)
(0.557578 1.47204 1.29419)
(1.28214 1.67463 1.39534)
(0.803482 1.55459 1.58134)
(0.692522 1.3346 1.41342)
(0.920198 1.42022 1.14092)
(0.77944 1.27782 1.33632)
(0.560163 0.92196 1.22123)
(0.313121 1.1907 1.15368)
(0.510329 1.38266 1.46794)
(0.646622 1.21842 1.41972)
(1.29315 1.45269 0.872883)
(0.802793 1.03482 0.588318)
(0.754321 1.55904 1.38656)
(1.30537 1.49578 1.10492)
(0.930679 1.64478 0.953499)
(1.25597 1.60887 1.42235)
(1.44822 1.57301 0.831352)
(1.19689 1.44779 0.824392)
(1.03854 1.22775 1.60365)
(1.03352 1.1492 1.41889)
(1.51889 1.70856 1.05122)
(1.13699 1.46848 1.60794)
(1.22939 1.57965 1.44882)
(1.11836 1.44785 1.62105)
(1.09025 1.48819 1.61403)
(1.13515 1.31834 1.59342)
(1.06035 1.45626 1.60825)
(0.66375 1.31868 1.48171)
(1.04399 1.14763 1.67281)
(0.797175 1.19484 1.30632)
(0.995786 1.17516 1.6131)
(0.843455 1.16714 1.11638)
(1.02013 1.18914 1.61611)
(1.08061 1.2128 1.61198)
(1.02299 1.19143 1.62454)
(0.954745 1.03052 1.29169)
(1.07706 1.24625 1.62488)
(1.32969 1.65206 1.36641)
(1.17774 1.53956 1.08734)
(1.18023 1.35362 1.62107)
(1.17315 1.45215 1.60893)
(1.16371 1.39894 1.62571)
(1.13775 1.35103 1.62995)
(1.03454 1.3039 0.968528)
(1.26983 1.66643 1.3719)
(0.956664 1.04922 1.45464)
(0.792233 1.18476 1.08491)
(1.23346 1.45067 1.31675)
(0.835481 1.18224 1.12038)
(1.18388 1.14219 1.48639)
(1.00216 1.27428 1.38038)
(1.15168 1.18725 1.62203)
(0.97833 1.35092 1.21357)
(1.11938 1.40255 1.64404)
(1.3369 1.56744 1.22297)
(0.606497 1.33773 1.31719)
(0.904812 1.50403 1.56631)
(1.15448 0.986155 1.08728)
(0.570571 1.36146 1.14125)
(1.31947 1.46324 1.39204)
(1.13747 1.21522 0.998892)
(0.849005 1.12492 1.30749)
(1.32158 1.36388 0.626481)
(1.16886 1.7549 1.09435)
(1.49483 1.61057 1.31983)
(1.44019 1.49422 1.2099)
(0.971777 1.47395 1.16918)
(1.1162 1.29224 1.59867)
(1.00337 1.11875 1.48295)
(0.69583 1.39569 1.34303)
(0.778016 1.37172 1.65009)
(0.905945 1.60832 1.24639)
(0.980576 0.894397 0.706233)
(0.875711 1.66349 1.18237)
(0.964693 1.3294 1.23181)
(1.10329 1.73721 1.23121)
(1.49202 1.62875 1.19706)
(1.464 1.4671 0.767595)
(1.35498 1.53112 1.18643)
(0.609328 1.37773 1.10995)
(0.79874 1.48551 1.63183)
(0.762056 1.31414 1.56115)
(1.44763 1.35989 1.36045)
(0.973053 1.28912 1.03899)
(0.936882 1.26862 1.54273)
(0.934752 1.27135 1.51724)
(1.22395 1.44761 0.61434)
(0.811825 1.43313 1.5864)
(0.962687 1.35149 1.66098)
(0.798384 1.14385 1.51448)
(0.74003 1.26059 1.55366)
(0.829175 1.62014 1.52333)
(0.938052 1.05365 1.18507)
(1.123 1.31744 1.61901)
(0.703728 1.39461 1.33688)
(1.20935 1.15981 1.19211)
(0.813629 1.41669 1.25851)
(0.988039 1.5186 0.854786)
(1.18805 1.71116 1.33727)
(0.516669 1.52184 1.31869)
(0.581474 1.3969 1.46794)
(0.590124 1.53355 1.36764)
(1.28069 1.45403 1.31158)
(0.869133 1.35205 0.911165)
(0.690031 1.20942 1.6479)
(0.740632 1.33067 1.29378)
(0.591452 1.19613 1.55508)
(0.443509 1.58884 0.802927)
(1.10107 1.73122 0.694993)
(1.07239 0.922303 0.724931)
(0.422928 1.36443 0.645737)
(1.40869 1.62414 0.871196)
(1.19365 1.72747 0.798413)
(1.13666 1.59096 0.833871)
(1.01689 1.34321 0.389206)
(0.529739 1.16036 0.514051)
(1.48437 1.57667 0.85747)
(1.47606 1.55316 0.919345)
(0.905743 1.64874 0.644941)
(0.845674 1.70096 0.760383)
(0.401082 1.52767 0.812725)
(0.467227 1.20429 0.556728)
(1.27064 1.74849 0.781216)
(0.81115 1.42246 0.390193)
(0.497045 1.30846 0.700479)
(0.890841 1.26498 0.673111)
(0.726612 1.23627 0.450238)
(0.68192 1.58428 0.874634)
(0.462625 1.55016 0.588957)
(0.731649 1.4913 0.930775)
(0.712242 1.34568 0.743024)
(1.31128 1.62638 0.724238)
(0.788706 1.20746 0.484667)
(0.535762 1.09642 0.585528)
(1.06405 1.13119 1.02903)
(1.02605 1.56755 0.49471)
(0.715037 1.6972 0.953879)
(0.912919 1.33702 0.298771)
(1.26589 1.4146 0.53803)
(1.39997 1.76633 0.610842)
(0.849209 1.41837 0.358382)
(0.916303 1.62063 0.481598)
(1.33034 1.33001 0.374691)
(0.490175 1.54787 0.96693)
(0.47347 1.34118 0.743233)
(0.898061 0.968022 0.739667)
(1.06883 1.01113 0.901313)
(0.735315 1.24079 0.766352)
(0.734986 1.53401 1.01892)
(1.2588 1.58483 0.667729)
(0.437987 1.41124 0.654271)
(0.657337 1.54133 0.667172)
(0.884954 1.28799 0.373876)
(1.04857 1.3518 0.462417)
(0.76835 1.40041 0.722256)
(1.11672 1.46774 0.665399)
(0.634328 1.47086 0.937935)
(1.05758 1.37974 0.538046)
(1.02956 1.53407 0.409164)
(0.796339 1.27293 0.442486)
(0.713766 1.59011 0.826382)
(1.09253 1.44828 0.689472)
(1.18992 1.75845 0.715524)
(0.767756 1.63543 0.924262)
(0.87831 1.42604 0.317603)
(1.0481 1.24126 0.337441)
(1.08048 1.16413 0.619995)
(1.09475 0.910538 0.670915)
(1.31604 1.66632 0.683915)
(1.16465 1.74563 0.57395)
(1.12944 1.74107 0.5499)
(1.28666 1.78672 0.691118)
(1.27109 1.68163 0.827161)
(1.21962 1.44622 0.765509)
(1.35574 1.36958 0.827664)
(1.34873 1.64328 0.687615)
(1.33153 1.70808 0.657449)
(1.3747 1.61209 0.857948)
(1.46103 1.74414 0.765826)
(1.43268 1.81996 0.735888)
(1.02089 0.895247 0.532401)
(0.909912 1.07829 0.408601)
(1.03695 1.49115 0.649104)
(1.12517 1.56626 0.684473)
(1.03424 1.21485 0.329189)
(0.569078 1.50533 0.664083)
(0.715164 1.25073 0.554965)
(1.13462 1.03174 0.815389)
(1.16009 0.984319 1.10419)
(0.645507 1.16518 0.474369)
(0.996447 1.01536 0.654234)
(0.912464 1.56528 0.551422)
(0.988692 1.0214 0.408434)
(0.446248 1.5273 0.916903)
(1.13881 1.71729 0.574767)
(0.9111 1.46636 0.77577)
(1.02827 1.75336 0.869742)
(1.27201 1.78135 0.714036)
(0.738261 1.4498 0.922361)
(0.994112 1.53329 0.718372)
(1.16224 1.70974 0.558306)
(0.799637 1.60727 0.860138)
(0.816001 1.34597 0.563961)
(0.838926 1.60364 1.05522)
(0.5495 1.51853 1.05696)
(0.542996 1.67612 0.744383)
(0.93933 1.40783 0.302726)
(0.993312 1.48643 0.598849)
(1.03595 1.27173 0.407492)
(1.32694 1.25586 0.688914)
(0.818319 1.03634 0.979239)
(1.15341 1.08628 0.573725)
(1.06095 1.8172 0.702778)
(1.23701 1.68852 0.850039)
(0.924823 1.5368 0.618522)
(1.52422 1.54253 0.783787)
(1.20395 1.59981 0.901896)
(1.4644 1.63094 0.76552)
(1.06556 1.50547 0.4248)
(1.2446 1.63264 0.601905)
(0.711965 1.13887 0.440958)
(0.967812 1.49841 0.611769)
(1.08138 1.44727 0.547381)
(0.819161 1.49402 0.920306)
(1.16082 1.62967 0.909027)
(1.20951 1.47138 0.755704)
(1.05856 1.2754 0.521931)
(0.909877 1.59448 0.541668)
(0.775407 1.60974 0.881642)
(1.05447 1.29809 0.540608)
(1.12692 1.47978 0.625264)
(0.409393 1.43727 0.65163)
(0.450906 1.40644 0.746335)
(1.05197 0.871165 0.714332)
(0.461594 1.53951 0.771696)
(0.448023 1.50544 0.755431)
(0.743284 1.49261 0.891375)
(0.749838 1.00162 0.694596)
(0.792785 1.32959 0.644289)
(1.04082 1.13008 1.20388)
(1.10097 1.38943 0.793454)
(0.491469 1.55784 0.693467)
(0.579313 1.51665 1.05831)
(1.19282 1.01429 1.14615)
(0.505303 1.2629 0.895314)
(0.57789 1.29494 0.572171)
(1.5721 1.55056 0.676018)
(1.19409 1.54261 1.05475)
(0.90186 1.38838 0.83304)
(0.818632 0.808351 0.647413)
(1.13092 0.966468 0.824788)
(1.05685 0.836081 0.805109)
(0.805584 1.03079 0.558569)
(1.23584 1.45289 0.611734)
(1.26483 1.45393 0.643108)
(0.679573 1.32545 0.425898)
(1.34335 1.39356 1.3366)
(1.0124 1.38497 0.488195)
(0.968221 1.26319 0.911346)
(1.32105 1.46202 0.755349)
(1.32017 1.45907 0.764467)
(0.970853 1.41282 0.832082)
(1.2086 1.67343 0.716581)
(1.26704 1.80495 0.629858)
(1.01675 1.52899 0.531808)
(1.36978 1.69029 0.76929)
(0.719164 1.50244 1.06114)
(0.644081 0.97696 0.610386)
(0.724375 1.25154 0.403789)
(0.67093 1.2166 0.462572)
(0.772106 1.61745 0.794432)
(0.565121 1.56507 0.952117)
(1.66524 1.67684 0.665024)
(1.47333 1.84387 0.807845)
(1.65171 1.03759 0.787447)
(0.657214 1.45201 0.91584)
(1.41715 1.71128 0.713252)
(1.54066 1.04833 0.861113)
(1.20093 1.21338 0.833403)
(1.53283 1.14922 0.663798)
(1.5337 1.83938 0.891062)
(1.56912 1.82798 0.848045)
(1.28783 1.66074 0.737944)
(1.64465 1.20488 0.738254)
(1.55793 1.27895 0.667713)
(1.52534 1.274 0.572731)
(1.57016 1.36076 0.808967)
(1.21418 1.1718 0.568077)
(1.49691 1.09218 0.821522)
(0.616984 1.53361 0.870567)
(1.34689 1.3768 0.754784)
(1.54653 1.14822 0.983801)
(1.56911 1.22076 0.914273)
(1.6013 1.07064 0.73049)
(1.14648 1.45179 0.730002)
(1.38872 1.67403 0.639026)
(1.54652 1.52131 0.892462)
(1.66755 1.23652 0.671028)
(0.992288 1.34347 0.724966)
(0.972288 1.32562 0.721901)
(1.28213 1.81828 0.980276)
(1.54065 1.04188 0.940218)
(0.789208 1.23156 0.631934)
(1.70461 1.35987 0.721319)
(1.5718 1.21435 0.865712)
(1.39058 1.25753 0.954948)
(1.35086 1.69717 0.645536)
(1.39185 1.67201 1.00712)
(1.52416 1.08067 0.982068)
(1.5312 1.01743 0.967387)
(1.53192 1.01368 0.913925)
(1.64662 1.82405 0.826159)
(1.49979 1.84606 0.750096)
(1.67094 1.79496 0.796565)
(1.54205 1.65821 0.844304)
(1.6618 1.65071 0.662123)
(1.69746 1.60509 0.662293)
(1.69158 1.71784 0.884029)
(1.70214 1.57102 0.885286)
(1.68311 1.42698 0.775915)
(1.68304 1.52479 0.633941)
(1.70087 1.38727 0.712413)
(1.66291 1.35809 0.75443)
(1.32013 1.12119 0.554572)
(1.37979 1.18773 0.761257)
(1.29818 1.81534 0.997996)
(0.965044 1.40303 0.929714)
(1.30792 1.77581 1.02988)
(1.51634 1.34243 0.781683)
(1.59632 1.15493 0.762612)
(1.29642 1.41107 0.644645)
(1.59907 1.16436 0.770392)
(1.66873 1.23977 0.707647)
(1.72009 1.26804 0.79835)
(1.43338 1.26931 0.998697)
(1.33045 1.29839 0.913038)
(1.74336 1.25416 0.771519)
(1.51113 1.26732 0.99245)
(1.56924 1.2388 1.05687)
(1.5306 1.23514 0.912824)
(1.52904 1.20049 1.04817)
(1.52016 1.12772 0.99673)
(1.56317 1.19713 0.987535)
(1.54006 1.07888 0.949501)
(0.855161 0.842117 0.575378)
(1.21486 1.25516 0.317892)
(0.98079 1.04622 0.796095)
(1.31211 1.6098 0.779032)
(1.3333 1.76777 0.721561)
(1.13892 1.69677 0.996038)
(1.46285 1.6398 0.613117)
(1.31078 1.79308 0.700686)
(1.36217 1.6816 0.671942)
(1.25121 1.72031 1.14385)
(1.24052 1.70293 1.02337)
(1.39191 1.83197 0.885702)
(1.37814 1.63845 0.762292)
(1.57577 1.0443 0.844414)
(1.55611 1.05505 0.793808)
(1.50978 1.06854 0.831866)
(1.4199 1.09382 0.867501)
(1.47535 1.06321 0.865332)
(1.55814 1.0663 0.909412)
(1.54139 1.04458 0.898181)
(1.59589 1.07887 0.91084)
(1.51737 1.03537 0.880588)
(1.29174 1.70981 0.713646)
(1.48075 1.75099 0.742711)
(1.52286 1.56298 0.721232)
(1.29428 1.72455 0.742154)
(1.02293 1.59781 0.588677)
(1.109 1.66477 0.568174)
(1.50668 1.76971 0.759628)
(1.4778 1.70868 1.01249)
(1.01253 1.59602 0.597469)
(1.30076 1.7004 0.556742)
(1.16799 1.11158 0.582733)
(1.01946 1.21896 0.712783)
(1.36347 1.20559 0.865091)
(1.10515 1.1895 0.555387)
(1.18374 1.18208 0.809433)
(1.74283 1.54916 0.836183)
(1.49168 1.67486 0.909986)
(1.25726 1.52117 0.522955)
(1.53805 1.30382 0.623843)
(1.36646 1.19818 0.817885)
(0.992674 1.14587 0.991323)
(1.53574 1.66276 0.779092)
(1.22332 1.50724 0.520262)
(1.34775 1.64426 0.85456)
(1.51538 1.69162 0.944391)
(1.72754 1.54556 0.873931)
(1.11869 1.82358 0.626007)
(1.48994 1.80853 0.688528)
(1.26601 1.08452 0.763598)
(1.29788 1.69774 0.710513)
(1.17767 1.20339 0.858535)
(0.927344 1.28976 0.784399)
(1.27073 1.16935 0.762373)
(1.35961 1.10675 0.496062)
(1.18937 1.21226 0.846183)
(1.2049 1.11532 0.7039)
(1.20633 1.13961 0.72555)
(1.36922 1.1628 0.840748)
(1.44593 1.1557 0.804492)
(1.19541 1.18039 0.787254)
(1.29473 1.06268 0.746273)
(1.57207 1.18459 0.895367)
(1.10281 1.14372 0.791409)
(1.53388 1.76394 0.985234)
(1.5368 1.32701 0.69375)
(1.28508 1.68377 0.74242)
(1.73072 1.17137 0.829217)
(1.60239 1.22572 0.626746)
(1.64239 1.09932 0.69824)
(1.5648 1.17874 0.923007)
(1.62015 1.17107 0.628593)
(1.55167 1.25444 0.769816)
(1.67215 1.29355 0.707629)
(1.50113 1.23477 0.985237)
(1.47827 1.14145 0.8729)
(1.54771 1.09946 0.838765)
(1.25429 1.22345 0.844552)
(1.36266 1.14082 0.872219)
(1.60231 1.06826 0.708751)
(1.25308 1.11339 0.578585)
(1.22835 1.22837 0.789343)
(0.960314 1.34362 0.742629)
(1.15645 1.21211 0.830643)
(0.968245 1.39882 0.781713)
(1.65616 1.08754 0.877151)
(1.70991 1.10702 0.810081)
(1.71227 1.1352 0.831716)
(1.68263 1.08098 0.716281)
(1.20271 1.47659 0.721064)
(1.35485 1.15201 0.801953)
(1.23093 1.139 0.585477)
(0.77336 1.29179 0.924293)
(0.943233 0.952688 0.672362)
(1.06645 1.34092 1.19733)
(1.43614 1.56577 1.18343)
(1.24948 1.55305 1.49761)
(1.16556 1.33082 1.16775)
(1.30001 1.34486 1.39511)
(1.38924 1.37739 1.38932)
(1.40734 1.73225 1.10501)
(1.29687 1.75962 1.21544)
(1.13274 0.887414 1.25454)
(1.34651 1.64165 1.15407)
(1.47749 1.42748 1.56734)
(1.09906 0.867271 1.264)
(0.943889 1.14526 1.07583)
(0.973917 0.960757 1.12031)
(0.880804 1.3229 0.778751)
(0.935693 1.28061 1.07654)
(1.65604 1.42691 1.42961)
(1.32412 1.22057 1.65496)
(0.644247 1.5609 1.16384)
(0.62359 1.41969 1.2902)
(0.794851 1.06468 1.5911)
(1.43398 1.46226 1.14562)
(0.60739 0.879216 1.22116)
(1.25872 1.1108 1.26362)
(1.09949 1.21213 1.24935)
(1.12857 1.19524 1.32117)
(1.20105 0.906799 1.2255)
(0.595852 1.60474 1.25202)
(0.712717 1.2031 1.32862)
(1.163 1.21002 1.10777)
(1.2064 0.986371 1.07444)
(0.497703 1.42812 1.41672)
(1.40377 1.2854 1.34362)
(1.18565 1.4722 1.2727)
(1.40872 1.50657 1.20302)
(1.44983 1.45073 1.31367)
(0.967089 1.37942 1.19818)
(1.26652 1.40603 1.61992)
(1.08118 1.19907 1.29158)
(1.30327 1.28655 1.61654)
(1.14156 1.13551 1.20455)
(1.40064 1.40832 1.39355)
(1.47921 1.47902 1.24383)
(0.900819 1.30018 1.34263)
(1.44961 1.62757 1.27098)
(1.18187 1.32156 1.53696)
(1.29523 1.13233 1.26365)
(1.47122 1.35865 0.993258)
(1.54215 1.27589 1.49207)
(0.884509 0.99647 1.01407)
(0.780743 1.56632 1.42445)
(0.513885 1.44045 1.33497)
(1.41558 1.71988 1.11483)
(1.33011 1.5674 1.23693)
(1.31136 1.57778 1.24394)
(1.17403 1.41104 1.31279)
(1.3939 1.36939 1.4493)
(1.38894 1.33668 1.58082)
(1.40349 1.66138 1.21608)
(1.37446 1.2971 1.59977)
(0.952981 1.49929 1.57947)
(0.743607 1.34222 0.901224)
(1.43813 1.5984 1.23555)
(1.47816 1.59229 1.14907)
(1.37679 1.35354 1.58945)
(1.16361 1.34912 0.756705)
(1.20799 0.897223 1.12061)
(1.32351 1.33919 1.49483)
(1.29925 1.55668 1.30315)
(0.979781 1.26617 1.14379)
(1.41938 1.3796 0.95277)
(1.70695 1.52485 1.00025)
(1.71445 1.45173 1.27426)
(1.677 1.15084 1.01315)
(1.65733 1.23968 1.06254)
(1.55376 1.30743 1.41834)
(1.57183 1.46002 0.987681)
(1.80964 1.35714 1.15401)
(1.59788 1.29822 1.4696)
(1.3878 1.18106 1.39059)
(1.78607 1.15788 1.06189)
(1.52116 1.3106 1.38877)
(1.43925 1.46469 0.975289)
(1.29309 1.27384 1.3822)
(1.45041 1.51131 1.48574)
(1.67731 1.15215 1.28742)
(1.80029 1.20798 1.15194)
(1.7509 1.38129 1.2507)
(1.81945 1.34767 1.08367)
(1.68731 1.20593 1.04584)
(1.26421 1.30681 0.787674)
(1.70832 1.13973 1.06616)
(1.26595 1.22274 0.669258)
(1.72852 1.40145 0.984007)
(1.31227 1.3046 0.778606)
(1.33161 1.35568 0.84064)
(1.68188 1.22835 1.04666)
(0.902725 1.18122 1.06654)
(1.02065 1.33037 1.16637)
(1.04082 1.23496 0.751327)
(1.42169 1.13363 0.621448)
(1.21588 1.52828 0.55091)
(1.6954 1.40164 0.993925)
(1.41339 1.17632 1.39247)
(1.75035 1.12678 1.19966)
(1.39178 1.15857 1.43072)
(1.29183 1.17893 1.36928)
(1.52417 1.31964 1.42824)
(1.53018 1.16645 1.40557)
(1.297 1.7594 1.27595)
(1.2343 1.33935 0.862446)
(1.71325 1.13548 1.02466)
(1.5178 1.32425 1.46972)
(1.46246 1.54676 1.36611)
(1.56837 1.61499 1.05621)
(1.39968 1.42458 1.58522)
(1.62951 1.51184 1.39953)
(1.36715 1.7327 1.15828)
(1.50345 1.33167 1.44694)
(1.41119 1.29779 1.30025)
(1.43602 1.11231 1.37185)
(1.60177 1.506 1.40428)
(1.48412 1.32072 0.968211)
(1.72139 1.10119 1.05674)
(1.66266 1.11262 1.05612)
(0.658302 1.47835 0.803939)
(1.69358 1.47298 1.37936)
(1.54167 1.20946 1.41137)
(1.25848 1.44072 1.53574)
(1.43214 1.40004 0.942198)
(1.43843 1.44878 0.972297)
(1.58827 1.38172 1.50376)
(1.53512 1.2088 1.29578)
(1.35534 1.18696 1.37483)
(1.81458 1.217 1.16514)
(1.82198 1.24025 1.16684)
(1.28976 1.32063 0.962014)
(1.63487 1.12741 1.06189)
(1.68321 1.08777 1.25864)
(1.80486 1.27285 1.13384)
(1.84003 1.38462 1.14874)
(1.82487 1.2911 1.16567)
(1.35601 1.29061 0.856965)
(1.77638 1.10068 1.1524)
(1.44756 1.26416 0.908351)
(1.47126 1.16232 0.70585)
(1.66705 1.12293 0.725597)
(1.73562 1.08423 1.20113)
(0.662115 1.01525 0.531523)
(1.21958 1.19054 0.702355)
(1.21234 1.57692 0.494591)
(1.48882 1.19872 1.35439)
(1.72514 1.23075 1.1467)
(1.46619 1.19364 0.701265)
(1.69867 1.19847 1.24684)
(1.09229 1.28492 0.771084)
(1.42919 1.16844 0.801016)
(0.965785 1.17035 0.92383)
(1.01246 1.17042 0.955199)
(0.972079 1.1764 0.912758)
(1.16547 1.12645 0.653558)
(0.981489 1.04432 1.10513)
(0.986089 1.67313 0.57468)
(1.00872 0.958004 1.17293)
(1.13294 1.36258 0.318053)
(0.909633 1.23236 0.793048)
(1.54595 1.56578 0.848435)
(1.25538 1.1533 0.710811)
(1.45658 1.40301 0.589626)
(1.17791 1.17168 0.701449)
(1.58746 1.67645 0.864118)
(1.54213 1.6811 0.855338)
(1.39783 1.19418 0.843165)
(0.493259 1.45399 0.629645)
(1.54419 1.46537 0.808973)
(1.03656 1.71414 0.569325)
(0.767429 1.43429 0.903026)
(0.657918 1.42648 0.798325)
(1.42544 1.41158 0.589978)
(1.60003 1.20234 0.667444)
(1.34529 1.11148 0.774477)
(1.47055 1.20961 0.715375)
(1.56828 1.53219 0.877668)
(1.48825 1.23474 0.545289)
(1.53226 1.18847 0.823752)
(1.47936 1.2285 0.817313)
(1.63438 1.19907 1.10351)
(1.3402 1.37847 0.775)
(1.58913 1.27564 0.976638)
(1.46698 1.2024 0.871978)
(1.73796 1.35043 0.880022)
(1.26203 1.118 0.647851)
(1.71673 1.29049 0.832429)
(1.30207 1.41387 0.827908)
(1.42014 1.45387 0.937667)
(1.82784 1.31693 1.1251)
(1.76795 1.101 1.17385)
(1.22339 1.37246 0.916328)
(1.12789 1.24515 0.790511)
(1.4017 1.23962 0.835282)
(1.67842 1.09914 1.20495)
(1.6985 1.07294 1.18803)
(1.17396 1.19527 0.729124)
(1.58794 1.19972 0.694527)
(1.33045 1.213 1.24491)
(1.7931 1.21529 1.17553)
(1.75061 1.24006 1.23307)
(1.67171 1.1639 1.21705)
(1.26879 1.40632 0.991742)
(1.60492 1.24339 1.0814)
(0.770667 1.31469 0.343417)
(0.760152 1.36078 0.547475)
(1.21049 1.47945 0.968077)
(0.862802 1.3391 0.473109)
(1.54287 1.50372 0.838037)
(1.24537 1.32397 0.345889)
(0.803968 1.11796 0.647)
(1.406 1.60304 0.860038)
(0.476643 1.52997 0.571537)
(1.46773 1.49 0.747198)
(1.28716 1.47701 0.438706)
(1.50669 1.5987 0.981559)
(1.30735 1.48775 0.641228)