/*--------------------------------*- C++ -*----------------------------------*\
| =========                 |                                                 |
| \\      /  F ield         | OpenFOAM: The Open Source CFD Toolbox           |
|  \\    /   O peration     | Version:  v1806                                 |
|   \\  /    A nd           | Web:      www.OpenFOAM.com                      |
|    \\/     M anipulation  |                                                 |
\*---------------------------------------------------------------------------*/
FoamFile
{
    version     2.0;
    format      ascii;
    class       surfaceScalarField;
    location    "0.006";
    object      phi;
}
// * * * * * * * * * * * * * * * * * * * * * * * * * * * * * * * * * * * * * //

dimensions      [0 3 -1 0 0 0 0];
oriented        oriented;


internalField   nonuniform List<scalar> 
187200
(
8.89554e-06
-7.02649e-06
-1.86925e-06
3.12212e-05
-1.52705e-05
-7.05513e-06
5.39008e-05
-1.50829e-05
-7.59671e-06
7.27063e-05
-1.20903e-05
-6.71516e-06
8.67235e-05
-8.46893e-06
-5.54831e-06
9.74079e-05
-4.94142e-06
-5.74295e-06
0.000106148
-1.86603e-06
-6.87435e-06
0.00011248
1.82322e-06
-8.15532e-06
0.000115825
5.95352e-06
-9.29779e-06
0.000113132
1.21084e-05
-9.4161e-06
0.000103331
1.78921e-05
-8.09072e-06
8.39631e-05
2.51278e-05
-5.7599e-06
5.73269e-05
3.02597e-05
-3.6235e-06
1.82426e-05
3.75847e-05
1.49954e-06
-3.95888e-05
4.61222e-05
1.17092e-05
-0.000117327
5.87346e-05
1.9004e-05
-0.000207487
7.21905e-05
1.79692e-05
-0.000302481
8.95891e-05
5.40499e-06
-0.000397624
0.000112309
-1.71659e-05
-0.000486524
0.000141757
-5.28575e-05
-0.000564486
0.000175964
-9.80026e-05
-0.000624692
0.000214859
-0.000154652
-0.000659493
0.000256825
-0.000222025
-0.000662771
0.00029973
-0.000296452
-0.000629745
0.000339575
-0.000372601
-0.000559728
0.000372155
-0.000442173
-0.000456018
0.000394644
-0.000498353
-0.000327631
0.000403998
-0.000532385
-0.000188148
0.000397253
-0.000536736
-4.53707e-05
0.00036763
-0.000510407
7.30816e-05
0.000324819
-0.000443271
0.000143837
0.000276968
-0.000347723
0.000165466
0.000220125
-0.000241755
0.000153307
0.000161051
-0.000148891
0.000122319
0.000112425
-8.14378e-05
8.69102e-05
7.6378e-05
-4.09688e-05
5.52563e-05
5.19644e-05
-2.03106e-05
2.99728e-05
3.78668e-05
-1.25833e-05
9.55783e-06
2.89005e-05
-8.4856e-06
1.50299e-05
-5.47204e-06
1.6785e-05
-2.02526e-05
-3.55885e-06
5.28229e-05
-3.44745e-05
-1.68337e-05
8.95785e-05
-3.01842e-05
-2.16543e-05
0.00011829
-1.76925e-05
-2.31097e-05
0.000137018
-2.09911e-06
-2.50973e-05
0.000147824
1.34319e-05
-2.91793e-05
0.000152244
2.93595e-05
-3.56451e-05
0.000148588
4.87548e-05
-4.32758e-05
0.000133232
7.25301e-05
-5.12204e-05
0.000101278
0.000102138
-5.80753e-05
4.85209e-05
0.000136503
-6.58541e-05
-2.72336e-05
0.000176275
-7.53924e-05
-0.000132318
0.00022283
-8.7486e-05
-0.000265052
0.00027546
-0.00010514
-0.000421855
0.000333072
-0.000130147
-0.000594582
0.000396686
-0.000165225
-0.00077702
0.000468655
-0.000214027
-0.00095749
0.000547562
-0.000277503
-0.00112363
0.000632663
-0.000354213
-0.00126369
0.000722807
-0.000440995
-0.00136752
0.000814899
-0.000535104
-0.00142609
0.000906033
-0.000632599
-0.00143236
0.000992462
-0.000729373
-0.00138345
0.00106695
-0.000816128
-0.00127799
0.00112487
-0.000890762
-0.0011194
0.00116036
-0.000946793
-0.000916858
0.00116817
-0.000976066
-0.000684649
0.00114374
-0.000971951
-0.000442439
0.0010851
-0.000930057
-0.000216693
0.000992158
-0.000850274
-3.01485e-05
0.000875445
-0.000737171
0.000111791
0.00073292
-0.000597892
0.000188863
0.000589825
-0.000446771
0.000206422
0.00046061
-0.000317119
0.00018241
0.000348789
-0.000212352
0.00014385
0.000256594
-0.000141657
0.000103087
0.000190707
-9.79798e-05
6.55872e-05
0.000147077
-7.17103e-05
2.94815e-05
0.000112794
-4.77878e-05
6.49854e-05
-2.0474e-05
1.95138e-05
-3.09308e-05
-8.8356e-06
6.15575e-05
-4.61413e-05
-3.03769e-05
0.000102478
-3.24097e-05
-3.86954e-05
0.000130842
-4.24858e-06
-4.18074e-05
0.000144712
2.96171e-05
-4.55857e-05
0.000146324
6.67721e-05
-5.49528e-05
0.000135777
0.000109048
-6.91416e-05
0.00011058
0.000158694
-8.47421e-05
6.42777e-05
0.000218773
-9.99405e-05
-5.21576e-06
0.000289285
-0.000117654
-0.000103839
0.000370241
-0.000135114
-0.000231656
0.000459333
-0.000155242
-0.000387732
0.000556528
-0.000177622
-0.000566099
0.000659276
-0.000205449
-0.000758836
0.000766289
-0.000240479
-0.000955277
0.000876588
-0.000283461
-0.0011439
0.000990983
-0.000333709
-0.00131418
0.00110746
-0.000389617
-0.00145677
0.00122379
-0.000448537
-0.001564
0.00133751
-0.000507469
-0.00163064
0.0014447
-0.000563163
-0.00165205
0.00154142
-0.000613975
-0.00162775
0.00162315
-0.00065498
-0.00155683
0.00168349
-0.000687459
-0.00144147
0.00171657
-0.000707054
-0.00128672
0.00171747
-0.000711867
-0.00110042
0.00168181
-0.00069994
-0.00089326
0.00160704
-0.000670462
-0.000678376
0.00149429
-0.000624074
-0.000471416
0.00134796
-0.000562766
-0.000284649
0.00117914
-0.000490464
-0.000141223
0.00100137
-0.000411877
-3.81137e-05
0.000819895
-0.00033318
3.0573e-05
0.000652093
-0.00026017
6.54963e-05
0.000510025
-0.000196159
7.58542e-05
0.000401179
-0.000154943
6.90356e-05
0.000319758
-0.000122232
5.3101e-05
0.000260073
-9.70614e-05
2.78446e-05
0.000203682
-6.56315e-05
0.000117076
-2.42457e-05
2.08778e-05
-3.35797e-05
-1.82289e-05
6.63475e-05
-4.22336e-05
-4.93774e-05
0.000107729
-1.30403e-05
-6.07511e-05
0.000130985
3.64768e-05
-6.39815e-05
0.000135035
9.67124e-05
-7.11452e-05
0.000122553
0.00016536
-8.61057e-05
9.34602e-05
0.000244088
-0.000105948
4.58212e-05
0.000334075
-0.000127742
-2.62554e-05
0.000439151
-0.000148301
-0.000123988
0.000554441
-0.000167424
-0.00024836
0.000679462
-0.000184851
-0.000395424
0.000807485
-0.000201087
-0.000559107
0.000937605
-0.000217395
-0.00073179
0.00106633
-0.000234375
-0.000905419
0.00119218
-0.00025226
-0.00107141
0.0013129
-0.000270318
-0.00122231
0.00142989
-0.000288006
-0.00135178
0.00154078
-0.000303853
-0.00145465
0.00164299
-0.000316336
-0.00152739
0.0017345
-0.000324245
-0.00156776
0.00181265
-0.000327581
-0.00157552
0.00187413
-0.000324958
-0.00155061
0.00191486
-0.000316619
-0.00149336
0.00193065
-0.000304411
-0.0014068
0.00191834
-0.000288333
-0.00129491
0.00187525
-0.000269662
-0.00116227
0.00179932
-0.000250148
-0.00101466
0.00169079
-0.000231359
-0.000858329
0.00155288
-0.000214923
-0.000699384
0.00139194
-0.000202923
-0.000544316
0.00121892
-0.000194842
-0.000397449
0.0010427
-0.000188195
-0.00026732
0.000872393
-0.000182627
-0.000162891
0.000721047
-0.000173382
-8.61031e-05
0.000592568
-0.000159331
-3.02905e-05
0.000490255
-0.000144888
6.59218e-06
0.000412159
-0.000129284
2.48745e-05
0.000350463
-0.000108673
2.09772e-05
0.000281787
-7.42078e-05
0.000162567
-2.45145e-05
2.34132e-05
-2.31991e-05
-3.37937e-05
7.32041e-05
-1.48457e-05
-7.71787e-05
0.000115587
3.61264e-05
-9.15494e-05
0.000133272
0.000111785
-9.29931e-05
0.000128178
0.000202515
-0.000100708
0.000104223
0.000306919
-0.000117604
6.16022e-05
0.00042611
-0.000139402
-9.52268e-07
0.00055667
-0.00016004
-8.35509e-05
0.000696054
-0.000174305
-0.00018754
0.00084266
-0.00018423
-0.000309237
0.000989851
-0.000188691
-0.000443667
0.00113147
-0.000189552
-0.000585267
0.00126621
-0.000187007
-0.000727328
0.00139007
-0.000181674
-0.000864274
0.00150284
-0.000173715
-0.00099177
0.00160241
-0.000162018
-0.00110515
0.00168836
-0.000145092
-0.00120125
0.00175992
-0.000123035
-0.00127783
0.00181738
-9.78104e-05
-0.00133347
0.00186019
-7.00539e-05
-0.00136702
0.00188685
-4.0657e-05
-0.0013801
0.00189656
-9.35474e-06
-0.0013724
0.00188814
1.90223e-05
-0.00134651
0.00186076
4.40089e-05
-0.00130546
0.00181346
6.38196e-05
-0.00125068
0.00174522
7.52501e-05
-0.00118314
0.0016557
7.60832e-05
-0.00110355
0.00154579
6.54115e-05
-0.00101097
0.00141812
4.21851e-05
-0.000902336
0.00127748
5.82312e-06
-0.000781094
0.00112918
-3.15058e-05
-0.000645787
0.000983258
-7.58648e-05
-0.000504176
0.000845809
-0.000115028
-0.00036539
0.000723971
-0.000141711
-0.000240447
0.000621685
-0.00015406
-0.000137132
0.000539522
-0.000152582
-5.87604e-05
0.000474537
-0.00014075
-8.3094e-06
0.000418026
-0.000118013
1.06587e-05
0.000341694
-7.8875e-05
0.000196356
-2.31301e-05
2.66992e-05
5.90469e-06
-5.5803e-05
8.55656e-05
4.27649e-05
-0.000116477
0.000131974
0.000120117
-0.000130399
0.000147017
0.000222873
-0.000126131
0.000136419
0.000343262
-0.000130149
0.000107177
0.000480037
-0.000143877
6.37165e-05
0.000630389
-0.000160818
1.41063e-06
0.000789944
-0.000170969
-7.99062e-05
0.000949348
-0.000171977
-0.000174488
0.00110186
-0.000164621
-0.000278242
0.00124615
-0.000152549
-0.000388541
0.00137728
-0.000135513
-0.000502351
0.00149426
-0.000114241
-0.000614533
0.00158961
-8.73603e-05
-0.000718045
0.00166247
-5.61199e-05
-0.000814155
0.0017149
-1.63737e-05
-0.000899782
0.00175084
2.31437e-05
-0.000974751
0.00177034
6.4554e-05
-0.00103793
0.0017734
0.000107161
-0.00108872
0.00176157
0.000149408
-0.00112796
0.00173817
0.000187934
-0.00115764
0.00170533
0.00022091
-0.00117928
0.00166338
0.000246398
-0.00119408
0.00161374
0.000261823
-0.0012034
0.00155615
0.000266624
-0.00120626
0.00148945
0.000258624
-0.00119988
0.00141275
0.000236579
-0.00118028
0.00132544
0.000200741
-0.00114187
0.00122784
0.000151867
-0.00107894
0.00112205
9.25012e-05
-0.00098587
0.00101184
2.42721e-05
-0.000863704
0.000901166
-4.00755e-05
-0.000714732
0.000798298
-0.00010146
-0.000549214
0.00070807
-0.000149617
-0.000384238
0.000632793
-0.000176084
-0.000236922
0.000572186
-0.000179981
-0.000119118
0.000521215
-0.000164481
-3.72813e-05
0.000470565
-0.000134376
2.1517e-06
0.000389581
-8.73206e-05
0.0002233
-2.47925e-05
3.59158e-05
5.33947e-05
-8.34058e-05
0.000106545
0.000133346
-0.000161211
0.000161726
0.000238519
-0.000173583
0.000178851
0.000364669
-0.00015892
0.00016957
0.000507231
-0.000154688
0.000143848
0.000664646
-0.000158888
0.00010776
0.000830316
-0.000163839
6.06456e-05
0.000997712
-0.000160654
-6.36968e-06
0.00116026
-0.000143898
-8.65446e-05
0.00130443
-0.000122394
-0.00017725
0.00143057
-9.3715e-05
-0.000267828
0.00152886
-6.10018e-05
-0.000357915
0.00160467
-2.03229e-05
-0.000448376
0.00165633
2.37397e-05
-0.000531679
0.00168427
6.15025e-05
-0.000610304
0.00168854
0.000104983
-0.000683709
0.00167058
0.000153672
-0.000750737
0.00163561
0.000201758
-0.000811417
0.00158937
0.000244712
-0.000867397
0.00153696
0.000280592
-0.000921066
0.00148313
0.000308708
-0.00097417
0.00143022
0.00032821
-0.00102827
0.00137928
0.000338201
-0.00108279
0.0013313
0.000336957
-0.00113665
0.00128492
0.000325093
-0.00118693
0.00123756
0.000302178
-0.00122867
0.00118638
0.000268103
-0.00125481
0.00112799
0.00022359
-0.00125703
0.00106142
0.00016865
-0.00122734
0.000986136
0.000106224
-0.00115904
0.000905888
3.765e-05
-0.00104868
0.000824018
-3.3216e-05
-0.000897315
0.000749019
-0.000102087
-0.000714122
0.000684722
-0.000159845
-0.000516814
0.000634677
-0.000199192
-0.000329446
0.000595978
-0.00021116
-0.000173681
0.000559871
-0.000194421
-6.25338e-05
0.000515671
-0.000156254
-4.57921e-06
0.000432217
-0.000100591
0.000247796
-2.90752e-05
4.47279e-05
0.000122169
-0.000113502
0.000134315
0.000252831
-0.000209071
0.000205829
0.000383141
-0.000216135
0.00023145
0.000525348
-0.0001863
0.000228879
0.000679842
-0.00017004
0.00021037
0.000843691
-0.000160536
0.000181335
0.00100902
-0.00014967
0.000142821
0.00116751
-0.000131282
9.80447e-05
0.00130936
-0.00010432
3.7051e-05
0.00143263
-6.72028e-05
-3.00726e-05
0.00152889
-3.11893e-05
-0.000114859
0.00159382
1.98245e-05
-0.000198579
0.0016302
5.81941e-05
-0.00027809
0.00163281
0.000103029
-0.000355011
0.00161139
0.000149803
-0.000428078
0.00156547
0.000196138
-0.000498757
0.00150258
0.000238678
-0.000567264
0.00142928
0.000274839
-0.000635331
0.00135441
0.000303032
-0.00070509
0.00128426
0.000322454
-0.000777856
0.00122267
0.000333227
-0.0008547
0.00117141
0.000335656
-0.000936216
0.00113022
0.00033058
-0.00102168
0.00109754
0.000319223
-0.00110795
0.00107038
0.00030081
-0.00119059
0.00104445
0.000275742
-0.00126379
0.00101533
0.000244244
-0.00131919
0.000978726
0.000204669
-0.00134913
0.000932061
0.000159297
-0.0013446
0.000875792
0.000105816
-0.00129737
0.000813757
4.48987e-05
-0.00120099
0.000749979
-2.23354e-05
-0.00105207
0.000691662
-9.15645e-05
-0.000858651
0.000647008
-0.000155705
-0.000637813
0.000619327
-0.000205488
-0.000416896
0.000603979
-0.000228917
-0.000225421
0.000588055
-0.00021966
-8.63112e-05
0.000554623
-0.000178062
-1.03976e-05
0.000472247
-0.000115944
0.000272133
-3.47343e-05
5.64923e-05
0.000205414
-0.000139737
0.000169328
0.000392792
-0.000252797
0.00026283
0.000543418
-0.000253779
0.000302952
0.00069154
-0.000206314
0.000308789
0.000846558
-0.000172553
0.000297749
0.00100429
-0.000149564
0.000275738
0.00115612
-0.000125092
0.000242316
0.00129399
-9.30641e-05
0.000197587
0.00141019
-5.61045e-05
0.000147114
0.00149906
-1.596e-05
9.39453e-05
0.00155659
2.54689e-05
2.59225e-05
0.00158876
7.30814e-05
-4.64116e-05
0.00158486
0.000117669
-0.000130061
0.00155089
0.000165569
-0.000210891
0.00148475
0.000207469
-0.000288317
0.00139966
0.000243231
-0.000364334
0.00130795
0.000270649
-0.000441383
0.00121732
0.000289001
-0.000521116
0.00113544
0.000298695
-0.000604852
0.00106694
0.000301063
-0.000694011
0.00101392
0.000297908
-0.000788973
0.000975991
0.000290383
-0.000889155
0.000950378
0.000280023
-0.000993089
0.000933297
0.000268174
-0.0010973
0.000920366
0.00025423
-0.00119745
0.000906942
0.000237654
-0.0012889
0.000888196
0.000218585
-0.00136378
0.000862104
0.000191504
-0.00141483
0.000824663
0.000158448
-0.00143217
0.000777088
0.000116045
-0.00140413
0.00072208
6.36422e-05
-0.00132475
0.000665799
4.79342e-06
-0.00118189
0.000616076
-6.72703e-05
-0.000984637
0.000585527
-0.000135771
-0.000747445
0.000576751
-0.000194616
-0.000498798
0.000586619
-0.000231288
-0.000275778
0.000597218
-0.000232182
-0.000109748
0.000582578
-0.000193985
-1.6279e-05
0.000507834
-0.000129057
0.000296133
-4.02794e-05
6.92703e-05
0.000294896
-0.000158752
0.000208085
0.00054196
-0.000287983
0.000327233
0.000708048
-0.000283777
0.00038596
0.000852039
-0.000219226
0.000402065
0.000995468
-0.000165015
0.000396205
0.00113752
-0.000127361
0.0003782
0.00126848
-9.43557e-05
0.000348231
0.00137865
-5.46852e-05
0.000305766
0.00146411
-1.14545e-05
0.000253267
0.00152042
3.11426e-05
0.000190772
0.00154581
7.32683e-05
0.000124017
0.00153839
0.000117131
5.3749e-05
0.00149501
0.000160125
-2.14117e-05
0.00142547
0.000200584
-0.000106725
0.00133728
0.000232779
-0.000191846
0.00123085
0.000253933
-0.000277348
0.00112984
0.000263613
-0.000364184
0.00103915
0.000265012
-0.000453734
0.000964866
0.000260128
-0.000547652
0.000908735
0.00025212
-0.000646847
0.000869607
0.000243503
-0.000751148
0.00084434
0.000235952
-0.000859153
0.000828737
0.000229646
-0.000969419
0.000818465
0.000225097
-0.00107985
0.000809533
0.000221269
-0.00118791
0.000798276
0.000216726
-0.00128892
0.000781604
0.000207593
-0.00137919
0.000756274
0.000196101
-0.00145021
0.000721167
0.000174521
-0.00149112
0.000675757
0.000142244
-0.0014862
0.000621147
9.60112e-05
-0.00142508
0.000566959
3.77186e-05
-0.00129478
0.000521654
-3.58814e-05
-0.00109763
0.000497475
-0.000109089
-0.000847816
0.000501975
-0.000175043
-0.00057596
0.000535859
-0.000221096
-0.000324324
0.000579016
-0.000233435
-0.000132513
0.000593827
-0.00020306
-2.26749e-05
0.000535795
-0.000137798
0.000318513
-4.50546e-05
8.18096e-05
0.000381271
-0.000168184
0.000247068
0.000688368
-0.000311666
0.00039285
0.000866531
-0.000304265
0.000470964
0.0010002
-0.000226277
0.000499293
0.00112291
-0.000155773
0.000497505
0.00123893
-9.96283e-05
0.00048043
0.00134372
-5.81578e-05
0.000450069
0.00142721
-1.82021e-05
0.000407378
0.00148238
2.44252e-05
0.000353994
0.00150692
6.68817e-05
0.000289673
0.00150108
0.000109054
0.000216533
0.00146218
0.000149341
0.000134488
0.00139165
0.000185399
4.82292e-05
0.00129667
0.000215057
-3.84576e-05
0.00119078
0.000233193
-0.000131521
0.00108445
0.00023946
-0.000223854
0.0009871
0.000235067
-0.000316646
0.000906494
0.000225448
-0.000411481
0.000845576
0.000214125
-0.000509521
0.000802289
0.000204487
-0.000610947
0.000772637
0.000198396
-0.000715295
0.000752148
0.00019654
-0.000821519
0.000736963
0.000197998
-0.000929293
0.000723917
0.000202322
-0.00103844
0.000710499
0.000208179
-0.00114863
0.000694443
0.000214024
-0.00125748
0.00067406
0.000216395
-0.00136117
0.000646553
0.000213407
-0.001452
0.000609838
0.000202165
-0.00151788
0.000563826
0.000177808
-0.00154104
0.000512305
0.000132008
-0.00150343
0.000459631
6.97087e-05
-0.00139451
0.000412574
1.66767e-07
-0.00120444
0.000386674
-7.92714e-05
-0.000946368
0.000396416
-0.000152513
-0.000651938
0.00044795
-0.000206521
-0.000371195
0.000526285
-0.000228013
-0.00015434
0.000581381
-0.000204409
-2.9142e-05
0.000552352
-0.000141755
0.000338543
-4.91724e-05
9.24792e-05
0.000456521
-0.00016773
0.000282718
0.000821266
-0.000323137
0.000454537
0.00100968
-0.000314967
0.000551609
0.00112987
-0.000226745
0.000591159
0.00122794
-0.000144579
0.000593846
0.00131467
-7.84292e-05
0.000575586
0.00138814
-2.61613e-05
0.00054187
0.00144225
1.8675e-05
0.000497153
0.00147149
5.56047e-05
0.000440002
0.00147082
9.3249e-05
0.000370672
0.00143797
0.000132445
0.000289766
0.00137483
0.000168256
0.000199059
0.00128557
0.000196787
0.000100639
0.00117967
0.000215418
3.11793e-06
0.00106897
0.000219325
-9.37186e-05
0.000966589
0.000214702
-0.000186453
0.000878946
0.000200889
-0.000280598
0.000812815
0.000187824
-0.000375434
0.000763089
0.000177323
-0.000471406
0.000726544
0.000171717
-0.000568278
0.00069824
0.00017127
-0.000665929
0.000674374
0.000175425
-0.000764447
0.000652594
0.000182887
-0.000865036
0.000631446
0.00019306
-0.000969348
0.000610055
0.000204756
-0.00107828
0.000587364
0.000216006
-0.00119189
0.000561616
0.00022606
-0.00130719
0.000530577
0.000231271
-0.0014175
0.000492954
0.0002272
-0.0015081
0.00044772
0.000206706
-0.00156221
0.000394399
0.000172019
-0.0015573
0.000337262
0.000117458
-0.00147625
0.00028621
4.53084e-05
-0.00130529
0.0002549
-3.91816e-05
-0.00104699
0.000260865
-0.000122753
-0.00073202
0.000322399
-0.000189418
-0.00042061
0.000435052
-0.000220177
-0.000175229
0.000541511
-0.000205511
-3.52212e-05
0.000554921
-0.000142577
0.000356495
-5.31727e-05
0.000100126
0.000515006
-0.000158611
0.000312618
0.00093322
-0.000324446
0.00050828
0.00113036
-0.000316341
0.000623323
0.0012365
-0.00022167
0.0006723
0.00130921
-0.00013025
0.000678714
0.00136613
-5.78711e-05
0.000658917
0.00140998
-2.04806e-06
0.000622043
0.00143624
4.28864e-05
0.000572271
0.0014397
8.15584e-05
0.000508884
0.00141721
0.000116998
0.000433587
0.00136579
0.000147477
0.000344746
0.00128685
0.000176821
0.000245103
0.00118727
0.000197941
0.000140631
0.00107785
0.000206292
3.98722e-05
0.000968829
0.000200903
-5.97616e-05
0.000877818
0.000188404
-0.000153367
0.00080038
0.000172171
-0.000244542
0.000743703
0.000160288
-0.000334656
0.000698925
0.000154278
-0.000423861
0.000662057
0.000153691
-0.000511982
0.000628835
0.000157525
-0.000599433
0.000597142
0.000164684
-0.000687454
0.000566301
0.000174313
-0.000778462
0.00053623
0.000186224
-0.000875224
0.000506892
0.000199925
-0.000980132
0.000477746
0.000214527
-0.00109465
0.000447475
0.000228656
-0.00121746
0.000414315
0.000239073
-0.00134166
0.000375684
0.000241467
-0.0014554
0.000327886
0.000233573
-0.00154125
0.000270263
0.00020999
-0.00157569
0.000207164
0.000164542
-0.00153316
0.000147935
9.57391e-05
-0.00139168
0.000103389
1.00351e-05
-0.0011452
9.71652e-05
-8.27862e-05
-0.000820829
0.000161996
-0.000163964
-0.000477163
0.000300812
-0.000209425
-0.000198991
0.000466287
-0.000202949
-4.15032e-05
0.00053919
-0.000141757
0.000371689
-5.66972e-05
0.000104816
0.000553984
-0.000143795
0.000333955
0.00101846
-0.000314378
0.000552054
0.00122644
-0.000314179
0.000683961
0.00131841
-0.00021382
0.00074127
0.00136613
-0.000114227
0.000749517
0.00139527
-3.73864e-05
0.000728159
0.00141261
1.87275e-05
0.000688377
0.00141407
6.19533e-05
0.000633238
0.00139619
9.8651e-05
0.00056366
0.00135595
0.000130844
0.000480946
0.00129062
0.000157882
0.000385797
0.00120265
0.00017935
0.000281448
0.00109908
0.000192546
0.000174116
0.000991677
0.000193508
7.01784e-05
0.000890077
0.000182689
-2.65014e-05
0.000807432
0.000167066
-0.000117495
0.000739089
0.000152285
-0.000202799
0.000685464
0.000143541
-0.000285809
0.000640133
0.000141803
-0.000366252
0.000598443
0.000144058
-0.000444244
0.000557883
0.000148944
-0.000520733
0.000517965
0.000155667
-0.000597718
0.000479162
0.000164124
-0.000678114
0.000441943
0.000174684
-0.000765244
0.000406446
0.000187575
-0.000862421
0.000372239
0.000202684
-0.000972192
0.000338169
0.000219078
-0.00109468
0.000302241
0.000234559
-0.00122584
0.000261022
0.00024583
-0.00135775
0.000210715
0.000249078
-0.0014735
0.000149217
0.000236795
-0.00154865
7.90198e-05
0.000203296
-0.00155179
3.70018e-06
0.000147368
-0.00145113
-6.30878e-05
6.58171e-05
-0.0012311
-9.22186e-05
-3.06373e-05
-0.000912485
-3.24029e-05
-0.000124221
-0.000544406
0.000122876
-0.000190143
-0.000229399
0.000350084
-0.000198804
-4.81321e-05
0.000500176
-0.000142252
0.000383163
-5.96056e-05
0.000106451
0.000573171
-0.000125637
0.000347379
0.00107418
-0.00029665
0.000582743
0.00129356
-0.000302491
0.000730823
0.00137614
-0.000205806
0.000797308
0.00140253
-0.000102884
0.000807424
0.00140613
-2.09802e-05
0.000784171
0.001398
3.78676e-05
0.000740714
0.00137873
7.87969e-05
0.000681513
0.00134441
0.000110978
0.00060718
0.0012912
0.000139082
0.000518349
0.00121686
0.000162585
0.000418241
0.00112489
0.000177867
0.000312405
0.00102184
0.000183076
0.000205308
0.000918467
0.000180307
0.000102037
0.000825448
0.000167901
9.34577e-06
0.000748308
0.000151814
-7.65269e-05
0.000684587
0.000140375
-0.00015553
0.000630157
0.00013431
-0.000231382
0.000581487
0.000134498
-0.000303468
0.000533793
0.000136735
-0.000372205
0.000486646
0.000139974
-0.000438934
0.000440604
0.00014409
-0.000505852
0.000396454
0.000149626
-0.000575858
0.00035463
0.000157319
-0.000652331
0.000314998
0.000167921
-0.00073889
0.000276968
0.00018183
-0.000838697
0.000239222
0.000198754
-0.000953596
0.000199621
0.000217519
-0.00108304
0.000154974
0.000235494
-0.00122049
0.000100292
0.000247874
-0.00135377
3.44005e-05
0.000248095
-0.00146437
-4.10966e-05
0.000230711
-0.00151315
-0.000134473
0.000186955
-0.00146744
-0.000225727
0.00011693
-0.00130473
-0.000282538
2.76158e-05
-0.00100121
-0.000254622
-8.13005e-05
-0.00062417
-9.44756e-05
-0.000159694
-0.000272031
0.000187055
-0.00018911
-5.60945e-05
0.000426338
-0.000142098
0.000386453
-5.93846e-05
0.000104768
0.000574335
-0.000105932
0.000352593
0.00110098
-0.000274624
0.000602041
0.00133243
-0.000288316
0.000764808
0.00140926
-0.000195889
0.000840101
0.00141788
-9.06468e-05
0.000852197
0.00140015
-6.11427e-06
0.000828062
0.00137091
5.12293e-05
0.000781783
0.00133446
9.05504e-05
0.000719604
0.00128721
0.000119385
0.000641514
0.00122456
0.000144729
0.000549486
0.00114564
0.000163249
0.000446936
0.00105284
0.000174606
0.00034047
0.000953194
0.000175109
0.000236283
0.000855557
0.000167096
0.00013781
0.000767937
0.000155984
4.99472e-05
0.000693716
0.000142455
-3.16192e-05
0.000633251
0.000132902
-0.000106455
0.000576177
0.000128815
-0.000176153
0.000522759
0.000128426
-0.000241438
0.000470249
0.00012883
-0.000302962
0.00041893
0.00012924
-0.000362105
0.00036961
0.000130137
-0.00042089
0.000322853
0.000132386
-0.000482042
0.000278602
0.000137181
-0.000548563
0.000236413
0.000145105
-0.000623911
0.000195472
0.000156844
-0.000711622
0.000154255
0.000172678
-0.000814362
0.000110327
0.000192034
-0.000933599
6.10749e-05
0.000213136
-0.0010685
3.23455e-06
0.000231962
-0.00121337
-6.501e-05
0.00024428
-0.00134312
-0.000153002
0.000241648
-0.00143144
-0.000262826
0.000216672
-0.00143895
-0.000378629
0.000160412
-0.00132736
-0.000469901
7.57764e-05
-0.00107497
-0.000482781
-2.42276e-05
-0.00069527
-0.000354034
-0.000120143
-0.000320441
-2.41002e-05
-0.000163674
-6.20737e-05
0.00030859
-0.000140619
0.000377222
-5.28429e-05
0.000100268
0.000559387
-8.53205e-05
0.000350359
0.00110064
-0.000249753
0.000610075
0.00134447
-0.000271752
0.000786415
0.0014198
-0.000186877
0.000871128
0.00141531
-8.21364e-05
0.000886774
0.00137993
4.57949e-06
0.00086209
0.00133295
6.2639e-05
0.000813695
0.00128237
0.000100482
0.000749205
0.00122526
0.000126439
0.000669748
0.0011572
0.000146816
0.000576754
0.00107648
0.000162162
0.000474311
0.000985368
0.000169913
0.000368996
0.000890164
0.000168345
0.000268148
0.000797932
0.000158473
0.000174569
0.000715367
0.000146149
8.92032e-05
0.000643413
0.000135669
1.28054e-05
0.000581401
0.000128248
-5.79251e-05
0.000522641
0.000124266
-0.000123298
0.000465888
0.000122244
-0.000183946
0.000410731
0.000120166
-0.000240559
0.000357741
0.000117802
-0.000294421
0.000307472
0.000115999
-0.000347393
0.000260015
0.000115811
-0.000401808
0.000214859
0.000118158
-0.000460242
0.000171185
0.000123662
-0.000525651
0.000127975
0.000132907
-0.00060174
8.39207e-05
0.000146423
-0.000692211
3.64676e-05
0.00016433
-0.000797631
-1.89242e-05
0.000185419
-0.000923736
-7.8479e-05
0.000207818
-0.00106141
-0.000154555
0.000227218
-0.00119829
-0.000253058
0.000236942
-0.00131287
-0.000374848
0.000226601
-0.00136616
-0.00051383
0.000188491
-0.0013099
-0.000643988
0.000117822
-0.00111334
-0.000707803
2.84651e-05
-0.000768811
-0.000624212
-7.43514e-05
-0.000360829
-0.000301183
-0.0001309
-7.19832e-05
0.000151698
-0.000131954
0.000343176
-3.79376e-05
9.40682e-05
0.000530558
-6.52392e-05
0.000341563
0.00107485
-0.000221701
0.000607985
0.00133135
-0.000253306
0.000796909
0.00140994
-0.000179069
0.000891586
0.00139739
-7.67584e-05
0.000912377
0.00134787
1.12669e-05
0.000888272
0.00128652
7.05401e-05
0.000838886
0.00122433
0.000107426
0.000773449
0.00115985
0.000130847
0.000693987
0.00108868
0.000147983
0.000602067
0.0010084
0.000159996
0.000501699
0.000920534
0.000165202
0.000398725
0.000830038
0.000163101
0.000301297
0.000743625
0.000151736
0.00021162
0.00066462
0.000140424
0.000129949
0.000594387
0.000130697
5.62843e-05
0.000530871
0.000124195
-1.17511e-05
0.000470872
0.000119805
-7.44931e-05
0.000412698
0.000115932
-0.000132291
0.000356837
0.000111693
-0.000185902
0.000304091
0.000107261
-0.000236416
0.000254313
0.000103672
-0.000285503
0.000207268
0.000101833
-0.000335195
0.000162075
0.000102476
-0.000387767
0.000117644
0.000106112
-0.000445548
7.27994e-05
0.000112956
-0.000511572
2.62008e-05
0.000123743
-0.000588047
-2.57916e-05
0.000138734
-0.00068181
-8.29796e-05
0.000157819
-0.000791691
-0.000148699
0.000180101
-0.000918202
-0.000231025
0.00020298
-0.00105453
-0.000337308
0.00022058
-0.00118176
-0.00047211
0.000224486
-0.00126732
-0.000633022
0.000204753
-0.00126338
-0.000800688
0.000152758
-0.00112188
-0.000920194
7.08994e-05
-0.000821891
-0.000898826
-2.53794e-05
-0.000408985
-0.000621029
-9.30602e-05
-7.60609e-05
-7.22236e-05
-0.000109002
0.00027549
-8.37464e-06
8.68659e-05
0.000490902
-4.72102e-05
0.000327995
0.00102701
-0.000193296
0.000597391
0.00129483
-0.000232873
0.000797229
0.00138041
-0.000170309
0.00090263
0.00136506
-7.30689e-05
0.000930217
0.001306
1.42825e-05
0.0009087
0.00123396
7.40742e-05
0.000859669
0.00116238
0.000110974
0.00079441
0.00109198
0.000133128
0.00071616
0.00101897
0.000147958
0.000626635
0.000940441
0.000157484
0.000529531
0.000856867
0.000160771
0.00043066
0.000771773
0.000157136
0.0003361
0.000689986
0.000148198
0.000249488
0.000614555
0.000136676
0.000170565
0.000545739
0.000127571
9.84436e-05
0.000482066
0.000120926
3.19416e-05
0.000421791
0.000115583
-2.95051e-05
0.000363967
0.000110177
-8.57023e-05
0.000308636
0.000104398
-0.000137742
0.000257455
9.86755e-05
-0.000186296
0.000208826
9.40415e-05
-0.000232955
0.000162747
9.11793e-05
-0.00027958
0.00011797
9.07299e-05
-0.000327893
7.31535e-05
9.28035e-05
-0.000380009
2.73425e-05
9.75731e-05
-0.000437092
-2.24817e-05
0.000105765
-0.000504187
-7.63691e-05
0.000117673
-0.000584444
-0.000136484
0.000133761
-0.000679733
-0.000207712
0.000154301
-0.000792392
-0.000295868
0.000177503
-0.000920617
-0.000408904
0.000199821
-0.00105194
-0.000555093
0.000214303
-0.00115902
-0.000736676
0.000210739
-0.00119654
-0.000940809
0.00017764
-0.00110547
-0.00112107
0.000109801
-0.000850059
-0.00117586
2.16264e-05
-0.000459271
-0.000954743
-5.70737e-05
-7.83974e-05
-0.000369099
-8.39994e-05
0.000188278
8.81481e-06
7.92053e-05
0.000443529
-3.18327e-05
0.000310871
0.000961161
-0.000165812
0.000579686
0.00123775
-0.000211734
0.000788888
0.00133339
-0.000162182
0.000905832
0.00132006
-7.19424e-05
0.000941728
0.00125595
1.4152e-05
0.000924861
0.00117636
7.44656e-05
0.00087766
0.00109729
0.000112295
0.000813672
0.00102208
0.000133884
0.000737635
0.000947961
0.000147047
0.000651531
0.000871719
0.000154825
0.000558573
0.000792772
0.000157054
0.000463984
0.000713279
0.000153082
0.000373012
0.000636412
0.000144547
0.000288703
0.000564309
0.000134555
0.000211409
0.000497404
0.000125628
0.000140181
0.000434717
0.000118577
7.43893e-05
0.000375338
0.000112245
1.35369e-05
0.000319184
0.000105636
-4.27974e-05
0.000266174
9.87962e-05
-9.37837e-05
0.00021587
9.2571e-05
-0.000141457
0.000169187
8.73116e-05
-0.000186794
0.000124225
8.38594e-05
-0.000231699
8.01145e-05
8.276e-05
-0.000277725
3.59673e-05
8.32122e-05
-0.000325136
-1.21092e-05
8.68633e-05
-0.000376333
-6.4171e-05
9.28856e-05
-0.000435466
-0.000119206
0.00010197
-0.000504451
-0.000182293
0.000114795
-0.000586796
-0.000257409
0.000132042
-0.000685956
-0.000350445
0.000153736
-0.000803302
-0.000469739
0.000178181
-0.000932898
-0.000625784
0.000200287
-0.00105381
-0.00082615
0.000210382
-0.00112466
-0.001065
0.000195041
-0.00108386
-0.00130508
0.000143215
-0.000876192
-0.00144158
5.80404e-05
-0.000505793
-0.00130103
-2.41083e-05
-0.000102209
-0.000714858
-5.78241e-05
4.91969e-05
3.68712e-05
7.15001e-05
0.00039142
-1.93911e-05
0.000291323
0.000881505
-0.000140167
0.000556444
0.00116338
-0.000190755
0.000773184
0.00127096
-0.000154305
0.000902176
0.00126374
-7.26756e-05
0.00094776
0.00119896
1.14107e-05
0.000937674
0.00111457
7.18794e-05