/*--------------------------------*- C++ -*----------------------------------*\
| =========                 |                                                 |
| \\      /  F ield         | OpenFOAM: The Open Source CFD Toolbox           |
|  \\    /   O peration     | Version:  v1806                                 |
|   \\  /    A nd           | Web:      www.OpenFOAM.com                      |
|    \\/     M anipulation  |                                                 |
\*---------------------------------------------------------------------------*/
FoamFile
{
    version     2.0;
    format      ascii;
    class       surfaceScalarField;
    location    "0.0745";
    object      phi;
}
// * * * * * * * * * * * * * * * * * * * * * * * * * * * * * * * * * * * * * //

dimensions      [0 3 -1 0 0 0 0];
oriented        oriented;


internalField   nonuniform List<scalar> 
187200
(
7.02716e-06
2.47732e-06
-9.50651e-06
4.93122e-05
-2.11539e-05
-2.11311e-05
7.09135e-05
-9.45604e-06
-1.2145e-05
9.05198e-05
-9.68585e-06
-9.9203e-06
0.00010661
-5.95979e-06
-1.01302e-05
0.000123767
-5.01157e-06
-1.21454e-05
0.000138967
-7.1718e-07
-1.44829e-05
0.000155623
4.59746e-07
-1.71158e-05
0.000168924
4.98863e-06
-1.82895e-05
0.000181499
5.89576e-06
-1.84702e-05
0.000192987
7.75516e-06
-1.92436e-05
0.000200027
1.2883e-05
-1.99231e-05
0.00019056
2.19323e-05
-1.24653e-05
0.00016215
3.62668e-05
-7.85676e-06
0.000117134
4.41826e-05
8.32414e-07
7.76794e-05
2.93329e-05
1.01217e-05
2.34238e-05
3.156e-05
2.26954e-05
-2.94576e-05
4.61043e-05
6.77672e-06
-0.000127849
9.94783e-05
-1.0874e-06
-0.00025803
0.000135591
-5.40995e-06
-0.000505564
0.000223576
2.39582e-05
-0.000687368
0.00023367
-5.18667e-05
-0.000813241
0.000280492
-0.00015462
-0.000855008
0.000306912
-0.000265145
-0.000837366
0.000338235
-0.000355877
-0.000767754
0.000367213
-0.000436825
-0.000656875
0.000391641
-0.00050252
-0.000519416
0.000408018
-0.000545478
-0.000352419
0.000399246
-0.000566243
-0.000189296
0.000384722
-0.000547845
-5.6996e-05
0.000341948
-0.000474248
2.78355e-05
0.000298648
-0.000383479
6.07963e-05
0.000235332
-0.000268293
5.40856e-05
0.000174477
-0.000167767
2.99949e-05
0.000120529
-9.64384e-05
8.78674e-06
8.08471e-05
-5.96392e-05
-3.27695e-06
5.50607e-05
-4.29971e-05
-8.24671e-06
4.267e-05
-3.77001e-05
-8.45301e-06
3.28268e-05
-3.26205e-05
2.27592e-05
-3.1212e-05
4.64534e-06
1.51282e-05
-1.72961e-05
4.44131e-05
-3.11782e-05
-2.97431e-05
8.58306e-05
-2.44729e-05
-2.64003e-05
0.000116324
-1.45347e-05
-2.56445e-05
0.000138165
-2.94831e-06
-2.48521e-05
0.000155025
7.25945e-06
-2.91306e-05
0.000162622
2.70185e-05
-3.53328e-05
0.000166136
3.83287e-05
-4.13827e-05
0.000159581
6.31834e-05
-5.16399e-05
0.000142023
8.20936e-05
-5.86396e-05
9.9901e-05
0.000125147
-7.52704e-05
3.72219e-05
0.000166187
-9.06251e-05
-4.72887e-05
0.000203526
-9.7084e-05
-0.000148834
0.000245513
-0.000107701
-0.000272725
0.000299911
-0.000131838
-0.000455073
0.000375154
-0.000163473
-0.000633308
0.000450861
-0.000241067
-0.000822055
0.000534384
-0.000299532
-0.000989151
0.000635662
-0.000369088
-0.00114493
0.000733975
-0.000442608
-0.00129483
0.000860654
-0.000487178
-0.00139116
0.000936127
-0.000606124
-0.00144551
0.00104228
-0.000707431
-0.00143396
0.00108815
-0.000792789
-0.0013512
0.00113336
-0.000877892
-0.00120787
0.00115824
-0.000934356
-0.00101507
0.00116413
-0.000965285
-0.000787533
0.0011425
-0.000962024
-0.000550718
0.00108304
-0.000920612
-0.00032376
0.00100461
-0.000846847
-0.000130503
0.000876532
-0.000727842
2.88972e-05
0.00073479
-0.000595543
0.00011466
0.000581438
-0.000431869
0.000140772
0.000453867
-0.000305502
0.000128068
0.000334357
-0.000201124
9.89074e-05
0.000248016
-0.000138008
6.65968e-05
0.000185898
-9.85266e-05
4.1143e-05
0.000145846
-7.77215e-05
1.57287e-05
0.000116237
-5.79957e-05
8.03062e-05
-4.18185e-05
1.89815e-05
8.5571e-06
-1.24102e-05
5.70194e-05
-3.5022e-05
-3.41936e-05
9.79975e-05
-2.5352e-05
-4.00988e-05
0.000127131
-2.49102e-06
-4.11771e-05
0.000143101
2.86548e-05
-4.75732e-05
0.000148376
5.8776e-05
-5.67915e-05
0.00014005
0.000100591
-6.52455e-05
0.000123596
0.000137789
-8.30064e-05
9.5153e-05
0.000199651
-0.000108025
3.85934e-05
0.000267184
-0.000128531
-4.5182e-05
0.000350357
-0.000141435
-0.000148791
0.000433132
-0.000163336
-0.000303579
0.000537271
-0.000178956
-0.000481743
0.000645398
-0.00022172
-0.000681515
0.000754374
-0.000254692
-0.000866236
0.000865643
-0.000305768
-0.00102811
0.000973211
-0.000360481
-0.00117328
0.00109532
-0.000415761
-0.00130721
0.00123702
-0.000467422
-0.00143544
0.00138111
-0.000518908
-0.00155587
0.00151873
-0.000537653
-0.0016225
0.00160172
-0.000598954
-0.00163992
0.00170861
-0.000648921
-0.00160566
0.00173138
-0.000677482
-0.00151205
0.00175414
-0.000714395
-0.00137281
0.0017437
-0.000724698
-0.00119688
0.0017031
-0.00071491
-0.000996248
0.00162457
-0.0006827
-0.000784478
0.00150646
-0.000635189
-0.000564635
0.00135852
-0.000573752
-0.000377708
0.00118304
-0.000493437
-0.000217405
0.00100139
-0.0004269
-9.96975e-05
0.000801251
-0.00033752
-1.68442e-05
0.00063984
-0.000268826
2.45645e-05
0.000491189
-0.000198241
3.98798e-05
0.000384538
-0.000151838
4.13212e-05
0.000305339
-0.000120882
3.27605e-05
0.000254119
-9.97128e-05
1.48066e-05
0.000205065
-7.08742e-05
0.000136623
-4.151e-05
2.07059e-05
5.46967e-06
-1.76182e-05
5.84813e-05
-2.61197e-05
-4.66772e-05
9.88873e-05
-7.19395e-06
-5.85638e-05
0.000120735
4.13746e-05
-6.57131e-05
0.000124942
9.63234e-05
-7.18762e-05
0.000113957
0.000154942
-8.51806e-05
9.3712e-05
0.000230998
-0.000110163
5.59113e-05
0.000311373
-0.000135784
6.56062e-08
0.000423139
-0.000167643
-8.19419e-05
0.000536274
-0.000187083
-0.000198363
0.000669234
-0.000202457
-0.000345234
0.00080003
-0.000220028
-0.00050662
0.000931267
-0.00023261
-0.000662204
0.00104975
-0.000248771
-0.000813818
0.00117653
-0.000270543
-0.000955634
0.00130467
-0.000297207
-0.0010864
0.00142821
-0.000324231
-0.00120256
0.00155164
-0.000340172
-0.00130854
0.00168912
-0.000346115
-0.00140923
0.0018171
-0.0003353
-0.00151991
0.0019158
-0.000286392
-0.0015812
0.00195434
-0.000291327
-0.00159731
0.00201706
-0.00029233
-0.00157307
0.00198574
-0.000278605
-0.0015004
0.00196269
-0.000281208
-0.00139803
0.00190869
-0.000267365
-0.0012719
0.00182656
-0.000249593
-0.00112995
0.00171261
-0.000229991
-0.000976313
0.00156213
-0.000209298
-0.000809934
0.00139708
-0.00020494
-0.000631834
0.0012087
-0.000203759
-0.000456463
0.00102788
-0.00020186
-0.000302155
0.000843846
-0.000196902
-0.000177642
0.000704638
-0.000189311
-9.11991e-05
0.000574194
-0.000169448
-3.19289e-05
0.000474263
-0.000148994
5.20526e-06
0.00040225
-0.000134045
1.90873e-05
0.000349387
-0.000109151
1.61038e-05
0.000285812
-7.77635e-05
0.000191773
-3.90462e-05
2.11056e-05
2.02353e-05
-3.58711e-05
6.05001e-05
1.03318e-05
-7.58459e-05
0.000102677
4.19702e-05
-9.13407e-05
0.00012081
0.000121628
-9.83866e-05
0.00011654
0.000205967
-0.000105375
8.80156e-05
0.000304175
-0.000120708
4.72373e-05
0.000423255
-0.000151479
6.43161e-06
0.00053477
-0.000182591
-4.04799e-05
0.000679056
-0.000209006
-0.00011582
0.00082975
-0.000218137
-0.000212309
0.000984997
-0.000219273
-0.000320538
0.00112398
-0.000215718
-0.000449417
0.00126688
-0.000206738
-0.000588735
0.00139546
-0.000206386
-0.000727097
0.00151507
-0.000200178
-0.000848614
0.00162157
-0.000195388
-0.000951465
0.00171174
-0.000180675
-0.00102943
0.00177926
-0.000149657
-0.00111926
0.00186535
-8.63972e-05
-0.00121143
0.00193349
-2.42301e-05
-0.00134012
0.00197498
6.95173e-05
-0.00140827
0.00192626
9.62321e-05
-0.00144192
0.00194329
0.000107414
-0.00144916
0.00187993
0.000113052
-0.00142112
0.00183794
9.67092e-05
-0.00137579
0.00177535
8.80071e-05
-0.00131184
0.00168812
7.45011e-05
-0.00124169
0.00158238
6.00783e-05
-0.00114652
0.00144696
1.99945e-05
-0.00102696
0.0013026
-2.50792e-05
-0.00088073
0.00113883
-7.63557e-05
-0.000715353
0.000988628
-0.00012613
-0.000549542
0.000834043
-0.000156008
-0.000387766
0.000717737
-0.000174874
-0.000250873
0.000618825
-0.000181524
-0.000137454
0.000527037
-0.000166194
-5.58846e-05
0.000468111
-0.00014743
-5.71822e-06
0.000421131
-0.00012191
9.18873e-06
0.00035263
-8.1725e-05
0.000236072
-3.51105e-05
1.44927e-05
6.82113e-05
-6.24686e-05
6.23861e-05
7.8073e-05
-0.000115635
0.000107582
0.000135501
-0.000138726
0.000126726
0.000240387
-0.000137904
0.000117711
0.000354239
-0.000139256
8.35924e-05
0.000487747
-0.000149454
5.75078e-05
0.000635586
-0.000186246
2.28645e-05
0.000784786
-0.000215373
-2.57687e-05
0.000953424
-0.000225735
-9.05664e-05
0.00110729
-0.000212744
-0.000163748
0.00125246
-0.000194286
-0.000247747
0.00137931
-0.000171336
-0.000334922
0.00149818
-0.000144123
-0.000417953
0.00159292
-0.000114428
-0.000499664
0.00167747
-8.06932e-05
-0.000569129
0.00173388
-4.28392e-05
-0.000661665
0.00177647
2.78057e-05
-0.00076333
0.00179179
8.91352e-05
-0.000861398
0.00179845
0.000164962
-0.000952084
0.00178026
0.000243918
-0.00108516
0.00180246
0.000305593
-0.00118308
0.00170366
0.000320519
-0.00125195
0.00169259
0.000319568
-0.00130492
0.00161594
0.000316962
-0.00132902
0.00156585
0.000296181
-0.00134058
0.0015085
0.000278416
-0.00133796
0.00143876
0.000246737
-0.00132511
0.00136052
0.000209013
-0.00128801
0.00126023
0.000149638
-0.00120429
0.00115788
6.09996e-05
-0.00109039
0.00103895
-1.40275e-05
-0.00092903
0.000925961
-9.8696e-05
-0.00075313
0.000813622
-0.00015548
-0.0005614
0.000717791
-0.000191784
-0.000383871
0.000648382
-0.000207085
-0.000232746
0.000567374
-0.000191463
-0.000111535
0.000519365
-0.000172465
-3.1874e-05
0.000477432
-0.000135962
5.52458e-06
0.000404128
-8.88961e-05
0.000275408
-3.38118e-05
1.76718e-05
0.000145565
-9.50257e-05
8.37753e-05
0.000181687
-0.000169718
0.000132786
0.000270688
-0.000184198
0.000154011
0.000393617
-0.000174454
0.000145699
0.00053075
-0.000168199
0.000103042
0.000702705
-0.000172301
9.1499e-05
0.000854259
-0.000207131
7.00217e-05
0.00102254
-0.000216273
5.02126e-05
0.00117583
-0.000202597
9.16414e-06
0.00131717
-0.000168828
-4.52729e-05
0.00144149
-0.000134592
-0.000112433
0.00154359
-9.71174e-05
-0.000182481
0.00162689
-5.86588e-05
-0.000254357
0.00167822
-1.34273e-05
-0.000324644
0.00170685
4.09141e-05
-0.00038704
0.00170475
9.15192e-05
-0.000451981
0.00168968
0.000151727
-0.000520281
0.0016421
0.000217994
-0.000622212
0.00160552
0.00029486
-0.000726561
0.00152536
0.000359246
-0.000857988
0.00152009
0.000413797
-0.000993856
0.00140618
0.000433351
-0.00107544
0.00136003
0.000414142
-0.00117441
0.00131596
0.000398951
-0.0012464
0.00127751
0.000360332
-0.00131165
0.00124623
0.000327504
-0.00136177
0.00120718
0.000281707
-0.00139564
0.00116348
0.000230911
-0.00140557
0.00110634
0.000163824
-0.00135696
0.00104474
6.45199e-05
-0.0012716
0.000964165
-1.05641e-05
-0.00113352
0.000878372
-9.05005e-05
-0.000949598
0.000793654
-0.000163949
-0.000731056
0.000703286
-0.000204037
-0.000501044
0.000660699
-0.000242329
-0.000319478
0.000610909
-0.000225101
-0.000159872
0.000563849
-0.00020409
-5.45501e-05
0.000530132
-0.000158023
6.8897e-07
0.000452236
-0.000103347
0.00031302
-3.69234e-05
2.7787e-05
0.000245303
-0.000127525
0.000111519
0.00031472
-0.000216764
0.000177007
0.000432233
-0.000227032
0.000203482
0.000567333
-0.000200191
0.000193209
0.000720242
-0.00017922
0.000180783
0.000895269
-0.000180139
0.000186817
0.00104663
-0.000198401
0.000182673
0.00121563
-0.000188951
0.000165045
0.00134987
-0.000156412
0.00012493
0.00146881
-0.000111532
7.68135e-05
0.00156308
-7.34722e-05
2.05068e-05
0.00162526
-2.53665e-05
-4.1303e-05
0.0016603
2.83941e-05
-0.000105416
0.00165824
8.40887e-05
-0.000167723
0.00163275
0.000136399
-0.000232213
0.00157753
0.000191713
-0.000297748
0.00151045
0.000244764
-0.00036877
0.00142584
0.000287277
-0.000459948
0.00135687
0.000339833
-0.000564879
0.00125381
0.000376482
-0.000679134
0.00122089
0.000413456
-0.000843522
0.00115107
0.000419493
-0.000950732
0.0010708
0.000396443
-0.00108536
0.00107637
0.000374217
-0.00119626
0.00104996
0.000338451
-0.00129552
0.0010433
0.000302194
-0.0013801
0.00102924
0.000262525
-0.00144803
0.0010093
0.000222105
-0.00148583
0.00098424
0.000159892
-0.00147148
0.0009416
8.87988e-05
-0.00141055
0.000885455
1.77791e-05
-0.00129261
0.000816186
-5.57538e-05
-0.00110679
0.000751647
-0.000143806
-0.000892317
0.000687811
-0.000199002
-0.000640276
0.000647095
-0.000238438
-0.000412412
0.000639265
-0.000256221
-0.000215781
0.000594679
-0.000227462
-7.96452e-05
0.000575155
-0.000181159
-6.19638e-06
0.0004947
-0.000115912
0.000348189
-4.13647e-05
4.66868e-05
0.000354736
-0.000156119
0.000153498
0.000467725
-0.000259816
0.000247015
0.000606394
-0.000267678
0.000289875
0.000747417
-0.000222945
0.000285416
0.000911607
-0.000186905
0.000282887
0.00107171
-0.000173915
0.000278574
0.00121723
-0.000166293
0.000282622
0.00135852
-0.000146942
0.000275764
0.00146747
-0.000110739
0.00024404
0.0015601
-5.95613e-05
0.000200231
0.00161266
-5.77074e-06
0.000146862
0.00163131
4.73208e-05
8.03406e-05
0.00162387
0.000102956
1.24404e-05
0.00157624
0.0001499
-5.48398e-05
0.00150545
0.000194588
-0.000125348
0.00141203
0.000236006
-0.00019846
0.00131463
0.000268929
-0.000273033
0.00121004
0.000290376
-0.000353386
0.00112625
0.000310971
-0.000467726
0.001035
0.000333149
-0.000576392
0.000981365
0.000348189
-0.000739006
0.000962
0.000351687
-0.000884449
0.000878536
0.000337703
-0.00102996
0.00090768
0.000314199
-0.00116469
0.000891699
0.00029299
-0.00128152
0.000900237
0.000259901
-0.00138999
0.000895899
0.000241806
-0.00147988
0.000894931
0.000204257
-0.00154735
0.000876386
0.000175325
-0.00156912
0.000842517
0.000120851
-0.00152936
0.000792977
5.27247e-05
-0.00142486
0.000739235
-2.75559e-05
-0.00124485
0.000681432
-0.000109798
-0.00101571
0.000636019
-0.000177341
-0.000746993
0.000604915
-0.000226541
-0.000491023
0.00063299
-0.000249695
-0.000268313
0.000618022
-0.000246053
-0.000101681
0.000607439
-0.000198917
-1.4486e-05
0.000537625
-0.00013012
0.000381923
-4.82187e-05
6.43913e-05
0.000461677
-0.000171332
0.00019732
0.000625468
-0.000290673
0.000317063
0.000780681
-0.000294029
0.000373972
0.00092327
-0.000232762
0.000388514
0.00107451
-0.000177445
0.000385979
0.00121522
-0.00014097
0.000377088
0.00134803
-0.000121912
0.000372858
0.00145861
-9.58588e-05
0.00036441
0.00153619
-6.02752e-05
0.000347116
0.00158476
-7.36375e-06
0.000309367
0.00160973
4.06761e-05
0.000239266
0.00159677
0.000104638
0.000170327
0.0015423
0.000150507
9.61207e-05
0.00145833
0.000192121
2.02101e-05
0.00135737
0.000223988
-5.85267e-05
0.00124338
0.000247391
-0.000137859
0.00113402
0.000259944
-0.000218128
0.00102931
0.000261004
-0.000304075
0.000950614
0.000261583
-0.000419901
0.000885449
0.000265381
-0.000543697
0.000833392
0.00027177
-0.000684035
0.000825676
0.000276662
-0.00085003
0.000765334
0.000279197
-0.000986059
0.00077953
0.000264179
-0.00112862
0.000773935
0.000260322
-0.00124856
0.000785306
0.000234874
-0.0013697
0.000784882
0.000232155
-0.00148072
0.00078474
0.000221213
-0.0015676
0.0007615
0.000201767
-0.00161503
0.000731419
0.000158528
-0.00160191
0.000693849
8.6007e-05
-0.00151756
0.000652952
1.93563e-06
-0.0013589
0.000611246
-8.84737e-05
-0.00113042
0.000575899
-0.000168367
-0.000860718
0.000542647
-0.000207432
-0.000568461
0.000575411
-0.000234678
-0.000319408
0.000613023
-0.000244054
-0.000127205
0.000621622
-0.000206385
-2.28952e-05
0.00057008
-0.000136765
0.000411602
-5.25744e-05
8.00305e-05
0.000559433
-0.000177787
0.000242094
0.000774264
-0.000310859
0.000388116
0.0009438
-0.000309141
0.000463956
0.00108128
-0.000233854
0.000494152
0.00121054
-0.000166232
0.000490568
0.00132782
-0.000109017
0.000481085
0.00143514
-7.76225e-05
0.000464711
0.00151612
-4.11348e-05
0.000437753
0.00156967
-6.51769e-06
0.000402981
0.00159063
2.88993e-05
0.000368775
0.00156779
7.61482e-05
0.000312549
0.00151817
0.000134833
0.000236041
0.00144327
0.000175545
0.000148258
0.00133448
0.00021163
6.27141e-05
0.00121393
0.000228982
-2.43058e-05
0.00109351
0.000236887
-0.000111656
0.000986887
0.000234485
-0.000201464
0.00089263
0.000226483
-0.00030113
0.000829152
0.000221128
-0.000403787
0.000774098
0.000214008
-0.000521788
0.000735792
0.000215601
-0.000634445
0.000715291
0.000223042
-0.000799935
0.000694081
0.000236743
-0.000930493
0.000674579
0.000235509
-0.00106701
0.000669537
0.000240916
-0.00119254
0.00067192
0.000238919
-0.00132153
0.000674489
0.000239377
-0.00144918
0.000663303
0.000249085
-0.00155917
0.000644566
0.000226925
-0.00163004
0.000620553
0.000181744
-0.00165323
0.000587485
0.000129554
-0.00160051
0.000562562
3.7666e-05
-0.00145922
0.000525809
-5.58594e-05
-0.00122042
0.00050137
-0.000164263
-0.000934509
0.000475003
-0.000218271
-0.000630957
0.000504957
-0.000233098
-0.000366113
0.000570597
-0.000222417
-0.000149448
0.000623811
-0.000218855
-2.94494e-05
0.000592222
-0.000142141
0.000441644
-5.94908e-05
9.2543e-05
0.000639338
-0.000172448
0.000281307
0.000904273
-0.000318773
0.000452317
0.00108783
-0.000315042
0.000546534
0.00121282
-0.000225754
0.000588215
0.00131764
-0.000148776
0.00058977
0.00140673
-8.0462e-05
0.000577517
0.00148579
-3.83954e-05
0.000548852
0.00153944
5.34249e-06
0.000508826
0.00156734
4.23531e-05
0.000456156
0.00155577
8.75302e-05
0.000399468
0.00151603
0.00010845
0.000333118
0.00143709
0.000147426
0.000263882
0.00132796
0.000184544
0.000179101
0.00121001
0.000209256
8.9259e-05
0.00108615
0.000217621
-2.74962e-06
0.000971266
0.000214252
-9.2312e-05
0.000872509
0.000203939
-0.000187537
0.000793054
0.000194801
-0.000288875
0.000741848
0.000188643
-0.000391424
0.000693619
0.000183028
-0.000497076
0.00065803
0.000183414
-0.000596661
0.000623234
0.000191641
-0.000735442
0.000620635
0.000212228
-0.00085331
0.000577437
0.00021501
-0.000977546
0.000561495
0.000232278
-0.00109937
0.000558025
0.000235724
-0.00123815
0.000548951
0.000264309
-0.00137736
0.0005403
0.000262222
-0.00150252
0.000527264
0.000242453
-0.00160546
0.000513339
0.000210155
-0.00164778
0.000500734
0.000129073
-0.00162744
0.000483003
5.9218e-05
-0.0015249
0.000449356
-2.60836e-05
-0.0013291
0.000425133
-0.000119561
-0.00103605
0.00041026
-0.000228312
-0.000701144
0.0004255
-0.000255448
-0.000400421
0.000496475
-0.000226601
-0.000172701
0.00059364
-0.000197549
-3.68664e-05
0.000601666
-0.000145278
0.000467264
-6.24858e-05
0.000102088
0.000696946
-0.000159695
0.000313617
0.00100971
-0.000316969
0.000509947
0.00120231
-0.000310812
0.000623984
0.00131308
-0.000214297
0.000672053
0.00139684
-0.000127267
0.000679126
0.00145914
-5.94822e-05
0.000664036
0.0015065
-5.62036e-06
0.000628253
0.001531
4.42226e-05
0.000575789
0.00153237
8.74342e-05
0.00050783
0.00150182
0.000121905
0.00043203
0.00143872
0.000153109
0.00035075
0.00134557
0.000172802
0.000269704
0.00122759
0.000181407
0.000186591
0.00109871
0.000194407
9.86264e-05
0.000978461
0.000195655
9.5443e-06
0.000870954
0.000189395
-7.78232e-05
0.000782399
0.000177478
-0.000170561
0.000713526
0.000172266
-0.00026626
0.000667647
0.0001699
-0.000364713
0.000621352
0.000170721
-0.000454918
0.00057717
0.000171065
-0.000551763
0.000543692
0.000176387
-0.000652435
0.00052986
0.000191446
-0.000752524
0.000477357
0.000200168
-0.000862722
0.000455243
0.000216449
-0.000984541
0.00043799
0.000241853
-0.00112309
0.000429023
0.000258476
-0.00126736
0.000422638
0.000261933
-0.0014107
0.00041814
0.000252466
-0.00152875
0.000420077
0.000211307
-0.0016175
0.000417153
0.000172331
-0.00163197
0.000395315
0.000102163
-0.00157627
0.000353184
4.04668e-05
-0.00141288
0.000316578
-5.48296e-05
-0.00114359
0.000305837
-0.000164867
-0.000793154
0.000331024
-0.000255963
-0.000451042
0.000415244
-0.000260881
-0.000194872
0.00052925
-0.000191779
-4.43852e-05
0.000597046
-0.000145867
0.000491615
-6.87361e-05
0.00010586
0.000733304
-0.000142217
0.000336391
0.00108567
-0.000306487
0.000557127
0.00128755
-0.000305972
0.000688194
0.00138521
-0.000203192
0.000742571
0.00144799
-0.000105531
0.000748705
0.00148587
-3.28693e-05
0.000728427
0.00150913
1.76494e-05
0.000681955
0.00150333
7.41428e-05
0.000621237
0.00147964
0.000113452
0.00054835
0.00142578
0.000148931
0.000461704
0.00134923
0.000176134
0.000366687
0.00124525
0.000195333
0.000271515
0.00112608
0.00019669
0.000188812
0.000998991
0.000182426
0.000104102
0.000884503
0.000178668
2.29542e-05
0.000786424
0.000165678
-6.20261e-05
0.000708114
0.000159266
-0.000152756
0.000645901
0.000158356
-0.00023536
0.000592141
0.00015811
-0.000322634
0.000545142
0.000163486
-0.000402299
0.000494803
0.000162031
-0.000485713
0.000459227
0.00016788
-0.000552988
0.000429025
0.00016811
-0.000639474
0.0003815
0.000182343
-0.000738906
0.000354974
0.0001997
-0.000849565
0.000323395
0.000225255
-0.000980929
0.000315775
0.000244611
-0.0011229
0.000311848
0.000252763
-0.00127048
0.000322429
0.000243293
-0.00141922
0.000330946
0.000237868
-0.00153351
0.000320902
0.000210536
-0.00160243
0.000282395
0.000181846
-0.00159307
0.00023018
0.00011364
-0.0014766
0.000180159
1.99504e-05
-0.00123453
0.000154513
-9.07487e-05
-0.000890644
0.000186302
-0.000199162
-0.000508413
0.000300038
-0.000267024
-0.000217991
0.000459328
-0.000220499
-4.88913e-05
0.000574265
-0.000146319
0.000516811
-7.40886e-05
0.000110547
0.000740833
-0.000118077
0.000357377
0.00112653
-0.000287692
0.000596981
0.00134044
-0.000292498
0.000744708
0.00143194
-0.00019446
0.000804294
0.00147418
-8.57794e-05
0.000808465
0.00148601
-4.30703e-06
0.000781789
0.0014809
5.49055e-05
0.000734415
0.00145364
9.7065e-05
0.000667525
0.00140907
0.000137458
0.000585481
0.0013414
0.000166424
0.00049063
0.00125314
0.000190943
0.000386783
0.00114386
0.000205239
0.000280735
0.00102694
0.000205185
0.00018868
0.000906795
0.000184251
0.000105822
0.000801571
0.00016579
3.21157e-05
0.000707191
0.000152939
-4.19657e-05
0.0006362
0.000145996
-0.000121068
0.000574078
0.000150926
-0.000197173
0.000517611
0.000150636
-0.00026936
0.00046407
0.000153258
-0.000340875
0.000410981
0.000155338
-0.000404826
0.000374221
0.000148957
-0.000460492
0.000336912
0.000147777
-0.000527577
0.000291562
0.000157022
-0.000611441
0.000265052
0.000173786
-0.000711001
0.000227639
0.000195316
-0.000824889
0.000214091
0.000215572
-0.000957812
0.000220374
0.000224396
-0.00110929
0.000235862
0.000238044
-0.00125864
0.000238649
0.000241644
-0.00140298
0.000218294
0.000246949
-0.00151533
0.000176705
0.000218039
-0.00156231
0.000112871
0.000164296
-0.00150463
4.11389e-05
8.13367e-05
-0.00131165
-9.28045e-06
-2.91891e-05
-0.000998008
5.97764e-06
-0.000133313
-0.000592404
0.000126064
-0.00023163
-0.000245585
0.000364557
-0.000252048
-6.00394e-05
0.000531549
-0.000142828
0.000530971
-7.41995e-05
0.000111697
0.000720936
-9.18001e-05
0.000367898
0.00113172
-0.00026139
0.00062131
0.00135917
-0.000272134
0.000782231
0.00144788
-0.000176867
0.00084944
0.00147706
-7.00877e-05
0.000847866
0.0014649
2.26769e-05
0.0008144
0.00143874
7.56218e-05
0.000755992
0.00138929
0.000122762
0.000683383
0.00132905
0.000152622
0.000600786
0.00124848
0.000175515
0.00050429
0.00114997
0.000199667
0.000400903
0.00104101
0.000206237
0.000297754
0.000926621
0.000203466
0.000202218
0.00081588
0.000186451
0.000122105
0.000719215
0.00016247
5.07876e-05
0.000632683
0.000145826
-1.81981e-05
0.000564623
0.000140563
-8.76618e-05
0.000504311
0.000139231
-0.000150318
0.000440654
0.000139613
-0.000208631
0.000382314
0.000140069
-0.000272966
0.000339135
0.000136182
-0.000325609
0.000297142
0.000129722
-0.000374481
0.000258558
0.000127225
-0.00042808
0.000215007
0.000130154
-0.000492865
0.000184719
0.000145118
-0.000582183
0.000152561
0.000164396
-0.000677886
0.000131668
0.000178125
-0.000803508
0.000144377
0.00020162
-0.000937255
0.000145344
0.000224264
-0.00108953
0.00013584
0.000255083
-0.00124789
0.000113713
0.000262941
-0.00138947
6.65708e-05
0.000251716
-0.00148168
-3.70538e-06
0.000208787
-0.00147974
-9.67732e-05
0.000135972
-0.00134934
-0.000175352
3.56728e-05
-0.00106883
-0.000198126
-7.6415e-05
-0.000678639
-8.77436e-05
-0.000176379
-0.000277694
0.000190698
-0.000227085
-6.20727e-05
0.000476453
-0.000160524
0.000542709
-7.38084e-05
0.000120989
0.000635931
-3.59845e-05
0.000386309
0.00108826
-0.000221859
0.0006521
0.00133744
-0.000244063
0.000831173
0.00142383
-0.000155017
0.000902141
0.00144117
-3.50753e-05
0.00089743
0.00141273
5.68832e-05
0.000856643
0.00136651
0.00011302
0.000796634
0.0013002
0.000149098
0.000722879
0.00123125
0.000171561
0.000636367
0.0011479
0.000187092
0.00053804
0.00105439
0.000193904
0.000429481
0.000948137
0.000201431
0.000320732
0.000842548
0.000192821
0.000220669
0.000737883
0.000178061
0.000139156
0.000644219
0.000156508
6.49944e-05
0.00056423
0.000142615
3.98184e-06
0.000493517
0.000132119
-4.52592e-05
0.000424837
0.000128715
-9.79935e-05
0.000369985
0.000123403
-0.00015723
0.000321876
0.000119675
-0.000209588
0.000276256
0.000115237
-0.000254602
0.00023255
0.000109607
-0.000297474
0.00019298
0.00010845
-0.000344992
0.0001535
0.000109025
-0.000395959
0.000117845
0.00011784
-0.000468018
8.50082e-05
0.000139611
-0.000552149
5.82423e-05
0.000157556
-0.000650261
5.96231e-05
0.000182865
-0.000770907
4.83963e-05
0.000217594
-0.000914561
3.41075e-05
0.000245386
-0.00107592
9.39261e-06
0.000265677
-0.00123493
-4.03842e-05
0.000265969
-0.00136338
-0.000115995
0.000240737
-0.00141554
-0.000226305
0.000181697
-0.00134836
-0.000333681
9.1142e-05
-0.00113205
-0.000394734
-1.96957e-05
-0.000776039
-0.000322709
-0.000121046
-0.000351444
-5.42779e-05
-0.00017962
-6.7107e-05
0.000370946
-0.000178832
0.000536944
-6.13428e-05
0.000117918
0.000525827
-7.81415e-06
0.000370307
0.00103511
-0.000199243
0.000646892
0.00129714
-0.000236287
0.000840017
0.00138569
-0.000154982
0.000921527
0.00139339
-3.37326e-05
0.00091626
0.00134925
6.87483e-05
0.000873889
0.00128369
0.00012519
0.000801067
0.00121169
0.00016133
0.000712418
0.00113497
0.000184929
0.000620693
0.00104141
0.000198219
0.000527221
0.000943735
0.000204128
0.000432068
0.00084257
0.00020072
0.00033891
0.000744398
0.000191308
0.000254046
0.000654522
0.000168226
0.000181607
0.000569804
0.000146854
0.000116323
0.000496377
0.000133137
5.08521e-05
0.00042996
0.000129028
-1.52961e-05
0.00037356
0.000117425
-6.98161e-05
0.000318652
0.000105853
-0.000113349
0.000266067
9.93425e-05
-0.00015491
0.000221261
9.65567e-05
-0.000192474
0.00017875
9.13632e-05
-0.000232313
0.000140419
9.23992e-05
-0.000270083
0.000101954
8.93161e-05
-0.000318978
6.50733e-05
0.000101666
-0.000377261
2.72251e-05
0.000116066
-0.000454934
-4.92709e-06
0.000140841
-0.000538166
-2.90098e-05
0.000171865
-0.000642826
-5.33817e-05
0.000206438
-0.000764843
-8.60261e-05
0.000242151
-0.000909565
-0.000117789
0.000271902
-0.00106726
-0.000169549
0.000286858
-0.00121807
-0.000240743
0.000275558
-0.00131231
-0.000362899
0.000230838
-0.00130101
-0.000499321
0.000154334
-0.00113352
-0.000620806
5.85839e-05
-0.000804427
-0.00060327
-4.85301e-05
-0.000389317
-0.000331395
-0.000137991
-5.97381e-05
0.000189463
-0.000148096
0.000519233
-4.20279e-05
0.000143921
0.000335615
4.62903e-05
0.00037625
0.000927611
-0.000124829
0.000657879
0.00120365
-0.000188143
0.000854695
0.0012983
-0.000109434
0.000946724
0.0012956
5.76283e-06
0.000941887
0.0012487
0.000105384
0.000897437
0.00117246
0.000155679
0.000831282
0.00108873
0.000189119
0.000761991
0.00100415
0.000200107
0.000685036
0.000916181
0.00020218
0.000598134
0.000833395
0.000197243
0.000500379
0.000751903
0.000188423
0.000398422
0.000671615
0.000174741
0.000301127
0.000597726
0.00015409
0.000218785
0.000525477
0.00012667
0.000145703
0.000459892
0.000109568
7.84564e-05
0.000392246
0.00010496
1.86242e-05
0.000329157
0.000104235
-2.81938e-05
0.000272892
9.25776e-05
-6.93528e-05
0.000223177
8.40485e-05
-0.000105598
0.000176007
8.14984e-05
-0.000140018
0.000135511
7.7659e-05
-0.000173739
9.70938e-05
7.70455e-05
-0.000210405
6.17039e-05
7.69154e-05
-0.000254594
2.12445e-05
8.80169e-05
-0.000304853
-2.01148e-05
9.75989e-05
-0.00036217
-5.92507e-05
0.00011164
-0.000428619
-0.000104917
0.000142355
-0.000514835
-0.000146621
0.000179456
-0.000626638
-0.000191512
0.000217289
-0.000768423
-0.00023214
0.000256137
-0.000927647
-0.00030225
0.000291925
-0.00109492
-0.000386932
0.000313465
-0.00121997
-0.000543459
0.000305604
-0.00126996
-0.000707945
0.00025861
-0.00117958
-0.000887387
0.000176202
-0.000906008
-0.000938571
6.17307e-05
-0.000473613
-0.000717539
-4.62511e-05
-9.04587e-05
-9.95505e-05
-9.41401e-05
0.000437816
-9.04065e-06
0.000114497
0.000210339
1.07785e-05
0.000330958
0.000849533
-0.000138383
0.000617
0.00112367
-0.000206059
0.000829401
0.00122273
-0.000136833
0.000937546
0.0012095
-2.20379e-05
0.000958874
0.00115056
7.68183e-05
0.000923061
0.00105857
0.0001497
0.000860838
0.000978812
0.000172137
0.000781381
0.000903011
0.000180596
0.000689924
0.000827403
0.000180234
0.000595398
0.000751966
0.000175956
0.000499424
0.000679575
0.000168302
0.000408154
0.000607909
0.000154976
0.000321876
0.000545004
0.000139
0.000243577
0.00048209
0.000121686
0.00018108
0.000424489
9.78995e-05
0.00012838
0.0003619
8.30465e-05
7.45801e-05
0.000303192
7.97648e-05
2.27247e-05
0.000243875
8.08724e-05
-1.65521e-05
0.000187763
7.46908e-05
-5.82384e-05
0.000146643
7.10504e-05
-9.00144e-05
9.8677e-05
6.86091e-05
-0.000124248
6.35099e-05
6.78166e-05
-0.000158065
2.43783e-05
7.11423e-05
-0.000198244
-1.76555e-05
7.9078e-05
-0.00024946
-5.45084e-05
8.56107e-05
-0.000305241
-9.55082e-05
9.20386e-05
-0.000369151
-0.000151334
0.000110326
-0.000440763
-0.000215804
0.000140795
-0.000518732
-0.000291272
0.000177728
-0.000608235
-0.000365733
0.000223096
-0.00072098
-0.000464235
0.000274729
-0.000863725
-0.000566407
0.000322219
-0.00102516
-0.000726445
0.000344423
-0.00114483
-0.000921596
0.000333322
-0.00113578
-0.00116328
0.000266837
-0.000959466
-0.00127739
0.000162508
-0.00057052
-0.001145
3.85139e-05
-0.000143126
-0.000504321
-2.2625e-05
0.000242708
5.19812e-05
8.37657e-05
0.000110405
1.6168e-05
0.000322361
0.000733589
-0.000122651
0.000597237
0.00103358
-0.000184785
0.000823981
0.00114197
-0.000145982
0.000943654
0.00113227
-4.245e-05
0.000972268
0.00107009
5.18501e-05
0.000928463
0.000976297
0.000126081
0.000861887
0.000888922
0.000156466
0.000793479
0.00080761